      -----------------------------------------------------------      
     |                   =====================                   |     
     |                           x T B                           |     
     |                   =====================                   |     
     |                         S. Grimme                         |     
     |          Mulliken Center for Theoretical Chemistry        |     
     |                    University of Bonn                     |     
      -----------------------------------------------------------      

   * xtb version 6.7.1 (edcfbbe) compiled by 'albert@albert-system' on 2024-07-22

   xtb is free software: you can redistribute it and/or modify it under
   the terms of the GNU Lesser General Public License as published by
   the Free Software Foundation, either version 3 of the License, or
   (at your option) any later version.
   
   xtb is distributed in the hope that it will be useful,
   but WITHOUT ANY WARRANTY; without even the implied warranty of
   MERCHANTABILITY or FITNESS FOR A PARTICULAR PURPOSE.  See the
   GNU Lesser General Public License for more details.
   
   Cite this work as:
   * C. Bannwarth, E. Caldeweyher, S. Ehlert, A. Hansen, P. Pracht,
     J. Seibert, S. Spicher, S. Grimme, WIREs Comput. Mol. Sci., 2020, 11,
     e01493. DOI: 10.1002/wcms.1493
   
   for GFN2-xTB:
   * C. Bannwarth, S. Ehlert and S. Grimme., J. Chem. Theory Comput., 2019,
     15, 1652-1671. DOI: 10.1021/acs.jctc.8b01176
   for GFN1-xTB:
   * S. Grimme, C. Bannwarth, P. Shushkov, J. Chem. Theory Comput., 2017,
     13, 1989-2009. DOI: 10.1021/acs.jctc.7b00118
   for GFN0-xTB:
   * P. Pracht, E. Caldeweyher, S. Ehlert, S. Grimme, ChemRxiv, 2019, preprint.
     DOI: 10.26434/chemrxiv.8326202.v1
   for GFN-FF:
   * S. Spicher and S. Grimme, Angew. Chem. Int. Ed., 2020, 59, 15665-15673.
     DOI: 10.1002/anie.202004239
   
   for ALPB and GBSA implicit solvation:
   * S. Ehlert, M. Stahn, S. Spicher, S. Grimme, J. Chem. Theory Comput.,
     2021, 17, 4250-4261. DOI: 10.1021/acs.jctc.1c00471
   
   for ddCOSMO and CPCM-X implicit solvation:
   * M. Stahn, S. Ehlert, S. Grimme, J. Phys. Chem. A,
     2023, XX, XXXX-XXXX. DOI: 10.1021/acs.jpca.3c04382
   
   for DFT-D4:
   * E. Caldeweyher, C. Bannwarth and S. Grimme, J. Chem. Phys., 2017,
     147, 034112. DOI: 10.1063/1.4993215
   * E. Caldeweyher, S. Ehlert, A. Hansen, H. Neugebauer, S. Spicher,
     C. Bannwarth and S. Grimme, J. Chem. Phys., 2019, 150, 154122.
     DOI: 10.1063/1.5090222
   * E. Caldeweyher, J.-M. Mewes, S. Ehlert and S. Grimme, Phys. Chem. Chem. Phys.
     2020, 22, 8499-8512. DOI: 10.1039/D0CP00502A
   
   for sTDA-xTB:
   * S. Grimme and C. Bannwarth, J. Chem. Phys., 2016, 145, 054103.
     DOI: 10.1063/1.4959605
   
   in the mass-spec context:
   * V. Asgeirsson, C. Bauer and S. Grimme, Chem. Sci., 2017, 8, 4879.
     DOI: 10.1039/c7sc00601b
   * J. Koopman and S. Grimme, ACS Omega 2019, 4, 12, 15120-15133.
     DOI: 10.1021/acsomega.9b02011
   
   for metadynamics refer to:
   * S. Grimme, J. Chem. Theory Comput., 2019, 155, 2847-2862
     DOI: 10.1021/acs.jctc.9b00143
   
   for SPH calculations refer to:
   * S. Spicher and S. Grimme, J. Chem. Theory Comput., 2021, 17, 1701-1714
     DOI: 10.1021/acs.jctc.0c01306
   
   for ONIOM refer to:
   * C. Plett, A. Katbashev, S. Ehlert, S. Grimme, M. Bursch,
     Phys. Chem. Chem. Phys., 2023, 25, 17860-17868. DOI: 10.1039/D3CP02178E
   
   for DIPRO refer to:
   * J. Kohn, N. Gildemeister, S. Grimme, D. Fazzi, A. Hansen,
     J. Chem. Phys., 2023, just accepted.
   
   for PTB refer to:
   * S. Grimme, M. Mueller, A. Hansen, J. Chem. Phys., 2023, 158, 124111.
     DOI: 10.1063/5.0137838
   
   with help from (in alphabetical order)
   P. Atkinson, C. Bannwarth, F. Bohle, G. Brandenburg, E. Caldeweyher
   M. Checinski, S. Dohm, S. Ehlert, S. Ehrlich, I. Gerasimov, C. Hölzer
   A. Katbashev, J. Kohn, J. Koopman, C. Lavigne, S. Lehtola, F. März, M. Müller,
   F. Musil, H. Neugebauer, J. Pisarek, C. Plett, P. Pracht, F. Pultar,
   J. Seibert, P. Shushkov, S. Spicher, M. Stahn, M. Steiner, T. Strunk,
   J. Stückrath, T. Rose, and J. Unsleber
   
 * started run on 2025/04/09 at 05:20:59.501     
   ID    Z sym.   atoms
    1    6 C      1, 2, 7, 8, 10, 15, 16, 18, 19
    2    8 O      3, 6, 14, 17
    3   15 P      4, 12
    4   16 S      5, 9, 11, 13
    5    1 H      20-41

           -------------------------------------------------
          |                Calculation Setup                |
           -------------------------------------------------

          program call               : /srv/scratch/z5358697/.xtb/bin/xtb solv.coord --gfn2 --sp --chrg 0 --norestart --parallel 1 --alpb water reference -I xtb_sp-xcontrol-inp
          hostname                   : k163
          coordinate file            : solv.coord
          omp threads                :                     1


           -------------------------------------------------
          |                 G F N 2 - x T B                 |
           -------------------------------------------------

        Reference                      10.1021/acs.jctc.8b01176
      * Hamiltonian:
        H0-scaling (s, p, d)           1.850000    2.230000    2.230000
        zeta-weighting                 0.500000
      * Dispersion:
        s8                             2.700000
        a1                             0.520000
        a2                             5.000000
        s9                             5.000000
      * Repulsion:
        kExp                           1.500000    1.000000
        rExp                           1.000000
      * Coulomb:
        alpha                          2.000000
        third order                    shell-resolved
        anisotropic                    true
        a3                             3.000000
        a5                             4.000000
        cn-shift                       1.200000
        cn-exp                         4.000000
        max-rad                        5.000000

      * Solvation model:               ALPB
        Solvent                        water
        Parameter file                 internal GFN2-xTB/ALPB
        Dielectric constant                8.0200E+01
        Reference state                gsolv=reference [X=1]
        Free energy shift                  2.8945E-03 Eh       1.8164E+00 kcal/mol
        Temperature                        2.9815E+02 K
        Density                            1.0000E+00 kg/L
        Solvent mass                       1.8000E+01 g/mol
        Interaction kernel             P16
        Born radius scaling (c1)           1.4744E+00
        Born radii integrator          GBOBC
        Born offset                        0.0000E+00 a0       0.0000E+00 AA
        H-bond correction              true
        Ion screening                  false
        Surface tension                    1.0000E-05 Eh       1.5569E+01 dyn/cm
        Grid points                               974 per atom

          ...................................................
          :                      SETUP                      :
          :.................................................:
          :  # basis functions                 134          :
          :  # atomic orbitals                 128          :
          :  # shells                           66          :
          :  # electrons                       116          :
          :  max. iterations                   250          :
          :  Hamiltonian                  GFN2-xTB          :
          :  restarted?                      false          :
          :  GBSA solvation                   true          :
          :  PC potential                    false          :
          :  electronic temp.          300.0000000     K    :
          :  accuracy                    1.0000000          :
          :  -> integral cutoff          0.2500000E+02      :
          :  -> integral neglect         0.1000000E-07      :
          :  -> SCF convergence          0.1000000E-05 Eh   :
          :  -> wf. convergence          0.1000000E-03 e    :
          :  Broyden damping             0.4000000          :
          :  net charge                          0          :
          :  unpaired electrons                  0          :
          ...................................................

 iter      E             dE          RMSdq      gap      omega  full diag
   1    -65.4402779 -0.654403E+02  0.639E+00    4.12       0.0  T
   2    -65.5642481 -0.123970E+00  0.366E+00    3.49       1.0  T
   3    -65.5835680 -0.193199E-01  0.108E+00    3.04       1.0  T
   4    -65.5862584 -0.269039E-02  0.506E-01    2.99       1.0  T
   5    -65.5868879 -0.629490E-03  0.269E-01    3.04       1.0  T
   6    -65.5870683 -0.180412E-03  0.125E-01    3.04       1.0  T
   7    -65.5871255 -0.572423E-04  0.454E-02    3.05       1.0  T
   8    -65.5871297 -0.419098E-05  0.182E-02    3.05       1.0  T
   9    -65.5871306 -0.929997E-06  0.541E-03    3.05       2.9  T
  10    -65.5871307 -0.203555E-07  0.289E-03    3.05       5.4  T
  11    -65.5871307 -0.490679E-07  0.873E-04    3.05      17.9  T
  12    -65.5871307 -0.139070E-08  0.458E-04    3.05      34.1  T

   *** convergence criteria satisfied after 12 iterations ***

         #    Occupation            Energy/Eh            Energy/eV
      -------------------------------------------------------------
         1        2.0000           -0.7661529             -20.8481
       ...           ...                  ...                  ...
        52        2.0000           -0.4451822             -12.1140
        53        2.0000           -0.4206161             -11.4455
        54        2.0000           -0.4115247             -11.1982
        55        2.0000           -0.3945120             -10.7352
        56        2.0000           -0.3908345             -10.6351
        57        2.0000           -0.3902168             -10.6183
        58        2.0000           -0.3892784             -10.5928 (HOMO)
        59                         -0.2771476              -7.5416 (LUMO)
        60                         -0.2561808              -6.9710
        61                         -0.2163894              -5.8883
        62                         -0.1900941              -5.1727
        63                         -0.1750591              -4.7636
       ...                                ...                  ...
       128                          1.2886738              35.0666
      -------------------------------------------------------------
                  HL-Gap            0.1121308 Eh            3.0512 eV
             Fermi-level           -0.3332130 Eh           -9.0672 eV

 SCC (total)                   0 d,  0 h,  0 min,  0.065 sec
 SCC setup                      ...        0 min,  0.003 sec (  3.975%)
 Dispersion                     ...        0 min,  0.000 sec (  0.474%)
 classical contributions        ...        0 min,  0.000 sec (  0.091%)
 integral evaluation            ...        0 min,  0.014 sec ( 22.350%)
 iterations                     ...        0 min,  0.025 sec ( 38.850%)
 molecular gradient             ...        0 min,  0.022 sec ( 33.904%)
 printout                       ...        0 min,  0.000 sec (  0.327%)

         :::::::::::::::::::::::::::::::::::::::::::::::::::::
         ::                     SUMMARY                     ::
         :::::::::::::::::::::::::::::::::::::::::::::::::::::
         :: total energy             -65.025682206661 Eh    ::
         :: total w/o Gsasa/hb       -65.028988372107 Eh    ::
         :: gradient norm              0.000052248063 Eh/a0 ::
         :: HOMO-LUMO gap              3.051233451305 eV    ::
         ::.................................................::
         :: SCC energy               -65.586183371859 Eh    ::
         :: -> isotropic ES            0.123386998032 Eh    ::
         :: -> anisotropic ES         -0.012227607753 Eh    ::
         :: -> anisotropic XC          0.030478894956 Eh    ::
         :: -> dispersion             -0.053109002098 Eh    ::
         :: -> Gsolv                  -0.020712679852 Eh    ::
         ::    -> Gelec               -0.024018845298 Eh    ::
         ::    -> Gsasa                0.004356420560 Eh    ::
         ::    -> Ghb                 -0.003944804274 Eh    ::
         ::    -> Gshift               0.002894549160 Eh    ::
         :: repulsion energy           0.560501165199 Eh    ::
         :: add. restraining           0.000000000000 Eh    ::
         :: total charge               0.000000000000 e     ::
         :::::::::::::::::::::::::::::::::::::::::::::::::::::

           -------------------------------------------------
          |                Property Printout                |
           -------------------------------------------------

    * Orbital Energies and Occupations

         #    Occupation            Energy/Eh            Energy/eV
      -------------------------------------------------------------
         1        2.0000           -0.7661529             -20.8481
       ...           ...                  ...                  ...
        46        2.0000           -0.4673215             -12.7165
        47        2.0000           -0.4620470             -12.5729
        48        2.0000           -0.4576199             -12.4525
        49        2.0000           -0.4530520             -12.3282
        50        2.0000           -0.4523202             -12.3083
        51        2.0000           -0.4495565             -12.2331
        52        2.0000           -0.4451822             -12.1140
        53        2.0000           -0.4206161             -11.4455
        54        2.0000           -0.4115247             -11.1982
        55        2.0000           -0.3945120             -10.7352
        56        2.0000           -0.3908345             -10.6351
        57        2.0000           -0.3902168             -10.6183
        58        2.0000           -0.3892784             -10.5928 (HOMO)
        59                         -0.2771476              -7.5416 (LUMO)
        60                         -0.2561808              -6.9710
        61                         -0.2163894              -5.8883
        62                         -0.1900941              -5.1727
        63                         -0.1750591              -4.7636
        64                         -0.1720905              -4.6828
        65                         -0.1676617              -4.5623
        66                         -0.1557253              -4.2375
        67                         -0.1318952              -3.5891
        68                         -0.1238858              -3.3711
        69                         -0.0493008              -1.3415
       ...                                ...                  ...
       128                          1.2886738              35.0666
      -------------------------------------------------------------
                  HL-Gap            0.1121308 Eh            3.0512 eV
             Fermi-level           -0.3332130 Eh           -9.0672 eV

     #   Z          covCN         q      C6AA      α(0)
     1   6 C        3.751    -0.133    23.116     6.857
     2   6 C        3.844     0.073    19.338     6.255
     3   8 O        1.654    -0.258    18.294     5.774
     4  15 P        3.800     0.369   144.893    21.623
     5  16 S        0.927    -0.445   158.763    21.312
     6   8 O        1.655    -0.250    18.159     5.752
     7   6 C        3.824     0.071    19.372     6.263
     8   6 C        3.752    -0.119    22.847     6.816
     9  16 S        2.018    -0.161   147.856    20.466
    10   6 C        3.823     0.043    19.828     6.337
    11  16 S        2.005    -0.135   146.732    20.388
    12  15 P        3.895     0.365   145.013    21.632
    13  16 S        0.926    -0.469   159.909    21.389
    14   8 O        1.655    -0.256    18.262     5.769
    15   6 C        3.866     0.075    19.299     6.247
    16   6 C        3.751    -0.128    23.011     6.841
    17   8 O        1.655    -0.260    18.319     5.778
    18   6 C        3.870     0.080    19.215     6.233
    19   6 C        3.751    -0.126    22.987     6.837
    20   1 H        0.925     0.066     2.131     2.283
    21   1 H        0.925     0.086     1.919     2.166
    22   1 H        0.925     0.069     2.092     2.262
    23   1 H        0.924     0.068     2.106     2.269
    24   1 H        0.924     0.089     1.891     2.150
    25   1 H        0.924     0.071     2.073     2.252
    26   1 H        0.924     0.100     1.785     2.089
    27   1 H        0.925     0.082     1.959     2.189
    28   1 H        0.925     0.065     2.136     2.286
    29   1 H        0.925     0.049     2.334     2.389
    30   1 H        0.925     0.101     1.777     2.085
    31   1 H        0.925     0.089     1.886     2.148
    32   1 H        0.924     0.066     2.126     2.280
    33   1 H        0.924     0.093     1.854     2.129
    34   1 H        0.925     0.054     2.275     2.359
    35   1 H        0.925     0.085     1.924     2.169
    36   1 H        0.925     0.067     2.122     2.278
    37   1 H        0.924     0.066     2.130     2.282
    38   1 H        0.924     0.088     1.899     2.155
    39   1 H        0.925     0.071     2.075     2.253
    40   1 H        0.925     0.053     2.280     2.361
    41   1 H        0.925     0.086     1.921     2.168

 Mol. C6AA /au·bohr⁶  :      26393.837332
 Mol. C8AA /au·bohr⁸  :     862600.205019
 Mol. α(0) /au        :        257.569647


Wiberg/Mayer (AO) data.
largest (>0.10) Wiberg bond orders for each atom

 ---------------------------------------------------------------------------
     #   Z sym  total        # sym  WBO       # sym  WBO       # sym  WBO
 ---------------------------------------------------------------------------
     1   6 C    3.984 --     2 C    1.021    22 H    0.983    20 H    0.981
                            21 H    0.975
     2   6 C    3.885 --     1 C    1.021    24 H    0.967    23 H    0.964
                             3 O    0.868
     3   8 O    2.409 --     4 P    1.353     2 C    0.868
     4  15 P    5.306 --     5 S    1.544     3 O    1.353     6 O    1.332
                             9 S    0.936
     5  16 S    1.863 --     4 P    1.544     9 S    0.139
     6   8 O    2.417 --     4 P    1.332     7 C    0.884
     7   6 C    3.888 --     8 C    1.023    25 H    0.968    26 H    0.963
                             6 O    0.884
     8   6 C    3.989 --     7 C    1.023    28 H    0.981    27 H    0.976
                            29 H    0.974
     9  16 S    2.274 --    10 C    0.988     4 P    0.936     5 S    0.139
    10   6 C    3.956 --     9 S    0.988    11 S    0.985    31 H    0.959
                            30 H    0.957
    11  16 S    2.293 --    12 P    0.989    10 C    0.985    13 S    0.133
    12  15 P    5.310 --    13 S    1.512    14 O    1.325    17 O    1.323
                            11 S    0.989
    13  16 S    1.837 --    12 P    1.512    11 S    0.133
    14   8 O    2.412 --    12 P    1.325    15 C    0.889
    15   6 C    3.890 --    16 C    1.022    32 H    0.967    33 H    0.965
                            14 O    0.889
    16   6 C    3.988 --    15 C    1.022    36 H    0.982    35 H    0.976
                            34 H    0.975
    17   8 O    2.397 --    12 P    1.323    18 C    0.876
    18   6 C    3.889 --    19 C    1.023    37 H    0.967    38 H    0.965
                            17 O    0.876
    19   6 C    3.987 --    18 C    1.023    39 H    0.982    40 H    0.976
                            41 H    0.975
    20   1 H    0.996 --     1 C    0.981
    21   1 H    0.991 --     1 C    0.975
    22   1 H    0.995 --     1 C    0.983
    23   1 H    0.995 --     2 C    0.964
    24   1 H    0.992 --     2 C    0.967
    25   1 H    0.995 --     7 C    0.968
    26   1 H    0.990 --     7 C    0.963
    27   1 H    0.993 --     8 C    0.976
    28   1 H    0.996 --     8 C    0.981
    29   1 H    0.998 --     8 C    0.974
    30   1 H    0.990 --    10 C    0.957
    31   1 H    0.992 --    10 C    0.959
    32   1 H    0.996 --    15 C    0.967
    33   1 H    0.991 --    15 C    0.965
    34   1 H    0.997 --    16 C    0.975
    35   1 H    0.992 --    16 C    0.976
    36   1 H    0.996 --    16 C    0.982
    37   1 H    0.996 --    18 C    0.967
    38   1 H    0.992 --    18 C    0.965
    39   1 H    0.995 --    19 C    0.982
    40   1 H    0.997 --    19 C    0.976
    41   1 H    0.992 --    19 C    0.975
 ---------------------------------------------------------------------------

Topologies differ in total number of bonds
Writing topology from bond orders to xtbtopo.mol

molecular dipole:
                 x           y           z       tot (Debye)
 q only:       -0.460      -2.340      -0.135
   full:       -0.248      -2.269      -0.045       5.802
molecular quadrupole (traceless):
                xx          xy          yy          xz          yz          zz
 q only:       12.100     -23.782       7.158     -27.781     -14.812     -19.258
  q+dip:       13.436     -22.292       4.175     -29.133     -18.044     -17.611
   full:       14.252     -22.485       5.160     -29.588     -17.500     -19.412


           -------------------------------------------------
          | TOTAL ENERGY              -65.025682206661 Eh   |
          | GRADIENT NORM               0.000052248063 Eh/α |
          | HOMO-LUMO GAP               3.051233451305 eV   |
           -------------------------------------------------

------------------------------------------------------------------------
 * finished run on 2025/04/09 at 05:20:59.621     
------------------------------------------------------------------------
 total:
 * wall-time:     0 d,  0 h,  0 min,  0.120 sec
 *  cpu-time:     0 d,  0 h,  0 min,  0.072 sec
 * ratio c/w:     0.597 speedup
 SCF:
 * wall-time:     0 d,  0 h,  0 min,  0.065 sec
 *  cpu-time:     0 d,  0 h,  0 min,  0.058 sec
 * ratio c/w:     0.897 speedup

