      -----------------------------------------------------------      
     |                   =====================                   |     
     |                           x T B                           |     
     |                   =====================                   |     
     |                         S. Grimme                         |     
     |          Mulliken Center for Theoretical Chemistry        |     
     |                    University of Bonn                     |     
      -----------------------------------------------------------      

   * xtb version 6.7.1 (edcfbbe) compiled by 'albert@albert-system' on 2024-07-22

   xtb is free software: you can redistribute it and/or modify it under
   the terms of the GNU Lesser General Public License as published by
   the Free Software Foundation, either version 3 of the License, or
   (at your option) any later version.
   
   xtb is distributed in the hope that it will be useful,
   but WITHOUT ANY WARRANTY; without even the implied warranty of
   MERCHANTABILITY or FITNESS FOR A PARTICULAR PURPOSE.  See the
   GNU Lesser General Public License for more details.
   
   Cite this work as:
   * C. Bannwarth, E. Caldeweyher, S. Ehlert, A. Hansen, P. Pracht,
     J. Seibert, S. Spicher, S. Grimme, WIREs Comput. Mol. Sci., 2020, 11,
     e01493. DOI: 10.1002/wcms.1493
   
   for GFN2-xTB:
   * C. Bannwarth, S. Ehlert and S. Grimme., J. Chem. Theory Comput., 2019,
     15, 1652-1671. DOI: 10.1021/acs.jctc.8b01176
   for GFN1-xTB:
   * S. Grimme, C. Bannwarth, P. Shushkov, J. Chem. Theory Comput., 2017,
     13, 1989-2009. DOI: 10.1021/acs.jctc.7b00118
   for GFN0-xTB:
   * P. Pracht, E. Caldeweyher, S. Ehlert, S. Grimme, ChemRxiv, 2019, preprint.
     DOI: 10.26434/chemrxiv.8326202.v1
   for GFN-FF:
   * S. Spicher and S. Grimme, Angew. Chem. Int. Ed., 2020, 59, 15665-15673.
     DOI: 10.1002/anie.202004239
   
   for ALPB and GBSA implicit solvation:
   * S. Ehlert, M. Stahn, S. Spicher, S. Grimme, J. Chem. Theory Comput.,
     2021, 17, 4250-4261. DOI: 10.1021/acs.jctc.1c00471
   
   for ddCOSMO and CPCM-X implicit solvation:
   * M. Stahn, S. Ehlert, S. Grimme, J. Phys. Chem. A,
     2023, XX, XXXX-XXXX. DOI: 10.1021/acs.jpca.3c04382
   
   for DFT-D4:
   * E. Caldeweyher, C. Bannwarth and S. Grimme, J. Chem. Phys., 2017,
     147, 034112. DOI: 10.1063/1.4993215
   * E. Caldeweyher, S. Ehlert, A. Hansen, H. Neugebauer, S. Spicher,
     C. Bannwarth and S. Grimme, J. Chem. Phys., 2019, 150, 154122.
     DOI: 10.1063/1.5090222
   * E. Caldeweyher, J.-M. Mewes, S. Ehlert and S. Grimme, Phys. Chem. Chem. Phys.
     2020, 22, 8499-8512. DOI: 10.1039/D0CP00502A
   
   for sTDA-xTB:
   * S. Grimme and C. Bannwarth, J. Chem. Phys., 2016, 145, 054103.
     DOI: 10.1063/1.4959605
   
   in the mass-spec context:
   * V. Asgeirsson, C. Bauer and S. Grimme, Chem. Sci., 2017, 8, 4879.
     DOI: 10.1039/c7sc00601b
   * J. Koopman and S. Grimme, ACS Omega 2019, 4, 12, 15120-15133.
     DOI: 10.1021/acsomega.9b02011
   
   for metadynamics refer to:
   * S. Grimme, J. Chem. Theory Comput., 2019, 155, 2847-2862
     DOI: 10.1021/acs.jctc.9b00143
   
   for SPH calculations refer to:
   * S. Spicher and S. Grimme, J. Chem. Theory Comput., 2021, 17, 1701-1714
     DOI: 10.1021/acs.jctc.0c01306
   
   for ONIOM refer to:
   * C. Plett, A. Katbashev, S. Ehlert, S. Grimme, M. Bursch,
     Phys. Chem. Chem. Phys., 2023, 25, 17860-17868. DOI: 10.1039/D3CP02178E
   
   for DIPRO refer to:
   * J. Kohn, N. Gildemeister, S. Grimme, D. Fazzi, A. Hansen,
     J. Chem. Phys., 2023, just accepted.
   
   for PTB refer to:
   * S. Grimme, M. Mueller, A. Hansen, J. Chem. Phys., 2023, 158, 124111.
     DOI: 10.1063/5.0137838
   
   with help from (in alphabetical order)
   P. Atkinson, C. Bannwarth, F. Bohle, G. Brandenburg, E. Caldeweyher
   M. Checinski, S. Dohm, S. Ehlert, S. Ehrlich, I. Gerasimov, C. Hölzer
   A. Katbashev, J. Kohn, J. Koopman, C. Lavigne, S. Lehtola, F. März, M. Müller,
   F. Musil, H. Neugebauer, J. Pisarek, C. Plett, P. Pracht, F. Pultar,
   J. Seibert, P. Shushkov, S. Spicher, M. Stahn, M. Steiner, T. Strunk,
   J. Stückrath, T. Rose, and J. Unsleber
   
 * started run on 2025/04/09 at 07:31:34.883     
   ID    Z sym.   atoms
    1    6 C      1, 2, 4, 6, 7, 9, 12, 13, 18, 20
    2    8 O      3, 5, 10, 11, 17, 19
    3    1 H      8, 21-38
    4   16 S      14, 16
    5   15 P      15

           -------------------------------------------------
          |                Calculation Setup                |
           -------------------------------------------------

          program call               : /software/projects/pawsey0265/mwang1/xtb/bin/xtb solv.coord --gfn2 --sp --chrg 0 --norestart --parallel 1 --alpb water reference -I xtb_sp-xcontrol-inp
          hostname                   : nid002043
          coordinate file            : solv.coord
          omp threads                :                     1


           -------------------------------------------------
          |                 G F N 2 - x T B                 |
           -------------------------------------------------

        Reference                      10.1021/acs.jctc.8b01176
      * Hamiltonian:
        H0-scaling (s, p, d)           1.850000    2.230000    2.230000
        zeta-weighting                 0.500000
      * Dispersion:
        s8                             2.700000
        a1                             0.520000
        a2                             5.000000
        s9                             5.000000
      * Repulsion:
        kExp                           1.500000    1.000000
        rExp                           1.000000
      * Coulomb:
        alpha                          2.000000
        third order                    shell-resolved
        anisotropic                    true
        a3                             3.000000
        a5                             4.000000
        cn-shift                       1.200000
        cn-exp                         4.000000
        max-rad                        5.000000

      * Solvation model:               ALPB
        Solvent                        water
        Parameter file                 internal GFN2-xTB/ALPB
        Dielectric constant                8.0200E+01
        Reference state                gsolv=reference [X=1]
        Free energy shift                  2.8945E-03 Eh       1.8164E+00 kcal/mol
        Temperature                        2.9815E+02 K
        Density                            1.0000E+00 kg/L
        Solvent mass                       1.8000E+01 g/mol
        Interaction kernel             P16
        Born radius scaling (c1)           1.4744E+00
        Born radii integrator          GBOBC
        Born offset                        0.0000E+00 a0       0.0000E+00 AA
        H-bond correction              true
        Ion screening                  false
        Surface tension                    1.0000E-05 Eh       1.5569E+01 dyn/cm
        Grid points                               974 per atom

          ...................................................
          :                      SETUP                      :
          :.................................................:
          :  # basis functions                 113          :
          :  # atomic orbitals                 110          :
          :  # shells                           60          :
          :  # electrons                       112          :
          :  max. iterations                   250          :
          :  Hamiltonian                  GFN2-xTB          :
          :  restarted?                      false          :
          :  GBSA solvation                   true          :
          :  PC potential                    false          :
          :  electronic temp.          300.0000000     K    :
          :  accuracy                    1.0000000          :
          :  -> integral cutoff          0.2500000E+02      :
          :  -> integral neglect         0.1000000E-07      :
          :  -> SCF convergence          0.1000000E-05 Eh   :
          :  -> wf. convergence          0.1000000E-03 e    :
          :  Broyden damping             0.4000000          :
          :  net charge                          0          :
          :  unpaired electrons                  0          :
          ...................................................

 iter      E             dE          RMSdq      gap      omega  full diag
   1    -65.0991219 -0.650991E+02  0.591E+00    4.36       0.0  T
   2    -65.2288138 -0.129692E+00  0.314E+00    3.34       1.0  T
   3    -65.2384327 -0.961892E-02  0.120E+00    3.29       1.0  T
   4    -65.2438320 -0.539931E-02  0.454E-01    3.18       1.0  T
   5    -65.2445915 -0.759503E-03  0.221E-01    3.27       1.0  T
   6    -65.2447161 -0.124635E-03  0.983E-02    3.27       1.0  T
   7    -65.2447362 -0.200721E-04  0.352E-02    3.28       1.0  T
   8    -65.2447379 -0.175080E-05  0.126E-02    3.28       1.3  T
   9    -65.2447387 -0.801294E-06  0.410E-03    3.28       4.0  T
  10    -65.2447388 -0.571306E-07  0.203E-03    3.28       8.0  T
  11    -65.2447388 -0.105815E-07  0.588E-04    3.28      27.6  T
  12    -65.2447388 -0.839989E-09  0.253E-04    3.28      64.2  T

   *** convergence criteria satisfied after 12 iterations ***

         #    Occupation            Energy/Eh            Energy/eV
      -------------------------------------------------------------
         1        2.0000           -0.7767426             -21.1362
       ...           ...                  ...                  ...
        50        2.0000           -0.4528948             -12.3239
        51        2.0000           -0.4479572             -12.1895
        52        2.0000           -0.4432492             -12.0614
        53        2.0000           -0.4348899             -11.8340
        54        2.0000           -0.4124463             -11.2232
        55        2.0000           -0.3938637             -10.7176
        56        2.0000           -0.3913321             -10.6487 (HOMO)
        57                         -0.2707493              -7.3675 (LUMO)
        58                         -0.2582592              -7.0276
        59                         -0.2417690              -6.5789
        60                         -0.1999279              -5.4403
        61                         -0.1763343              -4.7983
       ...                                ...                  ...
       110                          1.2792252              34.8095
      -------------------------------------------------------------
                  HL-Gap            0.1205827 Eh            3.2812 eV
             Fermi-level           -0.3310407 Eh           -9.0081 eV

 SCC (total)                   0 d,  0 h,  0 min,  0.099 sec
 SCC setup                      ...        0 min,  0.005 sec (  4.602%)
 Dispersion                     ...        0 min,  0.000 sec (  0.494%)
 classical contributions        ...        0 min,  0.000 sec (  0.109%)
 integral evaluation            ...        0 min,  0.045 sec ( 45.542%)
 iterations                     ...        0 min,  0.029 sec ( 29.342%)
 molecular gradient             ...        0 min,  0.020 sec ( 19.674%)
 printout                       ...        0 min,  0.000 sec (  0.210%)

         :::::::::::::::::::::::::::::::::::::::::::::::::::::
         ::                     SUMMARY                     ::
         :::::::::::::::::::::::::::::::::::::::::::::::::::::
         :: total energy             -64.672477554330 Eh    ::
         :: total w/o Gsasa/hb       -64.674343138856 Eh    ::
         :: gradient norm              0.000081166025 Eh/a0 ::
         :: HOMO-LUMO gap              3.281223391011 eV    ::
         ::.................................................::
         :: SCC energy               -65.244157265991 Eh    ::
         :: -> isotropic ES            0.173543894114 Eh    ::
         :: -> anisotropic ES         -0.016652974204 Eh    ::
         :: -> anisotropic XC          0.016776435446 Eh    ::
         :: -> dispersion             -0.043092217009 Eh    ::
         :: -> Gsolv                  -0.028575742175 Eh    ::
         ::    -> Gelec               -0.030441326700 Eh    ::
         ::    -> Gsasa                0.004291299791 Eh    ::
         ::    -> Ghb                 -0.005320264426 Eh    ::
         ::    -> Gshift               0.002894549160 Eh    ::
         :: repulsion energy           0.571679711660 Eh    ::
         :: add. restraining           0.000000000000 Eh    ::
         :: total charge              -0.000000000000 e     ::
         :::::::::::::::::::::::::::::::::::::::::::::::::::::

           -------------------------------------------------
          |                Property Printout                |
           -------------------------------------------------

    * Orbital Energies and Occupations

         #    Occupation            Energy/Eh            Energy/eV
      -------------------------------------------------------------
         1        2.0000           -0.7767426             -21.1362
       ...           ...                  ...                  ...
        44        2.0000           -0.4757608             -12.9461
        45        2.0000           -0.4690114             -12.7624
        46        2.0000           -0.4670641             -12.7095
        47        2.0000           -0.4629803             -12.5983
        48        2.0000           -0.4569849             -12.4352
        49        2.0000           -0.4540839             -12.3563
        50        2.0000           -0.4528948             -12.3239
        51        2.0000           -0.4479572             -12.1895
        52        2.0000           -0.4432492             -12.0614
        53        2.0000           -0.4348899             -11.8340
        54        2.0000           -0.4124463             -11.2232
        55        2.0000           -0.3938637             -10.7176
        56        2.0000           -0.3913321             -10.6487 (HOMO)
        57                         -0.2707493              -7.3675 (LUMO)
        58                         -0.2582592              -7.0276
        59                         -0.2417690              -6.5789
        60                         -0.1999279              -5.4403
        61                         -0.1763343              -4.7983
        62                         -0.1597396              -4.3467
        63                         -0.1188278              -3.2335
        64                         -0.0501603              -1.3649
        65                         -0.0474874              -1.2922
        66                         -0.0374509              -1.0191
        67                         -0.0232247              -0.6320
       ...                                ...                  ...
       110                          1.2792252              34.8095
      -------------------------------------------------------------
                  HL-Gap            0.1205827 Eh            3.2812 eV
             Fermi-level           -0.3310407 Eh           -9.0081 eV

     #   Z          covCN         q      C6AA      α(0)
     1   6 C        3.751    -0.130    23.054     6.848
     2   6 C        3.696     0.068    19.609     6.335
     3   8 O        1.703    -0.257    18.261     5.770
     4   6 C        2.718     0.375    20.642     7.437
     5   8 O        0.856    -0.481    23.360     6.480
     6   6 C        3.830    -0.094    22.266     6.714
     7   6 C        3.858     0.009    20.394     6.423
     8   1 H        0.924     0.116     1.648     2.008
     9   6 C        2.743     0.372    20.702     7.450
    10   8 O        0.856    -0.459    22.891     6.415
    11   8 O        1.704    -0.256    18.237     5.766
    12   6 C        3.694     0.072    19.547     6.325
    13   6 C        3.750    -0.117    22.812     6.812
    14  16 S        1.945    -0.121   146.145    20.347
    15  15 P        3.883     0.387   144.173    21.569
    16  16 S        0.926    -0.474   160.157    21.405
    17   8 O        1.654    -0.251    18.178     5.756
    18   6 C        3.828     0.005    20.466     6.437
    19   8 O        1.656    -0.262    18.364     5.785
    20   6 C        3.828     0.010    20.385     6.424
    21   1 H        0.925     0.070     2.083     2.257
    22   1 H        0.925     0.057     2.232     2.336
    23   1 H        0.925     0.076     2.016     2.220
    24   1 H        0.924     0.061     2.192     2.315
    25   1 H        0.925     0.086     1.915     2.164
    26   1 H        0.924     0.087     1.907     2.159
    27   1 H        0.924     0.118     1.633     1.999
    28   1 H        0.924     0.066     2.128     2.281
    29   1 H        0.925     0.096     1.821     2.110
    30   1 H        0.925     0.050     2.318     2.381
    31   1 H        0.925     0.079     1.990     2.206
    32   1 H        0.925     0.061     2.188     2.313
    33   1 H        0.925     0.095     1.832     2.116
    34   1 H        0.925     0.093     1.854     2.129
    35   1 H        0.925     0.115     1.657     2.013
    36   1 H        0.925     0.090     1.877     2.142
    37   1 H        0.925     0.112     1.681     2.027
    38   1 H        0.924     0.076     2.016     2.220

 Mol. C6AA /au·bohr⁶  :      18243.025721
 Mol. C8AA /au·bohr⁸  :     514297.291543
 Mol. α(0) /au        :        207.894346


Wiberg/Mayer (AO) data.
largest (>0.10) Wiberg bond orders for each atom

 ---------------------------------------------------------------------------
     #   Z sym  total        # sym  WBO       # sym  WBO       # sym  WBO
 ---------------------------------------------------------------------------
     1   6 C    3.987 --     2 C    1.013    22 H    0.985    21 H    0.984
                            23 H    0.979
     2   6 C    3.900 --     1 C    1.013    24 H    0.971    25 H    0.968
                             3 O    0.909
     3   8 O    2.338 --     4 C    1.194     2 C    0.909     5 O    0.174
     4   6 C    3.916 --     5 O    1.687     3 O    1.194     6 C    0.958
     5   8 O    1.974 --     4 C    1.687     3 O    0.174
     6   6 C    3.985 --     7 C    0.993    26 H    0.964     4 C    0.958
                            27 H    0.943
     7   6 C    3.970 --     6 C    0.993    14 S    0.959     9 C    0.957
                             8 H    0.923
     8   1 H    0.987 --     7 C    0.923
     9   6 C    3.918 --    10 O    1.699    11 O    1.180     7 C    0.957
    10   8 O    2.015 --     9 C    1.699    11 O    0.169
    11   8 O    2.352 --     9 C    1.180    12 C    0.897    10 O    0.169
    12   6 C    3.892 --    13 C    1.016    28 H    0.970    29 H    0.966
                            11 O    0.897
    13   6 C    3.988 --    12 C    1.016    30 H    0.985    32 H    0.982
                            31 H    0.977
    14  16 S    2.264 --    15 P    0.968     7 C    0.959    16 S    0.133
    15  15 P    5.273 --    16 S    1.520    17 O    1.331    19 O    1.295
                            14 S    0.968
    16  16 S    1.842 --    15 P    1.520    14 S    0.133
    17   8 O    2.398 --    15 P    1.331    18 C    0.888
    18   6 C    3.871 --    33 H    0.977    34 H    0.972    35 H    0.971
                            17 O    0.888
    19   8 O    2.387 --    15 P    1.295    20 C    0.912
    20   6 C    3.883 --    38 H    0.976    36 H    0.976    37 H    0.972
                            19 O    0.912
    21   1 H    0.995 --     1 C    0.984
    22   1 H    0.997 --     1 C    0.985
    23   1 H    0.994 --     1 C    0.979
    24   1 H    0.996 --     2 C    0.971
    25   1 H    0.992 --     2 C    0.968
    26   1 H    0.992 --     6 C    0.964
    27   1 H    0.986 --     6 C    0.943
    28   1 H    0.996 --    12 C    0.970
    29   1 H    0.991 --    12 C    0.966
    30   1 H    0.997 --    13 C    0.985
    31   1 H    0.993 --    13 C    0.977
    32   1 H    0.996 --    13 C    0.982
    33   1 H    0.991 --    18 C    0.977
    34   1 H    0.991 --    18 C    0.972
    35   1 H    0.987 --    18 C    0.971
    36   1 H    0.992 --    20 C    0.976
    37   1 H    0.987 --    20 C    0.972
    38   1 H    0.994 --    20 C    0.976
 ---------------------------------------------------------------------------

Topologies differ in total number of bonds
Writing topology from bond orders to xtbtopo.mol

molecular dipole:
                 x           y           z       tot (Debye)
 q only:       -2.101       0.074      -1.060
   full:       -2.014       0.343      -0.883       5.658
molecular quadrupole (traceless):
                xx          xy          yy          xz          yz          zz
 q only:       11.925     -11.602      17.832      11.303       4.338     -29.757
  q+dip:       10.215      -8.973      18.015       7.422       3.881     -28.231
   full:       10.370      -9.362      18.237       7.468       4.243     -28.608


           -------------------------------------------------
          | TOTAL ENERGY              -64.672477554330 Eh   |
          | GRADIENT NORM               0.000081166025 Eh/α |
          | HOMO-LUMO GAP               3.281223391011 eV   |
           -------------------------------------------------

------------------------------------------------------------------------
 * finished run on 2025/04/09 at 07:31:35.020     
------------------------------------------------------------------------
 total:
 * wall-time:     0 d,  0 h,  0 min,  0.136 sec
 *  cpu-time:     0 d,  0 h,  0 min,  0.094 sec
 * ratio c/w:     0.688 speedup
 SCF:
 * wall-time:     0 d,  0 h,  0 min,  0.100 sec
 *  cpu-time:     0 d,  0 h,  0 min,  0.075 sec
 * ratio c/w:     0.751 speedup

