 Entering Gaussian System
 *********************************************
 Gaussian 98:
 frequency output generated by the xtb code
 *********************************************
                         Standard orientation:
 --------------------------------------------------------------------
  Center     Atomic     Atomic              Coordinates (Angstroms)
  Number     Number      Type              X           Y           Z
 --------------------------------------------------------------------
    1          6             0        2.076534   -2.398308    2.561175
    2          6             0        1.209378   -1.551503    1.651360
    3          8             0        2.013728   -0.564237    0.983620
    4         15             0        2.376159   -0.691778   -0.563474
    5         16             0        2.869379   -2.481387   -1.183107
    6          8             0        3.460025    0.450725   -0.727379
    7          6             0        4.871227    0.170623   -0.570455
    8          6             0        5.235718   -0.101358    0.873904
    9         16             0        0.731137    0.142558   -1.598138
   10          6             0        0.505469    1.715539   -0.705378
   11         16             0       -0.348440    1.559782    0.886882
   12         15             0       -2.172828    0.753145    0.181012
   13         16             0       -2.800105    1.411249   -1.559374
   14          8             0       -3.141790    0.962812    1.422468
   15          6             0       -3.667699    2.256268    1.792242
   16          6             0       -5.080165    2.435365    1.269106
   17          8             0       -1.890043   -0.801756    0.287583
   18          6             0       -2.505687   -1.773483   -0.579847
   19          6             0       -3.934768   -2.060259   -0.169223
   20          1             0        1.445854   -3.084351    3.117095
   21          1             0        2.788443   -2.970818    1.970034
   22          1             0        2.617524   -1.762130    3.255774
   23          1             0        0.461533   -0.989209    2.215012
   24          1             0        0.706377   -2.174711    0.904834
   25          1             0        5.126061   -0.687189   -1.201000
   26          1             0        5.360409    1.068396   -0.950384
   27          1             0        4.767035   -1.025562    1.207400
   28          1             0        6.313513   -0.203281    0.958065
   29          1             0        4.898877    0.713830    1.508720
   30          1             0       -0.092587    2.334876   -1.373228
   31          1             0        1.473472    2.165078   -0.503131
   32          1             0       -3.646343    2.263155    2.883647
   33          1             0       -3.007327    3.040303    1.411095
   34          1             0       -5.714507    1.626152    1.619930
   35          1             0       -5.475752    3.380396    1.628076
   36          1             0       -5.083337    2.440117    0.181311
   37          1             0       -2.461255   -1.402354   -1.609288
   38          1             0       -1.872513   -2.657343   -0.484302
   39          1             0       -4.543013   -1.166018   -0.296727
   40          1             0       -4.333493   -2.852505   -0.795688
   41          1             0       -3.973463   -2.368345    0.872034
 --------------------------------------------------------------------
     1 basis functions        1 primitive gaussians
     1 alpha electrons        1 beta electrons
 
 Harmonic frequencies (cm**-1), IR intensities (km*mol⁻¹),
 Raman scattering activities (A**4/amu), Raman depolarization ratios,
 reduced masses (AMU), force constants (mDyne/A) and normal coordinates:
                      1                      2                      3
                        a                      a                      a 
 Frequencies --    46.8819                52.5712                53.4882
 Red. masses --    25.9493                21.1926                19.6267
 Frc consts  --     0.0000                 0.0000                 0.0000
 IR Inten    --     2.7325                 3.0871                 0.5910
 Raman Activ --     0.0000                 0.0000                 0.0000
 Depolar     --     0.0000                 0.0000                 0.0000
 Atom AN      X      Y      Z        X      Y      Z        X      Y      Z
   1   6    -0.02  -0.09  -0.05     0.00   0.06  -0.01    -0.20  -0.13  -0.07
   2   6     0.03  -0.02  -0.03    -0.06   0.07   0.06    -0.17  -0.16  -0.12
   3   8     0.09  -0.03   0.02    -0.13   0.11   0.03    -0.19  -0.12  -0.04
   4  15     0.18  -0.07   0.04    -0.09  -0.03   0.08    -0.04   0.03  -0.01
   5  16     0.57   0.00   0.13    -0.16  -0.15   0.37     0.20   0.16  -0.19
   6   8     0.01   0.06   0.01    -0.03  -0.06  -0.00    -0.05   0.08   0.22
   7   6     0.03   0.12  -0.03    -0.03  -0.04   0.02    -0.05   0.04   0.21
   8   6     0.06   0.07  -0.05    -0.04  -0.01   0.02    -0.10  -0.05   0.21
   9  16     0.02  -0.39   0.04     0.04  -0.03  -0.15     0.05   0.02  -0.19
  10   6    -0.04  -0.17  -0.09     0.01   0.02  -0.17    -0.00   0.05  -0.19
  11  16    -0.03  -0.11  -0.11     0.08   0.16  -0.24     0.09   0.19  -0.25
  12  15    -0.16   0.08  -0.01     0.07   0.05  -0.08     0.05  -0.01   0.03
  13  16    -0.24   0.24   0.08    -0.27   0.24   0.11    -0.20  -0.32   0.01
  14   8    -0.04   0.07   0.05     0.17  -0.14   0.07     0.15   0.07   0.10
  15   6    -0.01   0.06   0.07     0.06  -0.18   0.16     0.12   0.06   0.06
  16   6    -0.02   0.08   0.10     0.04  -0.23   0.20     0.12   0.06   0.05
  17   8    -0.18   0.05  -0.07     0.18   0.05  -0.22     0.07   0.01   0.13
  18   6    -0.17   0.07  -0.08     0.12   0.05  -0.18     0.06  -0.02   0.15
  19   6    -0.16   0.06  -0.06     0.16   0.00  -0.10     0.04   0.03   0.12
  20   1    -0.02  -0.02  -0.03     0.01   0.01   0.00    -0.06  -0.04  -0.03
  21   1    -0.01  -0.03  -0.02    -0.01   0.02  -0.02    -0.04  -0.03  -0.01
  22   1    -0.00  -0.04  -0.01     0.01   0.01  -0.01    -0.08  -0.03  -0.01
  23   1     0.01  -0.00  -0.01    -0.01   0.02   0.03    -0.07  -0.06  -0.05
  24   1     0.00   0.01  -0.02    -0.03   0.02   0.02    -0.02  -0.05  -0.05
  25   1     0.02   0.05  -0.02    -0.00  -0.01   0.01    -0.01   0.02   0.05
  26   1    -0.01   0.05   0.00    -0.01  -0.01   0.00    -0.01   0.02   0.08
  27   1     0.02   0.01  -0.03    -0.01  -0.00   0.01    -0.04  -0.02   0.04
  28   1     0.02   0.02  -0.02    -0.01  -0.00   0.01    -0.03  -0.02   0.06
  29   1     0.01   0.01  -0.00    -0.01  -0.00   0.00    -0.03  -0.02   0.07
  30   1    -0.02  -0.07  -0.04    -0.00  -0.01  -0.05    -0.01  -0.00  -0.06
  31   1    -0.02  -0.04  -0.04     0.00   0.01  -0.06    -0.00   0.02  -0.07
  32   1     0.00   0.02   0.02     0.02  -0.07   0.05     0.03   0.02   0.02
  33   1    -0.00   0.02   0.02     0.00  -0.03   0.06     0.04   0.02   0.02
  34   1    -0.01   0.02   0.03     0.02  -0.08   0.05     0.03   0.02   0.01
  35   1    -0.00   0.02   0.04     0.00  -0.08   0.07     0.04   0.02   0.01
  36   1    -0.01   0.03   0.03     0.00  -0.05   0.06     0.04   0.02   0.01
  37   1    -0.05   0.03  -0.02     0.01   0.02  -0.05     0.03  -0.02   0.04
  38   1    -0.05   0.02  -0.03     0.04   0.02  -0.07     0.01  -0.01   0.06
  39   1    -0.05   0.02  -0.01     0.03  -0.00  -0.01     0.02   0.01   0.02
  40   1    -0.05   0.02  -0.02     0.04   0.00  -0.03     0.01   0.01   0.04
  41   1    -0.04   0.01  -0.02     0.06  -0.01  -0.03     0.00   0.02   0.04
                      4                      5                      6
                        a                      a                      a 
 Frequencies --    61.7665                66.5933                69.4334
 Red. masses --    20.5729                21.1882                18.8419
 Frc consts  --     0.0000                 0.0000                 0.0000
 IR Inten    --     1.4738                 4.1157                 1.8563
 Raman Activ --     0.0000                 0.0000                 0.0000
 Depolar     --     0.0000                 0.0000                 0.0000
 Atom AN      X      Y      Z        X      Y      Z        X      Y      Z
   1   6    -0.01  -0.05   0.06     0.03  -0.21  -0.09     0.05   0.07   0.17
   2   6    -0.03  -0.14  -0.01     0.06  -0.04   0.04     0.11  -0.07  -0.01
   3   8    -0.08  -0.15  -0.02     0.15  -0.06   0.11     0.17  -0.14  -0.05
   4  15    -0.16  -0.14  -0.05     0.05  -0.03   0.11     0.15  -0.11  -0.10
   5  16     0.08  -0.05  -0.10    -0.02   0.00  -0.04    -0.05  -0.09  -0.33
   6   8    -0.23   0.02  -0.04     0.02  -0.02   0.02     0.17  -0.13  -0.02
   7   6    -0.18   0.16  -0.01     0.03  -0.04  -0.11     0.13  -0.13   0.13
   8   6    -0.16   0.26   0.01     0.13  -0.16  -0.16     0.01  -0.01   0.18
   9  16    -0.30  -0.27   0.08    -0.14  -0.11   0.33     0.18   0.04  -0.01
  10   6     0.02  -0.09  -0.03    -0.01   0.04   0.03     0.02   0.03  -0.02
  11  16     0.20   0.08   0.07    -0.23   0.45  -0.02    -0.05   0.12  -0.06
  12  15     0.17   0.11   0.10    -0.08   0.10  -0.02    -0.10   0.15   0.00
  13  16     0.28   0.20   0.10    -0.17  -0.19  -0.10    -0.29   0.21   0.10
  14   8     0.08   0.08   0.04    -0.08   0.04  -0.03    -0.03   0.06   0.04
  15   6    -0.09   0.04  -0.08    -0.05   0.03   0.03    -0.22   0.01  -0.07
  16   6    -0.09  -0.15  -0.15    -0.03   0.08   0.01    -0.24  -0.22  -0.09
  17   8     0.09   0.08   0.08     0.06   0.10   0.07     0.02   0.12  -0.02
  18   6     0.16   0.07   0.00     0.25   0.04  -0.03     0.00   0.04   0.07
  19   6     0.16  -0.01  -0.08     0.23  -0.08  -0.20     0.06  -0.06   0.20
  20   1     0.01  -0.02   0.02    -0.00  -0.06  -0.04     0.01   0.03   0.06
  21   1     0.01  -0.01   0.03    -0.01  -0.06  -0.05     0.04   0.01   0.09
  22   1    -0.02   0.01   0.01     0.03  -0.10  -0.01    -0.01   0.05   0.04
  23   1    -0.03  -0.05  -0.02     0.04  -0.01   0.04     0.01  -0.01  -0.04
  24   1     0.01  -0.06   0.00    -0.01   0.02  -0.00     0.06  -0.05   0.00
  25   1    -0.02   0.05   0.01    -0.01  -0.00  -0.06     0.05  -0.05   0.06
  26   1    -0.07   0.05  -0.01     0.00  -0.01  -0.02     0.05  -0.05   0.03
  27   1    -0.03   0.07   0.01     0.04  -0.05  -0.06    -0.00   0.00   0.06
  28   1    -0.05   0.10   0.00     0.04  -0.05  -0.07     0.00   0.00   0.08
  29   1    -0.07   0.07  -0.01     0.05  -0.06  -0.02    -0.01   0.01   0.03
  30   1     0.00  -0.02  -0.00     0.02   0.01  -0.02     0.01  -0.00  -0.02
  31   1     0.02  -0.05  -0.04     0.00  -0.01   0.01     0.00   0.02   0.00
  32   1    -0.04   0.03  -0.02    -0.02  -0.01   0.01    -0.06   0.03  -0.02
  33   1    -0.05   0.02  -0.03    -0.01   0.01   0.02    -0.09   0.02  -0.04
  34   1    -0.00  -0.06  -0.04    -0.01   0.02  -0.01    -0.04  -0.08  -0.01
  35   1    -0.06  -0.05  -0.06    -0.01   0.02   0.01    -0.10  -0.07  -0.05
  36   1    -0.01  -0.06  -0.04    -0.00   0.03   0.00    -0.07  -0.08  -0.03
  37   1     0.06   0.03   0.00     0.10   0.02  -0.00    -0.03  -0.00   0.02
  38   1     0.06   0.03   0.00     0.09   0.03   0.01     0.02   0.02   0.02
  39   1     0.03  -0.01  -0.03     0.05  -0.03  -0.07    -0.01  -0.03   0.06
  40   1     0.07  -0.01  -0.03     0.10  -0.02  -0.08     0.02  -0.03   0.08
  41   1     0.03  -0.01  -0.03     0.04  -0.03  -0.06     0.05  -0.01   0.06
                      7                      8                      9
                        a                      a                      a 
 Frequencies --    69.9083                69.0229                73.9437
 Red. masses --    15.6157                13.3244                12.7707
 Frc consts  --     0.0000                 0.0000                 0.0000
 IR Inten    --     4.8565                 6.2990                 0.6889
 Raman Activ --     0.0000                 0.0000                 0.0000
 Depolar     --     0.0000                 0.0000                 0.0000
 Atom AN      X      Y      Z        X      Y      Z        X      Y      Z
   1   6    -0.02  -0.15  -0.05     0.30   0.06   0.21    -0.28   0.31   0.44
   2   6    -0.05  -0.10   0.02     0.17  -0.16   0.12    -0.10   0.07   0.04
   3   8    -0.07  -0.07   0.07     0.02  -0.13   0.03     0.05  -0.07   0.03
   4  15    -0.05   0.01   0.11    -0.06  -0.08   0.01    -0.00   0.01   0.01
   5  16     0.11   0.09   0.01    -0.10  -0.02  -0.20     0.13   0.13  -0.25
   6   8    -0.08   0.05   0.14    -0.08  -0.02   0.04    -0.04   0.04   0.06
   7   6    -0.05   0.03  -0.07    -0.06   0.07   0.13    -0.02  -0.02  -0.10
   8   6     0.09  -0.09  -0.13    -0.10   0.22   0.17     0.08  -0.19  -0.16
   9  16    -0.04  -0.00   0.09    -0.07  -0.05   0.06    -0.11  -0.08   0.11
  10   6     0.03   0.02   0.02    -0.00  -0.02   0.01    -0.01  -0.01   0.02
  11  16    -0.05   0.11  -0.02    -0.12  -0.02  -0.04    -0.03   0.05   0.03
  12  15     0.08   0.06  -0.21    -0.06   0.00  -0.18     0.05  -0.09  -0.01
  13  16     0.23   0.13  -0.25    -0.05   0.03  -0.18    -0.05   0.03   0.07
  14   8    -0.05  -0.07  -0.21    -0.05  -0.04  -0.12     0.04  -0.17   0.02
  15   6    -0.05  -0.12  -0.02     0.19  -0.00   0.12     0.07  -0.14   0.05
  16   6    -0.12  -0.15   0.17     0.18   0.29   0.25     0.13  -0.01  -0.08
  17   8     0.16   0.06  -0.19    -0.02   0.01  -0.15     0.12  -0.05  -0.12
  18   6    -0.13  -0.01   0.10    -0.01  -0.02  -0.10     0.01  -0.01  -0.07
  19   6    -0.03   0.07   0.48     0.04  -0.10  -0.00    -0.02   0.15  -0.07
  20   1    -0.00  -0.05  -0.02     0.12   0.01   0.08    -0.11   0.12   0.13
  21   1    -0.01  -0.04  -0.03     0.11   0.03   0.08    -0.04   0.06   0.21
  22   1     0.00  -0.05  -0.01     0.06   0.06   0.04    -0.13   0.14   0.12
  23   1    -0.01  -0.04   0.02     0.02  -0.06   0.02    -0.07   0.04  -0.07
  24   1    -0.02  -0.01  -0.00     0.08  -0.09   0.05     0.03  -0.03   0.01
  25   1    -0.04   0.02  -0.05     0.00   0.01   0.06    -0.03   0.01  -0.06
  26   1    -0.03   0.02  -0.02    -0.03   0.02   0.02    -0.01   0.00  -0.01
  27   1     0.03  -0.03  -0.04    -0.01   0.06   0.07     0.02  -0.06  -0.07
  28   1     0.03  -0.03  -0.07    -0.03   0.08   0.06     0.02  -0.07  -0.07
  29   1     0.05  -0.04  -0.01    -0.05   0.07   0.03     0.05  -0.07  -0.02
  30   1     0.02   0.01  -0.00     0.01   0.00  -0.00     0.00  -0.00   0.00
  31   1     0.01  -0.01   0.01     0.00  -0.02   0.01    -0.00  -0.01   0.00
  32   1     0.03  -0.05  -0.01     0.08  -0.04   0.03    -0.01  -0.06   0.01
  33   1    -0.04  -0.02  -0.01     0.08  -0.01   0.05     0.04  -0.04   0.05
  34   1    -0.01  -0.05   0.07     0.02   0.10   0.06     0.01   0.01  -0.05
  35   1    -0.03  -0.05   0.07     0.10   0.09   0.11     0.05   0.00  -0.02
  36   1    -0.07  -0.03   0.05     0.03   0.11   0.07     0.07   0.01  -0.02
  37   1    -0.11  -0.03   0.01    -0.03  -0.00  -0.03     0.01  -0.01  -0.02
  38   1    -0.04  -0.01   0.01     0.01   0.00  -0.04    -0.02  -0.02  -0.01
  39   1    -0.01   0.02   0.15    -0.00  -0.04   0.01     0.02   0.06  -0.03
  40   1    -0.06   0.01   0.19     0.01  -0.03   0.01    -0.03   0.05  -0.01
  41   1     0.06   0.05   0.15     0.04  -0.03  -0.00    -0.02   0.06  -0.02
                     10                     11                     12
                        a                      a                      a 
 Frequencies --    79.6366                74.2763                76.9687
 Red. masses --    14.0500                11.0430                12.0362
 Frc consts  --     0.0000                 0.0000                 0.0000
 IR Inten    --     4.6392                 0.8096                 1.6928
 Raman Activ --     0.0000                 0.0000                 0.0000
 Depolar     --     0.0000                 0.0000                 0.0000
 Atom AN      X      Y      Z        X      Y      Z        X      Y      Z
   1   6     0.17   0.03   0.06     0.44  -0.07  -0.01     0.17   0.19   0.14
   2   6     0.00  -0.16   0.03     0.20  -0.17   0.13     0.06  -0.03   0.03
   3   8    -0.22  -0.02   0.03    -0.05  -0.03   0.07    -0.08   0.03  -0.04
   4  15    -0.11   0.07   0.08    -0.07   0.03   0.09    -0.03   0.03  -0.04
   5  16     0.07   0.12   0.08    -0.05   0.07   0.01     0.11   0.05   0.01
   6   8    -0.08   0.07   0.21    -0.07   0.05   0.11    -0.02   0.03   0.03
   7   6    -0.06  -0.03  -0.07    -0.05   0.02   0.01    -0.03  -0.04   0.03
   8   6     0.13  -0.26  -0.16     0.01  -0.10  -0.03    -0.09  -0.33  -0.01
   9  16     0.03   0.09  -0.14    -0.03   0.00   0.01    -0.00  -0.00  -0.11
  10   6    -0.04   0.01  -0.02    -0.02   0.03  -0.05    -0.00  -0.01  -0.06
  11  16     0.05  -0.17   0.00     0.03   0.05  -0.06     0.06   0.00  -0.06
  12  15    -0.05   0.03   0.02     0.04  -0.04   0.02    -0.01   0.06   0.01
  13  16    -0.10   0.24   0.12    -0.16  -0.09   0.08     0.22  -0.12  -0.14
  14   8    -0.01   0.07   0.03     0.08  -0.05   0.06    -0.03   0.15  -0.03
  15   6     0.01   0.11  -0.11    -0.03  -0.05  -0.08    -0.07   0.10   0.02
  16   6     0.05   0.12  -0.21     0.04  -0.11  -0.29    -0.25  -0.17   0.39
  17   8    -0.09   0.01  -0.01     0.08  -0.03  -0.03    -0.15   0.03   0.16
  18   6     0.06  -0.05  -0.04    -0.11   0.04   0.02     0.03   0.04   0.01
  19   6     0.17  -0.41   0.09    -0.21   0.42  -0.07    -0.04   0.02  -0.24
  20   1     0.08  -0.01   0.03     0.17  -0.05   0.02     0.07   0.05   0.06
  21   1     0.07   0.03   0.02     0.12   0.01  -0.04     0.07   0.06   0.06
  22   1     0.02   0.05   0.00     0.13  -0.01  -0.02     0.02   0.10   0.02
  23   1    -0.03  -0.08   0.00     0.06  -0.08   0.07    -0.01  -0.03  -0.01
  24   1     0.04  -0.08   0.01     0.06  -0.06   0.05     0.05  -0.05   0.02
  25   1    -0.05   0.01  -0.07    -0.02   0.02  -0.02    -0.01   0.02  -0.03
  26   1    -0.02  -0.00  -0.00    -0.02   0.01   0.02     0.00   0.00   0.06
  27   1     0.03  -0.08  -0.07     0.01  -0.04  -0.02    -0.03  -0.11  -0.06
  28   1     0.04  -0.10  -0.09     0.00  -0.03  -0.02    -0.03  -0.10   0.00
  29   1     0.08  -0.09  -0.00     0.01  -0.04   0.02    -0.03  -0.13   0.04
  30   1    -0.03   0.00   0.01    -0.01   0.00  -0.02    -0.01  -0.00  -0.01
  31   1    -0.02   0.01  -0.01    -0.01   0.01  -0.02    -0.00   0.00  -0.02
  32   1    -0.02   0.05  -0.03    -0.05  -0.00  -0.02     0.07   0.06   0.00
  33   1     0.02   0.02  -0.04    -0.00  -0.01  -0.00    -0.08   0.04  -0.07
  34   1     0.00   0.05  -0.06     0.00  -0.03  -0.10    -0.01  -0.07   0.18
  35   1     0.02   0.04  -0.08    -0.01  -0.03  -0.10    -0.09  -0.06   0.12
  36   1     0.03   0.02  -0.06     0.05  -0.04  -0.08    -0.15  -0.07   0.11
  37   1    -0.03   0.02  -0.00     0.01  -0.02  -0.00     0.06   0.01   0.01
  38   1     0.08   0.02  -0.05    -0.09  -0.03   0.04     0.00   0.01   0.03
  39   1    -0.01  -0.16   0.06     0.00   0.16  -0.06    -0.01   0.01  -0.09
  40   1     0.08  -0.13   0.02    -0.10   0.13  -0.01     0.02   0.01  -0.09
  41   1     0.10  -0.14   0.02    -0.10   0.15  -0.01    -0.06  -0.00  -0.07
                     13                     14                     15
                        a                      a                      a 
 Frequencies --    85.5837               114.7517               119.4061
 Red. masses --    12.3934                20.6912                16.0401
 Frc consts  --     0.0000                 0.0000                 0.0000
 IR Inten    --     1.5748                 0.5040                 7.3309
 Raman Activ --     0.0000                 0.0000                 0.0000
 Depolar     --     0.0000                 0.0000                 0.0000
 Atom AN      X      Y      Z        X      Y      Z        X      Y      Z
   1   6    -0.10  -0.06   0.14    -0.06  -0.10  -0.02    -0.06  -0.04   0.01
   2   6    -0.08  -0.19  -0.01     0.03   0.19   0.17    -0.01   0.04   0.03
   3   8    -0.09  -0.16   0.08     0.21   0.07   0.18     0.05  -0.02   0.01
   4  15    -0.02  -0.06   0.13     0.04   0.13   0.19    -0.03  -0.04  -0.01
   5  16    -0.17  -0.05   0.00    -0.37   0.20  -0.29     0.09  -0.03   0.04
   6   8    -0.00  -0.04   0.21     0.02   0.11   0.12    -0.08   0.01  -0.10
   7   6     0.04   0.03  -0.15     0.02   0.08   0.08    -0.07   0.08  -0.02
   8   6     0.41   0.37  -0.18     0.03  -0.06   0.05    -0.15  -0.04  -0.02
   9  16     0.19   0.13  -0.06    -0.03  -0.26   0.11    -0.05   0.13   0.12
  10   6     0.04   0.05  -0.02    -0.07  -0.04  -0.18     0.17   0.02   0.21
  11  16     0.06  -0.06  -0.05     0.15  -0.08  -0.19     0.05  -0.16   0.20
  12  15    -0.00   0.01  -0.00     0.07  -0.06  -0.03     0.10  -0.03  -0.12
  13  16    -0.05  -0.10  -0.02     0.07   0.07   0.03    -0.41  -0.10   0.04
  14   8     0.05   0.09   0.02     0.15   0.06   0.04     0.12   0.09  -0.07
  15   6     0.01   0.09  -0.05     0.09   0.08  -0.10     0.19   0.20  -0.35
  16   6    -0.08  -0.09   0.12     0.02  -0.12   0.03    -0.01  -0.07   0.10
  17   8    -0.10  -0.01   0.05    -0.13  -0.08  -0.01     0.13  -0.01  -0.14
  18   6    -0.03   0.02  -0.02    -0.11  -0.03  -0.07     0.03  -0.00  -0.07
  19   6    -0.08   0.05  -0.16    -0.07  -0.15  -0.01     0.05   0.05   0.02
  20   1    -0.03  -0.03   0.03    -0.04  -0.01  -0.01    -0.03   0.00   0.00
  21   1     0.01  -0.01   0.07    -0.07  -0.05  -0.05    -0.03  -0.02  -0.00
  22   1    -0.07   0.01   0.05     0.04  -0.09   0.00    -0.00  -0.02   0.00
  23   1    -0.06  -0.07  -0.04     0.07   0.09   0.09     0.01   0.03   0.01
  24   1     0.03  -0.08  -0.02    -0.06   0.11   0.05    -0.02   0.02   0.01
  25   1    -0.03  -0.03  -0.01     0.01   0.04  -0.00     0.01   0.05  -0.02
  26   1    -0.02  -0.01  -0.14     0.00   0.03   0.05    -0.03   0.04   0.03
  27   1     0.13   0.14   0.05     0.01  -0.03  -0.01    -0.03  -0.03  -0.04
  28   1     0.12   0.10  -0.12     0.01  -0.01   0.01    -0.04   0.00   0.01
  29   1     0.17   0.16  -0.08     0.00  -0.04   0.04    -0.07  -0.03   0.01
  30   1     0.00   0.01  -0.00    -0.05  -0.05  -0.05     0.09   0.05   0.07
  31   1     0.00   0.03   0.00    -0.03   0.02  -0.09     0.06  -0.04   0.09
  32   1     0.04   0.06  -0.02     0.06   0.07  -0.03     0.17   0.18  -0.10
  33   1    -0.03   0.03  -0.07    -0.00   0.02  -0.09     0.00   0.03  -0.26
  34   1     0.01  -0.03   0.08     0.04  -0.04   0.05     0.05  -0.01   0.16
  35   1    -0.03  -0.03   0.03    -0.01  -0.03  -0.01     0.01   0.00  -0.01
  36   1    -0.06  -0.05   0.04    -0.03  -0.07   0.01    -0.11  -0.11   0.03
  37   1     0.02   0.01  -0.00    -0.05   0.02  -0.01    -0.00  -0.01  -0.02
  38   1    -0.02   0.00   0.01    -0.02  -0.00  -0.05     0.00  -0.01  -0.03
  39   1    -0.01   0.02  -0.06    -0.04  -0.05   0.02     0.02   0.02   0.01
  40   1    -0.01   0.02  -0.06    -0.01  -0.04  -0.01    -0.00   0.02   0.01
  41   1    -0.05   0.01  -0.05     0.00  -0.06  -0.01     0.03   0.02   0.01
                     16                     17                     18
                        a                      a                      a 
 Frequencies --   127.1221               133.5028               146.3129
 Red. masses --    12.9719                14.8409                17.7284
 Frc consts  --     0.0000                 0.0000                 0.0000
 IR Inten    --     7.0207                 2.5866                13.0766
 Raman Activ --     0.0000                 0.0000                 0.0000
 Depolar     --     0.0000                 0.0000                 0.0000
 Atom AN      X      Y      Z        X      Y      Z        X      Y      Z
   1   6    -0.05  -0.03   0.12    -0.08  -0.05   0.04    -0.02  -0.03   0.01
   2   6     0.06  -0.12  -0.08     0.03  -0.06  -0.06     0.08  -0.23  -0.27
   3   8     0.14  -0.11   0.02     0.11  -0.05   0.03     0.09  -0.05  -0.01
   4  15     0.07  -0.04  -0.01     0.10   0.01   0.03     0.09   0.10  -0.04
   5  16    -0.09  -0.15   0.15    -0.29  -0.10   0.05    -0.08  -0.03   0.21
   6   8    -0.06   0.05  -0.13    -0.04   0.11  -0.01     0.07   0.05  -0.11
   7   6    -0.02   0.30  -0.04     0.02   0.39   0.01     0.06   0.03   0.01
   8   6    -0.12  -0.07  -0.08    -0.02  -0.09  -0.07    -0.05  -0.02   0.03
   9  16     0.10   0.14   0.06     0.19  -0.08  -0.13    -0.07   0.03   0.12
  10   6     0.13   0.09   0.04    -0.05  -0.08  -0.04    -0.12   0.10  -0.08
  11  16     0.05   0.14  -0.03     0.07  -0.28  -0.01    -0.19   0.29  -0.11
  12  15     0.05   0.08   0.01    -0.07   0.05  -0.03     0.00  -0.21   0.01
  13  16     0.03  -0.22  -0.10    -0.08   0.08  -0.02     0.14   0.29   0.16
  14   8     0.16   0.08   0.11    -0.17  -0.01  -0.10     0.01  -0.10  -0.00
  15   6    -0.03  -0.03   0.15    -0.10  -0.02   0.03     0.17   0.04  -0.20
  16   6     0.06  -0.09  -0.11    -0.07   0.14   0.03     0.08  -0.02   0.04
  17   8    -0.20   0.01  -0.02     0.16   0.08   0.04    -0.05  -0.16   0.04
  18   6    -0.23   0.17  -0.16     0.21  -0.09   0.19    -0.04  -0.20   0.09
  19   6    -0.10  -0.16   0.06     0.12   0.15   0.01    -0.11  -0.05  -0.03
  20   1    -0.03  -0.01   0.01    -0.04  -0.01  -0.01    -0.02  -0.03  -0.04
  21   1     0.02  -0.01   0.08    -0.01  -0.02   0.04     0.07   0.02   0.07
  22   1    -0.06   0.01   0.05    -0.04  -0.01   0.03    -0.10   0.03   0.04
  23   1    -0.02  -0.04  -0.07    -0.01  -0.02  -0.04    -0.07  -0.12  -0.15
  24   1     0.07  -0.05  -0.04     0.04  -0.02  -0.03     0.13  -0.10  -0.12
  25   1     0.06   0.15  -0.08     0.08   0.20  -0.09     0.03   0.02  -0.00
  26   1    -0.05   0.15   0.08    -0.05   0.19   0.11     0.02   0.01   0.02
  27   1     0.00  -0.07  -0.12     0.04  -0.09  -0.13    -0.02  -0.01  -0.01
  28   1    -0.03   0.03   0.00    -0.00   0.03  -0.01    -0.02  -0.00   0.03
  29   1    -0.10  -0.09   0.04    -0.07  -0.12   0.06    -0.03  -0.01   0.01
  30   1     0.06   0.04   0.01    -0.04  -0.04  -0.00    -0.05  -0.00  -0.04
  31   1     0.04   0.01   0.03    -0.03   0.01  -0.02    -0.04   0.05  -0.03
  32   1    -0.07  -0.05   0.05    -0.03  -0.04   0.01     0.11   0.09  -0.06
  33   1    -0.01   0.02   0.11    -0.01  -0.00   0.04     0.04  -0.03  -0.15
  34   1     0.02  -0.05  -0.09    -0.04   0.04  -0.02     0.03   0.02   0.10
  35   1    -0.03  -0.05  -0.02    -0.00   0.04   0.04     0.05   0.02  -0.02
  36   1     0.08   0.01  -0.03    -0.02   0.08   0.01    -0.04  -0.07   0.01
  37   1    -0.15   0.13  -0.02     0.12  -0.10   0.03     0.03  -0.09   0.01
  38   1    -0.03   0.06  -0.16     0.04  -0.03   0.15    -0.03  -0.07   0.08
  39   1    -0.08  -0.06   0.12     0.07   0.06  -0.08    -0.01  -0.01  -0.05
  40   1    -0.03  -0.02  -0.02     0.04   0.02   0.03    -0.03  -0.03   0.00
  41   1     0.05  -0.12  -0.00    -0.03   0.11   0.02    -0.07   0.01  -0.00
                     19                     20                     21
                        a                      a                      a 
 Frequencies --   158.0318               169.2946               177.5260
 Red. masses --    17.6776                15.5344                13.5831
 Frc consts  --     0.0000                 0.0000                 0.0000
 IR Inten    --     9.6317                 0.9965                27.3986
 Raman Activ --     0.0000                 0.0000                 0.0000
 Depolar     --     0.0000                 0.0000                 0.0000
 Atom AN      X      Y      Z        X      Y      Z        X      Y      Z
   1   6     0.02   0.12  -0.08     0.05   0.07  -0.04     0.08   0.22  -0.18
   2   6     0.02  -0.14  -0.32    -0.07   0.08   0.08    -0.13   0.09  -0.08
   3   8    -0.06   0.12  -0.05    -0.13  -0.01  -0.09    -0.28   0.14  -0.16
   4  15     0.09   0.21  -0.03     0.04  -0.16  -0.05     0.06  -0.09  -0.08
   5  16    -0.23   0.10   0.11     0.00  -0.18  -0.10    -0.11  -0.13  -0.12
   6   8     0.15   0.09   0.05     0.00  -0.06   0.11     0.04  -0.02   0.19
   7   6     0.11  -0.09   0.07     0.05   0.19   0.06     0.09   0.20   0.11
   8   6     0.11  -0.01   0.08     0.12  -0.02   0.01     0.21  -0.02   0.04
   9  16    -0.21  -0.29   0.12     0.12  -0.03  -0.12    -0.08  -0.16   0.11
  10   6    -0.09  -0.13   0.00    -0.14  -0.04  -0.06     0.28  -0.12   0.18
  11  16     0.11  -0.16   0.14    -0.14   0.21   0.03    -0.12   0.12   0.04
  12  15     0.05   0.09   0.03    -0.02  -0.13   0.22    -0.00   0.00  -0.10
  13  16    -0.07  -0.21  -0.05     0.16  -0.10   0.21    -0.05   0.10  -0.05
  14   8    -0.02   0.04  -0.01    -0.22  -0.13   0.01     0.13   0.03   0.03
  15   6    -0.03   0.03  -0.01     0.01   0.04  -0.19     0.06  -0.02   0.04
  16   6    -0.04   0.02   0.02    -0.07   0.12   0.04     0.08  -0.10  -0.03
  17   8     0.11   0.07  -0.11     0.15  -0.08  -0.04    -0.12  -0.01   0.05
  18   6    -0.01   0.19  -0.15    -0.05   0.19  -0.21    -0.03  -0.13   0.12
  19   6     0.09   0.08   0.08     0.06   0.07   0.06    -0.09  -0.06  -0.03
  20   1     0.02  -0.01  -0.07     0.03   0.04   0.03     0.07   0.04  -0.02
  21   1     0.10   0.09   0.03    -0.03   0.00  -0.05     0.02   0.08  -0.08
  22   1    -0.10   0.09   0.01     0.06   0.02  -0.05     0.03   0.09  -0.08
  23   1    -0.10  -0.12  -0.16     0.02   0.05   0.06    -0.03   0.02  -0.00
  24   1     0.13  -0.08  -0.14    -0.07   0.03   0.06    -0.04   0.01  -0.01
  25   1     0.00  -0.05   0.04     0.06   0.11  -0.03     0.07   0.11  -0.02
  26   1     0.06  -0.05  -0.00    -0.04   0.11   0.07    -0.02   0.11   0.08
  27   1    -0.00   0.02   0.05     0.08  -0.05  -0.05     0.10  -0.04  -0.03
  28   1     0.03  -0.04   0.02     0.04   0.04  -0.01     0.07   0.03  -0.01
  29   1     0.07   0.02   0.01    -0.00  -0.06   0.05     0.04  -0.05   0.06
  30   1    -0.05  -0.05   0.01    -0.07  -0.04  -0.03     0.18   0.04   0.04
  31   1    -0.02  -0.03  -0.03    -0.06   0.03  -0.03     0.11  -0.13   0.12
  32   1    -0.00   0.01  -0.00     0.06   0.09  -0.06     0.00  -0.01   0.01
  33   1    -0.01   0.01  -0.01     0.01  -0.03  -0.14     0.01   0.01   0.02
  34   1    -0.01   0.00   0.01    -0.04   0.09   0.10     0.04  -0.05  -0.03
  35   1    -0.01   0.01   0.01     0.04   0.08  -0.03    -0.01  -0.04  -0.01
  36   1    -0.02   0.00   0.00    -0.08  -0.04   0.01     0.04  -0.02  -0.01
  37   1    -0.06   0.11  -0.03    -0.09   0.15  -0.03     0.03  -0.08   0.02
  38   1     0.01   0.06  -0.12    -0.00   0.05  -0.19    -0.02  -0.03   0.09
  39   1     0.01   0.03   0.10     0.01   0.04   0.15    -0.02  -0.03  -0.07
  40   1    -0.01   0.05   0.01    -0.04   0.09  -0.03     0.00  -0.05   0.01
  41   1     0.09  -0.02   0.01     0.10  -0.08  -0.01    -0.07   0.03   0.00
                     22                     23                     24
                        a                      a                      a 
 Frequencies --   223.2437               234.5495               241.5908
 Red. masses --    16.1688                20.4772                16.1192
 Frc consts  --     0.0000                 0.0000                 0.0000
 IR Inten    --    19.1584                10.3289                10.3875
 Raman Activ --     0.0000                 0.0000                 0.0000
 Depolar     --     0.0000                 0.0000                 0.0000
 Atom AN      X      Y      Z        X      Y      Z        X      Y      Z
   1   6     0.01   0.01  -0.00     0.00  -0.00  -0.01    -0.04  -0.10   0.09
   2   6    -0.00  -0.03  -0.03    -0.04  -0.05  -0.02     0.14   0.03   0.02
   3   8    -0.05   0.09   0.07    -0.12   0.12   0.11     0.29  -0.16  -0.09
   4  15     0.02   0.05   0.12     0.04   0.02   0.21    -0.05   0.14  -0.26
   5  16    -0.07   0.11  -0.06    -0.07   0.12  -0.12    -0.07  -0.01   0.19
   6   8    -0.04   0.06  -0.06    -0.04   0.03  -0.13    -0.05   0.20   0.18
   7   6    -0.06  -0.06  -0.08    -0.07  -0.05  -0.13    -0.06   0.01   0.10
   8   6    -0.14   0.02  -0.05    -0.22   0.03  -0.08     0.12  -0.03   0.06
   9  16     0.17  -0.12  -0.01     0.38  -0.15  -0.08    -0.22  -0.01  -0.27
  10   6     0.41  -0.07   0.02     0.11  -0.19   0.11     0.25  -0.10   0.06
  11  16     0.23   0.18  -0.12    -0.35  -0.04  -0.05    -0.14  -0.03  -0.14
  12  15     0.16  -0.13   0.04    -0.26   0.02   0.07    -0.15  -0.05   0.04
  13  16    -0.11   0.02   0.23     0.17   0.01  -0.09     0.07   0.03  -0.00
  14   8    -0.23  -0.10  -0.24     0.09   0.01   0.27    -0.02  -0.03   0.10
  15   6    -0.15  -0.09  -0.06     0.08   0.07   0.03    -0.01   0.01   0.01
  16   6    -0.16   0.19   0.04     0.09  -0.10  -0.03    -0.00  -0.01  -0.01
  17   8    -0.01  -0.13   0.12     0.05   0.06  -0.04     0.03  -0.01   0.04
  18   6    -0.07  -0.01   0.00     0.07   0.05  -0.03     0.04   0.03  -0.01
  19   6    -0.07  -0.06  -0.02     0.09   0.08   0.04     0.05   0.05   0.03
  20   1     0.01  -0.04  -0.04     0.02  -0.06  -0.06    -0.07   0.08   0.09
  21   1     0.05   0.05   0.01     0.06   0.07   0.00    -0.09  -0.14   0.04
  22   1    -0.05   0.01   0.04    -0.07   0.00   0.05     0.08  -0.04  -0.03
  23   1    -0.03  -0.04  -0.02    -0.04  -0.05  -0.01     0.07   0.05   0.00
  24   1     0.03  -0.01  -0.03     0.03  -0.02  -0.03     0.00   0.02   0.02
  25   1    -0.04  -0.04  -0.00    -0.04  -0.04  -0.02    -0.06  -0.01   0.03
  26   1     0.01  -0.04  -0.04     0.01  -0.04  -0.05     0.01  -0.02   0.01
  27   1    -0.09   0.04   0.01    -0.12   0.04  -0.01    -0.06   0.06   0.07
  28   1    -0.05  -0.05  -0.00    -0.07  -0.04   0.01     0.03  -0.15  -0.06
  29   1    -0.00   0.04  -0.04    -0.04   0.04  -0.06     0.19   0.05   0.02
  30   1     0.21   0.05  -0.00     0.09  -0.02   0.01     0.19   0.09   0.03
  31   1     0.15  -0.11   0.07     0.03  -0.08   0.10     0.11  -0.15   0.11
  32   1    -0.03  -0.06  -0.02     0.03   0.08   0.01    -0.00   0.02   0.00
  33   1    -0.03  -0.03   0.01     0.02   0.00  -0.03     0.00  -0.01  -0.01
  34   1    -0.07   0.06  -0.03     0.02   0.02   0.09    -0.02   0.04   0.06
  35   1     0.00   0.05   0.09     0.03   0.02  -0.13     0.03   0.03  -0.07
  36   1    -0.07   0.13   0.01     0.03  -0.16  -0.01    -0.00  -0.09  -0.00
  37   1    -0.03   0.04   0.01     0.01   0.02  -0.01     0.01   0.03   0.00
  38   1    -0.02  -0.01  -0.04     0.02   0.02  -0.01     0.01   0.01  -0.02
  39   1    -0.01   0.00   0.07     0.04   0.03   0.03     0.05   0.05   0.10
  40   1    -0.03   0.04  -0.07     0.00   0.03   0.02    -0.03   0.09  -0.05
  41   1    -0.02  -0.10  -0.03     0.04   0.02   0.01     0.03  -0.08  -0.02
                     25                     26                     27
                        a                      a                      a 
 Frequencies --   216.0262               226.5064               234.7071
 Red. masses --     5.1893                 5.5487                 6.2893
 Frc consts  --     0.0000                 0.0000                 0.0000
 IR Inten    --     1.5881                 4.6386                 5.8112
 Raman Activ --     0.0000                 0.0000                 0.0000
 Depolar     --     0.0000                 0.0000                 0.0000
 Atom AN      X      Y      Z        X      Y      Z        X      Y      Z
   1   6     0.00  -0.02  -0.00     0.02   0.04  -0.02    -0.02  -0.04   0.04
   2   6     0.01  -0.01  -0.01    -0.04  -0.02  -0.02     0.05   0.02   0.02
   3   8     0.02  -0.03  -0.02    -0.07  -0.04  -0.06     0.08   0.00   0.02
   4  15     0.03   0.02  -0.03     0.14  -0.04  -0.02    -0.07   0.04  -0.02
   5  16    -0.03  -0.01   0.02    -0.05  -0.11  -0.02     0.00   0.05   0.03
   6   8    -0.02   0.07   0.04    -0.04   0.13   0.03    -0.00  -0.02   0.02
   7   6    -0.03   0.02   0.00    -0.05   0.10  -0.02    -0.00  -0.05   0.02
   8   6    -0.02  -0.01  -0.00    -0.12  -0.01  -0.03     0.06  -0.00   0.01
   9  16     0.04  -0.04  -0.05     0.18  -0.04   0.08    -0.05  -0.02  -0.16
  10   6     0.06  -0.03  -0.00    -0.15  -0.02   0.01     0.06  -0.08   0.03
  11  16     0.12   0.13   0.05    -0.07   0.05   0.12    -0.18   0.02  -0.05
  12  15     0.02   0.07   0.13     0.07  -0.02  -0.03    -0.05  -0.12   0.08
  13  16     0.04  -0.13   0.07    -0.02   0.01   0.01     0.09  -0.03   0.11
  14   8    -0.08  -0.06   0.05     0.05   0.06  -0.04     0.04   0.11   0.08
  15   6    -0.05  -0.02   0.01     0.04   0.05  -0.04     0.01   0.15  -0.08
  16   6    -0.05   0.06   0.01     0.02  -0.03   0.00    -0.04   0.03   0.01
  17   8    -0.02   0.04  -0.20     0.01  -0.02  -0.00     0.08  -0.07  -0.10
  18   6    -0.08   0.01  -0.12    -0.00  -0.02  -0.00     0.00  -0.00  -0.11
  19   6    -0.05  -0.07  -0.03    -0.01  -0.01  -0.01     0.04   0.04   0.03
  20   1    -0.01   0.03   0.04     0.01   0.12   0.13    -0.01  -0.08  -0.08
  21   1    -0.03  -0.05   0.00    -0.10  -0.11  -0.01     0.06   0.06   0.02
  22   1     0.04   0.00  -0.03     0.12   0.04  -0.13    -0.08  -0.04   0.09
  23   1     0.01   0.00  -0.00    -0.00   0.01   0.00     0.01   0.01   0.00
  24   1    -0.00  -0.00   0.00    -0.02  -0.01   0.01     0.01   0.01   0.00
  25   1    -0.02   0.00   0.00    -0.03   0.03  -0.01    -0.01  -0.02   0.01
  26   1     0.00  -0.00  -0.00     0.01   0.02   0.00    -0.00  -0.02  -0.00
  27   1    -0.08   0.04   0.02    -0.38   0.20   0.07     0.15  -0.07  -0.02
  28   1    -0.01  -0.10  -0.02    -0.07  -0.42  -0.06     0.03   0.16   0.02
  29   1     0.08   0.04  -0.01     0.32   0.17  -0.04    -0.11  -0.06   0.02
  30   1     0.02  -0.00   0.00    -0.09  -0.06  -0.01     0.07   0.02   0.01
  31   1     0.02  -0.02  -0.00    -0.06   0.06  -0.03     0.03  -0.07   0.05
  32   1    -0.01   0.01   0.00     0.02   0.01  -0.01     0.02   0.07  -0.02
  33   1    -0.01  -0.02  -0.01     0.00   0.02  -0.01    -0.01   0.04  -0.05
  34   1    -0.07   0.11   0.12     0.09  -0.15  -0.18     0.13  -0.24  -0.30
  35   1     0.07   0.10  -0.12    -0.10  -0.13   0.20    -0.18  -0.20   0.36
  36   1    -0.03  -0.13   0.00     0.02   0.22   0.00    -0.00   0.41   0.01
  37   1    -0.03  -0.02  -0.04    -0.00  -0.01  -0.00    -0.02   0.01  -0.03
  38   1    -0.01   0.01  -0.02    -0.00  -0.01  -0.00    -0.00  -0.00  -0.05
  39   1    -0.15  -0.17  -0.43     0.00   0.00   0.01    -0.02  -0.03  -0.13
  40   1     0.15  -0.36   0.32    -0.01   0.01  -0.01     0.04  -0.11   0.14
  41   1    -0.02   0.42   0.12    -0.00  -0.02  -0.01     0.03   0.17   0.06
                     28                     29                     30
                        a                      a                      a 
 Frequencies --   233.6914               305.2729               309.8713
 Red. masses --     3.8380                21.7185                13.6533
 Frc consts  --     0.0000                 0.0000                 0.0000
 IR Inten    --     1.1532                 4.0078                15.0106
 Raman Activ --     0.0000                 0.0000                 0.0000
 Depolar     --     0.0000                 0.0000                 0.0000
 Atom AN      X      Y      Z        X      Y      Z        X      Y      Z
   1   6    -0.00  -0.02   0.02     0.02   0.07  -0.06     0.01   0.03  -0.03
   2   6    -0.06  -0.15  -0.06    -0.06  -0.01  -0.05     0.03   0.04  -0.04
   3   8    -0.12  -0.05   0.00    -0.07   0.02   0.02     0.09  -0.01  -0.02
   4  15     0.04   0.12   0.05    -0.00  -0.07   0.06     0.02  -0.00  -0.04
   5  16    -0.05   0.15   0.05     0.06  -0.05  -0.04    -0.03  -0.04   0.01
   6   8     0.08   0.01  -0.08     0.02  -0.10  -0.06    -0.08   0.11   0.14
   7   6     0.06  -0.08  -0.07     0.04   0.06   0.01    -0.10  -0.06  -0.01
   8   6    -0.05   0.03  -0.03     0.01  -0.00   0.01    -0.03   0.00  -0.02
   9  16     0.06  -0.07   0.04    -0.14   0.16   0.39     0.12  -0.06  -0.10
  10   6     0.04  -0.04   0.01     0.14   0.24  -0.09    -0.07  -0.09   0.04
  11  16    -0.02   0.01  -0.01     0.04  -0.25  -0.41     0.01   0.20   0.20
  12  15    -0.01  -0.01   0.01    -0.16  -0.17   0.06     0.10   0.02   0.04
  13  16     0.01  -0.00   0.01     0.12  -0.02   0.06     0.03  -0.08   0.05
  14   8     0.00   0.01   0.01     0.07   0.14   0.20     0.15   0.21   0.12
  15   6    -0.00   0.01  -0.00    -0.17   0.11   0.07    -0.16   0.13   0.10
  16   6    -0.01   0.00   0.00    -0.16   0.14   0.02    -0.14   0.12   0.02
  17   8     0.01  -0.01  -0.01     0.12  -0.10  -0.18     0.16  -0.03  -0.46
  18   6     0.00   0.00  -0.01     0.06  -0.11  -0.11    -0.05  -0.34  -0.01
  19   6     0.01   0.01  -0.00     0.08   0.06   0.04    -0.12  -0.12  -0.06
  20   1    -0.03   0.33   0.38     0.03   0.04   0.03     0.00  -0.00  -0.02
  21   1    -0.29  -0.36   0.00    -0.01   0.00  -0.03     0.01   0.02  -0.01
  22   1     0.33   0.08  -0.33     0.03   0.05  -0.06    -0.01   0.01   0.00
  23   1    -0.03  -0.05  -0.03    -0.03  -0.01  -0.02     0.01   0.02  -0.01
  24   1     0.01  -0.06  -0.02    -0.00  -0.01  -0.02     0.01   0.01  -0.01
  25   1     0.00  -0.04  -0.00     0.05   0.04  -0.01    -0.07  -0.04   0.01
  26   1     0.03  -0.04  -0.04    -0.01   0.04   0.03    -0.00  -0.04  -0.03
  27   1     0.15  -0.09  -0.06    -0.08   0.04   0.01     0.05  -0.03  -0.00
  28   1     0.00   0.24   0.07    -0.01  -0.10  -0.01    -0.00   0.08  -0.00
  29   1    -0.23  -0.07  -0.02     0.08   0.03   0.00    -0.07  -0.02  -0.01
  30   1     0.02  -0.00  -0.00     0.07   0.08  -0.04    -0.05  -0.05   0.01
  31   1     0.01  -0.02   0.01     0.04   0.04   0.02    -0.03   0.00  -0.02
  32   1    -0.00   0.00  -0.00    -0.07   0.03   0.02    -0.08   0.01   0.03
  33   1    -0.00   0.00  -0.00    -0.05   0.04   0.04    -0.06   0.06   0.07
  34   1     0.01  -0.02  -0.03    -0.07   0.06   0.01    -0.07   0.07   0.04
  35   1    -0.02  -0.02   0.03    -0.02   0.05  -0.01    -0.01   0.07  -0.04
  36   1    -0.00   0.04   0.00    -0.04   0.03   0.01    -0.03  -0.01   0.00
  37   1    -0.00   0.00  -0.00     0.01  -0.05  -0.04     0.01  -0.22  -0.04
  38   1     0.00  -0.00  -0.01     0.01  -0.04  -0.02    -0.03  -0.10   0.12
  39   1     0.00   0.00   0.00     0.06   0.04   0.02     0.04   0.03   0.10
  40   1    -0.00   0.00   0.00    -0.03   0.02   0.04    -0.10   0.08  -0.13
  41   1     0.00   0.00  -0.00     0.05   0.04   0.02    -0.07  -0.17  -0.06
                     31                     32                     33
                        a                      a                      a 
 Frequencies --   316.7202               343.1909               348.3572
 Red. masses --    14.4024                17.7447                17.4078
 Frc consts  --     0.0000                 0.0000                 0.0000
 IR Inten    --    14.3271                13.7868                 6.6712
 Raman Activ --     0.0000                 0.0000                 0.0000
 Depolar     --     0.0000                 0.0000                 0.0000
 Atom AN      X      Y      Z        X      Y      Z        X      Y      Z
   1   6     0.03   0.21  -0.20     0.00   0.04  -0.05    -0.00   0.08  -0.11
   2   6     0.02   0.12  -0.24     0.02   0.00  -0.09     0.10   0.01  -0.23
   3   8     0.29  -0.01  -0.01     0.09   0.07   0.10     0.26   0.21   0.26
   4  15     0.03  -0.13   0.01    -0.12  -0.06   0.10    -0.29  -0.16   0.27
   5  16     0.00  -0.20  -0.02     0.04   0.03  -0.03     0.09   0.07  -0.08
   6   8    -0.25   0.20   0.39    -0.04  -0.12  -0.06    -0.12  -0.29  -0.13
   7   6    -0.30  -0.15  -0.01    -0.01   0.04   0.05    -0.06   0.06   0.13
   8   6    -0.09   0.00  -0.04     0.06  -0.01   0.03     0.15  -0.03   0.07
   9  16     0.18   0.05   0.19    -0.04   0.03  -0.01    -0.02   0.03  -0.24
  10   6    -0.01   0.09  -0.02     0.09   0.05  -0.04    -0.05  -0.07   0.03
  11  16     0.01  -0.08  -0.09     0.28   0.04  -0.01    -0.13   0.04   0.08
  12  15    -0.05  -0.02  -0.01    -0.29   0.28   0.21     0.14  -0.08  -0.07
  13  16    -0.00   0.03  -0.02     0.06  -0.11  -0.07    -0.03   0.03   0.03
  14   8    -0.04  -0.06  -0.02    -0.27  -0.29   0.17     0.10   0.11  -0.08
  15   6     0.04  -0.03  -0.02     0.13  -0.04  -0.13    -0.04   0.02   0.05
  16   6     0.04  -0.03  -0.00     0.10  -0.06  -0.02    -0.03   0.02   0.01
  17   8    -0.04   0.00   0.13    -0.01   0.23  -0.25     0.02  -0.07   0.07
  18   6     0.02   0.09  -0.00    -0.04  -0.08   0.10    -0.00   0.02  -0.02
  19   6     0.04   0.04   0.02    -0.09  -0.09  -0.04     0.01   0.01   0.01
  20   1     0.04   0.07  -0.02     0.00   0.04   0.02    -0.02   0.11   0.06
  21   1     0.01   0.06  -0.06    -0.02  -0.02  -0.01    -0.05  -0.07  -0.01
  22   1     0.02   0.10  -0.10     0.03   0.03  -0.05     0.06   0.06  -0.11
  23   1    -0.02   0.03  -0.10    -0.03  -0.03  -0.04    -0.06  -0.07  -0.12
  24   1     0.04   0.04  -0.09     0.05   0.00  -0.05     0.14   0.01  -0.15
  25   1    -0.19  -0.09   0.02     0.03   0.03   0.00     0.06   0.06   0.01
  26   1    -0.03  -0.10  -0.07    -0.03   0.03   0.03    -0.08   0.07   0.07
  27   1     0.09  -0.05   0.01    -0.00   0.01   0.02     0.01   0.02   0.05
  28   1    -0.01   0.14  -0.02     0.02  -0.04  -0.03     0.04  -0.09  -0.07
  29   1    -0.12  -0.03  -0.02     0.06   0.01   0.02     0.16   0.01   0.06
  30   1    -0.03  -0.01  -0.02     0.03   0.03  -0.01    -0.01  -0.00   0.02
  31   1    -0.02   0.06  -0.01     0.04  -0.00  -0.01    -0.01  -0.03   0.01
  32   1     0.02   0.00  -0.01     0.09   0.10  -0.04    -0.03  -0.04   0.01
  33   1     0.02  -0.02  -0.02     0.06  -0.08  -0.15    -0.02   0.03   0.06
  34   1     0.02  -0.02  -0.01     0.08  -0.09  -0.08    -0.03   0.03   0.03
  35   1     0.00  -0.02   0.01    -0.02  -0.08   0.10     0.01   0.03  -0.04
  36   1     0.01   0.01  -0.00     0.02   0.09  -0.00    -0.00  -0.04   0.00
  37   1    -0.00   0.06   0.01     0.01  -0.12  -0.00    -0.01   0.03   0.00
  38   1     0.01   0.03  -0.03    -0.00  -0.01   0.13    -0.00   0.00  -0.04
  39   1    -0.00  -0.00  -0.02    -0.01  -0.00   0.05    -0.01  -0.01  -0.02
  40   1     0.02  -0.02   0.04    -0.02   0.04  -0.10     0.01  -0.02   0.03
  41   1     0.02   0.05   0.02    -0.06  -0.12  -0.04     0.01   0.03   0.01
                     34                     35                     36
                        a                      a                      a 
 Frequencies --   413.0919               420.0291               424.0595
 Red. masses --    20.0515                19.7291                14.1488
 Frc consts  --     0.0000                 0.0000                 0.0000
 IR Inten    --    40.4621                25.3149                59.9586
 Raman Activ --     0.0000                 0.0000                 0.0000
 Depolar     --     0.0000                 0.0000                 0.0000
 Atom AN      X      Y      Z        X      Y      Z        X      Y      Z
   1   6     0.01   0.03  -0.02     0.02   0.06  -0.06     0.06   0.25  -0.20
   2   6    -0.02  -0.00  -0.01    -0.07  -0.00  -0.01    -0.36  -0.02   0.03
   3   8     0.03   0.00   0.07     0.09  -0.04   0.14     0.26  -0.59   0.05
   4  15     0.17  -0.05   0.15     0.24  -0.08   0.27    -0.13   0.09   0.02
   5  16     0.01  -0.08  -0.04     0.01  -0.10  -0.06    -0.05   0.25   0.15
   6   8     0.08  -0.01   0.15     0.16  -0.04   0.28     0.05  -0.09  -0.13
   7   6     0.10   0.00  -0.09     0.20   0.02  -0.17     0.06   0.02  -0.00
   8   6    -0.11   0.03  -0.05    -0.21   0.05  -0.10     0.01  -0.01   0.01
   9  16    -0.22   0.11  -0.10    -0.35   0.12  -0.30     0.09  -0.06  -0.01
  10   6    -0.01  -0.00  -0.04     0.00  -0.01  -0.03     0.01  -0.04   0.01
  11  16    -0.33  -0.21  -0.18     0.13   0.10   0.12    -0.02   0.01   0.01
  12  15     0.27   0.21   0.05    -0.10  -0.07   0.01     0.00  -0.01  -0.01
  13  16     0.04  -0.06   0.12    -0.01   0.01  -0.02    -0.00   0.00  -0.00
  14   8     0.07  -0.05  -0.01    -0.10   0.06  -0.05     0.02   0.00  -0.00
  15   6    -0.01  -0.06  -0.06     0.03   0.06   0.06    -0.00  -0.00  -0.00
  16   6    -0.02   0.04   0.01     0.04  -0.06  -0.01    -0.00   0.00   0.00
  17   8     0.35   0.15  -0.03    -0.22  -0.06  -0.02     0.04   0.00   0.01
  18   6    -0.12   0.18   0.22     0.07  -0.12  -0.13    -0.01   0.02   0.02
  19   6    -0.18  -0.16  -0.10     0.11   0.09   0.06    -0.02  -0.01  -0.01
  20   1     0.02   0.01   0.01     0.05   0.00   0.01     0.20  -0.05  -0.00
  21   1     0.00   0.01  -0.01     0.01   0.04  -0.03     0.06   0.21  -0.14
  22   1     0.00   0.02  -0.02     0.01   0.04  -0.04    -0.01   0.16  -0.11
  23   1    -0.01  -0.01  -0.01    -0.03  -0.01  -0.01    -0.02   0.09   0.02
  24   1     0.00   0.00  -0.01    -0.00   0.01  -0.02    -0.17   0.01   0.05
  25   1     0.02   0.00  -0.03     0.05   0.01  -0.06     0.05   0.02  -0.01
  26   1     0.02   0.00  -0.03     0.04   0.02  -0.04    -0.00   0.02   0.02
  27   1    -0.07   0.02  -0.04    -0.14   0.04  -0.08    -0.02   0.01  -0.00
  28   1    -0.04  -0.01   0.06    -0.08  -0.02   0.12    -0.00  -0.02   0.01
  29   1    -0.07   0.02  -0.05    -0.12   0.04  -0.09     0.01   0.00   0.00
  30   1     0.05   0.06  -0.00     0.02   0.05   0.03     0.00  -0.01   0.00
  31   1     0.01  -0.05   0.06     0.03  -0.06  -0.01     0.00  -0.01   0.00
  32   1     0.00  -0.01  -0.02     0.00   0.00   0.02    -0.00  -0.00  -0.00
  33   1    -0.00  -0.02  -0.02     0.01   0.02   0.02    -0.00   0.00   0.00
  34   1    -0.02   0.03   0.00     0.03  -0.03  -0.00    -0.00   0.00   0.00
  35   1     0.03   0.02   0.02    -0.03  -0.02  -0.03     0.00   0.00   0.00
  36   1    -0.03   0.03   0.00     0.04  -0.04  -0.00    -0.00   0.00   0.00
  37   1    -0.05   0.05   0.06     0.03  -0.05  -0.04    -0.01   0.01   0.01
  38   1    -0.04   0.04   0.04     0.03  -0.03  -0.01    -0.01   0.00  -0.00
  39   1    -0.14  -0.11  -0.06     0.09   0.07   0.04    -0.01  -0.01  -0.01
  40   1     0.10  -0.06  -0.11    -0.07   0.04   0.06     0.01  -0.01  -0.01
  41   1    -0.14  -0.11  -0.05     0.08   0.06   0.03    -0.01  -0.01  -0.00
                     37                     38                     39
                        a                      a                      a 
 Frequencies --   430.5825               471.4219               484.4253
 Red. masses --    14.4641                20.0078                19.5188
 Frc consts  --     0.0000                 0.0000                 0.0000
 IR Inten    --    27.4934               156.2302                92.6982
 Raman Activ --     0.0000                 0.0000                 0.0000
 Depolar     --     0.0000                 0.0000                 0.0000
 Atom AN      X      Y      Z        X      Y      Z        X      Y      Z
   1   6     0.00   0.00  -0.00    -0.00  -0.01   0.01    -0.01  -0.03   0.02
   2   6     0.00  -0.00  -0.00     0.05   0.02  -0.02     0.15   0.06  -0.06
   3   8     0.01   0.01   0.02     0.01   0.04  -0.02     0.07   0.05  -0.10
   4  15     0.03  -0.01   0.04    -0.10  -0.00  -0.05    -0.41   0.01  -0.25
   5  16     0.00  -0.01  -0.01     0.01   0.02   0.01     0.01   0.19   0.09
   6   8     0.03  -0.01   0.05     0.06  -0.09   0.15     0.13  -0.35   0.42
   7   6     0.03   0.01  -0.03     0.08   0.02  -0.06     0.20   0.05  -0.15
   8   6    -0.03   0.01  -0.01    -0.06   0.02  -0.04    -0.16   0.06  -0.10
   9  16    -0.04  -0.00  -0.08     0.02  -0.03   0.00     0.19  -0.10   0.15
  10   6    -0.03  -0.01   0.03     0.00   0.01   0.04    -0.00  -0.01   0.02
  11  16     0.09   0.07   0.12     0.26   0.11   0.11    -0.08  -0.03  -0.06
  12  15    -0.04  -0.04  -0.11    -0.34  -0.31  -0.05     0.10   0.09   0.01
  13  16    -0.04   0.09  -0.27    -0.06   0.15  -0.25     0.02  -0.05   0.10
  14   8     0.41  -0.26   0.42    -0.08   0.10   0.05     0.03  -0.02  -0.04
  15   6    -0.13  -0.24  -0.23     0.00   0.15   0.11     0.00  -0.04  -0.03
  16   6    -0.22   0.24   0.02     0.03  -0.04  -0.00    -0.00   0.01   0.00
  17   8    -0.08  -0.01   0.13     0.51  -0.14   0.11    -0.13   0.04  -0.03
  18   6     0.01   0.05   0.02    -0.10   0.14   0.12     0.02  -0.03  -0.02
  19   6     0.02   0.02   0.01    -0.14  -0.10  -0.07     0.03   0.02   0.02
  20   1     0.00   0.00   0.00    -0.02   0.01  -0.01    -0.06   0.02  -0.02
  21   1     0.00   0.00  -0.00    -0.00  -0.02   0.01    -0.00  -0.04   0.03
  22   1     0.00   0.00  -0.00     0.00  -0.01   0.01    -0.00  -0.04   0.03
  23   1    -0.00  -0.00  -0.00     0.01  -0.00  -0.01     0.03   0.01  -0.02
  24   1     0.01   0.00  -0.00     0.02   0.00  -0.01     0.05   0.01  -0.02
  25   1     0.01   0.00  -0.01     0.03   0.02  -0.03     0.11   0.06  -0.08
  26   1     0.01   0.00  -0.01    -0.00   0.02  -0.01    -0.03   0.08  -0.01
  27   1    -0.02   0.01  -0.01    -0.06   0.02  -0.03    -0.15   0.05  -0.08
  28   1    -0.01  -0.00   0.02    -0.02  -0.01   0.05    -0.06  -0.04   0.12
  29   1    -0.02   0.01  -0.01    -0.04   0.01  -0.03    -0.10   0.04  -0.09
  30   1    -0.03  -0.01   0.02    -0.03  -0.02   0.01    -0.01  -0.03  -0.02
  31   1    -0.00   0.00  -0.02     0.00   0.02  -0.03    -0.01   0.02   0.01
  32   1    -0.03   0.03  -0.07    -0.01   0.02   0.03     0.00  -0.01  -0.01
  33   1    -0.04  -0.09  -0.12     0.01   0.04   0.04    -0.00  -0.01  -0.01
  34   1    -0.15   0.13  -0.02     0.04  -0.03   0.00    -0.01   0.01   0.00
  35   1     0.11   0.09   0.14    -0.05  -0.02  -0.04     0.02   0.01   0.01
  36   1    -0.16   0.19   0.01     0.04  -0.04  -0.00    -0.01   0.01   0.00
  37   1     0.00   0.04   0.01    -0.07   0.12   0.06     0.02  -0.03  -0.01
  38   1     0.01   0.01  -0.02    -0.05   0.01  -0.08     0.01  -0.00   0.02
  39   1     0.00   0.00   0.00    -0.12  -0.09  -0.07     0.03   0.02   0.02
  40   1     0.01  -0.00   0.01     0.09  -0.06  -0.06    -0.02   0.01   0.01
  41   1     0.01   0.01   0.01    -0.10  -0.05  -0.03     0.02   0.01   0.01
                     40                     41                     42
                        a                      a                      a 
 Frequencies --   611.4926               618.7248               656.7226
 Red. masses --    25.4189                25.4020                17.9713
 Frc consts  --     0.0000                 0.0000                 0.0000
 IR Inten    --   222.2167                93.9432                 6.5798
 Raman Activ --     0.0000                 0.0000                 0.0000
 Depolar     --     0.0000                 0.0000                 0.0000
 Atom AN      X      Y      Z        X      Y      Z        X      Y      Z
   1   6     0.00  -0.00   0.00    -0.00  -0.00  -0.00    -0.00  -0.00   0.00
   2   6    -0.06  -0.03   0.03    -0.14  -0.06   0.08    -0.02  -0.01   0.01
   3   8     0.02   0.03   0.13     0.06   0.07   0.31     0.02   0.02   0.04
   4  15    -0.13   0.13  -0.02    -0.39   0.35  -0.10    -0.07   0.03  -0.03
   5  16     0.06  -0.20  -0.07     0.14  -0.48  -0.16     0.02  -0.05  -0.02
   6   8     0.05   0.11  -0.02     0.12   0.25  -0.03     0.02   0.05  -0.01
   7   6     0.07   0.01  -0.01     0.17   0.02  -0.03     0.04   0.00  -0.00
   8   6     0.01  -0.00   0.01     0.02  -0.01   0.01     0.00  -0.00   0.01
   9  16     0.01  -0.06  -0.04     0.07  -0.10   0.00    -0.03   0.43   0.20
  10   6    -0.06   0.06   0.14     0.01   0.09   0.02    -0.13  -0.75   0.11
  11  16     0.11   0.05   0.00    -0.05  -0.03  -0.02     0.15   0.08  -0.26
  12  15    -0.40  -0.11  -0.35     0.18   0.07   0.15    -0.01  -0.00   0.04
  13  16     0.18  -0.17   0.46    -0.07   0.06  -0.18    -0.01   0.01  -0.02
  14   8     0.23   0.09  -0.18    -0.09  -0.04   0.07     0.02   0.01  -0.03
  15   6     0.02  -0.12  -0.09    -0.01   0.05   0.03     0.00  -0.02  -0.01
  16   6     0.00  -0.01   0.00    -0.00   0.00  -0.00     0.00  -0.00  -0.00
  17   8    -0.05   0.23  -0.09     0.02  -0.10   0.04    -0.00   0.01   0.01
  18   6     0.01   0.14   0.10    -0.00  -0.07  -0.04    -0.00  -0.00  -0.01
  19   6     0.01   0.01   0.00    -0.00  -0.00  -0.00    -0.00   0.00  -0.00
  20   1     0.03  -0.01   0.02     0.07  -0.03   0.04     0.01  -0.01   0.01
  21   1    -0.00   0.01  -0.02    -0.01   0.03  -0.04    -0.00   0.01  -0.01
  22   1     0.01   0.01  -0.02     0.01   0.03  -0.04     0.00   0.00  -0.01
  23   1    -0.03  -0.02   0.00    -0.08  -0.06   0.01    -0.01  -0.01  -0.00
  24   1     0.01  -0.00  -0.01     0.02  -0.01  -0.03     0.01  -0.00  -0.01
  25   1    -0.00  -0.01   0.00     0.00  -0.01   0.00    -0.00  -0.00   0.00
  26   1     0.04  -0.01  -0.01     0.09  -0.02  -0.02     0.02  -0.00  -0.00
  27   1    -0.01   0.00  -0.01    -0.02   0.00  -0.03    -0.00   0.00  -0.01
  28   1    -0.00  -0.00   0.03    -0.00  -0.01   0.06     0.00  -0.00   0.01
  29   1    -0.01  -0.00  -0.00    -0.03  -0.00  -0.01    -0.00  -0.00  -0.00
  30   1    -0.02   0.00   0.03     0.02   0.02  -0.01    -0.05  -0.20   0.04
  31   1    -0.01   0.01   0.00     0.01   0.01   0.02    -0.07  -0.12  -0.00
  32   1    -0.01  -0.09  -0.02     0.00   0.04   0.01    -0.00  -0.01  -0.00
  33   1    -0.01   0.01   0.04     0.00  -0.00  -0.02     0.00  -0.00   0.00
  34   1    -0.03   0.03   0.02     0.01  -0.01  -0.01    -0.00   0.00   0.00
  35   1     0.06   0.01   0.03    -0.02  -0.00  -0.01     0.01   0.00   0.01
  36   1    -0.04   0.02   0.00     0.02  -0.01  -0.00    -0.01   0.00   0.00
  37   1     0.00  -0.01   0.01    -0.00   0.00  -0.00     0.00  -0.00  -0.00
  38   1     0.01   0.05   0.07    -0.01  -0.02  -0.03     0.00   0.00   0.00
  39   1    -0.04  -0.02  -0.00     0.02   0.01   0.00    -0.00   0.00   0.00
  40   1     0.06  -0.00  -0.03    -0.03   0.00   0.02    -0.00   0.00   0.00
  41   1    -0.02  -0.03  -0.01     0.01   0.01   0.00     0.00   0.00  -0.00
                     43                     44                     45
                        a                      a                      a 
 Frequencies --   684.7191               734.0926               737.5085
 Red. masses --    16.5445                19.1292                19.2513
 Frc consts  --     0.0000                 0.0000                 0.0000
 IR Inten    --    39.5946               212.4992               174.2846
 Raman Activ --     0.0000                 0.0000                 0.0000
 Depolar     --     0.0000                 0.0000                 0.0000
 Atom AN      X      Y      Z        X      Y      Z        X      Y      Z
   1   6     0.00   0.00  -0.00     0.00   0.01  -0.01    -0.01  -0.05   0.05
   2   6     0.01   0.00  -0.01     0.04   0.01  -0.03    -0.21  -0.05   0.15
   3   8    -0.00  -0.01  -0.03    -0.01  -0.03  -0.07     0.05   0.17   0.42
   4  15     0.07  -0.04   0.03    -0.05  -0.03   0.08     0.35   0.15  -0.48
   5  16    -0.02   0.05   0.01     0.00  -0.01  -0.00    -0.02   0.04   0.02
   6   8    -0.01  -0.02  -0.00     0.01   0.06  -0.02    -0.06  -0.34   0.10
   7   6    -0.02  -0.00   0.00     0.04   0.01  -0.01    -0.23  -0.04   0.04
   8   6    -0.00   0.00  -0.00     0.01  -0.00   0.01    -0.05   0.01  -0.05
   9  16     0.00  -0.17  -0.12    -0.00  -0.00   0.00    -0.01   0.00  -0.00
  10   6    -0.39   0.19   0.68     0.04   0.01  -0.05     0.01  -0.00  -0.01
  11  16     0.18   0.05  -0.39    -0.02  -0.02   0.04     0.00  -0.00   0.01
  12  15     0.07   0.06   0.10    -0.33   0.45   0.25    -0.06   0.07   0.03
  13  16    -0.02   0.02  -0.06     0.01  -0.01   0.01     0.00  -0.00   0.00
  14   8    -0.01  -0.02  -0.01     0.23   0.14  -0.27     0.04   0.02  -0.04
  15   6    -0.00   0.01  -0.00     0.05  -0.18  -0.18     0.01  -0.03  -0.03
  16   6    -0.00   0.00  -0.00     0.05  -0.04  -0.00     0.01  -0.01  -0.00
  17   8     0.01  -0.05   0.02     0.21  -0.30   0.18     0.04  -0.05   0.03
  18   6    -0.00  -0.05  -0.03    -0.01  -0.24  -0.14     0.00  -0.04  -0.02
  19   6    -0.01  -0.01  -0.00    -0.07  -0.05  -0.01    -0.01  -0.01  -0.00
  20   1    -0.01   0.00  -0.00    -0.02   0.01  -0.01     0.12  -0.08   0.07
  21   1     0.00  -0.00   0.00     0.00  -0.01   0.02    -0.03   0.06  -0.09
  22   1    -0.00  -0.00   0.00    -0.01  -0.00   0.01     0.05   0.01  -0.04
  23   1     0.01   0.01  -0.00     0.03   0.02   0.00    -0.17  -0.10  -0.02
  24   1    -0.00   0.00   0.00    -0.02   0.01   0.01     0.08  -0.02  -0.05
  25   1    -0.00   0.00   0.00    -0.00  -0.01   0.00     0.02   0.04  -0.02
  26   1    -0.01   0.00   0.00     0.02  -0.01  -0.01    -0.13   0.05   0.06
  27   1     0.00  -0.00   0.00    -0.00  -0.00  -0.01     0.03   0.01   0.04
  28   1     0.00   0.00  -0.01     0.00  -0.00   0.02    -0.01   0.03  -0.10
  29   1     0.00  -0.00   0.00    -0.00  -0.00   0.00     0.02   0.01  -0.01
  30   1     0.01   0.09   0.12    -0.00  -0.00  -0.01     0.00  -0.00  -0.00
  31   1    -0.07  -0.04   0.21     0.01   0.01  -0.02    -0.00   0.00   0.00
  32   1     0.00   0.00  -0.00    -0.05  -0.16  -0.05    -0.01  -0.03  -0.01
  33   1     0.00  -0.00  -0.00     0.00   0.02   0.07     0.00   0.00   0.01
  34   1     0.00  -0.00   0.00    -0.02   0.03   0.04    -0.00   0.01   0.01
  35   1    -0.00  -0.00  -0.00     0.12   0.01   0.07     0.02   0.00   0.01
  36   1    -0.00  -0.00  -0.00    -0.09   0.03   0.00    -0.02   0.00   0.00
  37   1    -0.00  -0.00  -0.01    -0.03   0.04  -0.00    -0.01   0.01   0.00
  38   1    -0.00  -0.01  -0.02    -0.01  -0.08  -0.16     0.00  -0.01  -0.03
  39   1     0.01   0.01   0.00     0.06   0.04  -0.01     0.01   0.01  -0.00
  40   1    -0.02  -0.00   0.01    -0.13  -0.00   0.05    -0.02  -0.00   0.01
  41   1     0.01   0.01   0.00    -0.00   0.04   0.01    -0.00   0.01   0.00
                     46                     47                     48
                        a                      a                      a 
 Frequencies --   765.8347               773.0998               790.8206
 Red. masses --    22.1749                22.6725                 6.0795
 Frc consts  --     0.0000                 0.0000                 0.0000
 IR Inten    --   298.9409               309.1531                14.1936
 Raman Activ --     0.0000                 0.0000                 0.0000
 Depolar     --     0.0000                 0.0000                 0.0000
 Atom AN      X      Y      Z        X      Y      Z        X      Y      Z
   1   6    -0.00  -0.00   0.00     0.01   0.03  -0.02     0.00  -0.00  -0.00
   2   6    -0.01  -0.00   0.01     0.12   0.02  -0.09     0.00   0.00  -0.00
   3   8     0.01   0.01   0.02    -0.05  -0.15  -0.22     0.00  -0.01  -0.00
   4  15    -0.01  -0.07  -0.03     0.09   0.63   0.28     0.03   0.04   0.04
   5  16    -0.01   0.03   0.01     0.08  -0.27  -0.09    -0.00  -0.00  -0.01
   6   8     0.00   0.04  -0.01    -0.03  -0.38   0.05    -0.01  -0.02   0.00
   7   6     0.03   0.01  -0.01    -0.22  -0.06   0.04     0.00  -0.01  -0.00
   8   6     0.01  -0.00   0.01    -0.07   0.02  -0.06     0.00  -0.00   0.00
   9  16    -0.00   0.02   0.01     0.01  -0.00   0.01    -0.13  -0.04  -0.11
  10   6    -0.02  -0.04   0.02    -0.02  -0.05  -0.01     0.44   0.00   0.31
  11  16     0.03   0.00   0.01     0.02   0.01  -0.00    -0.10  -0.00  -0.12
  12  15     0.01   0.37  -0.58    -0.00   0.04  -0.07     0.01   0.02   0.03
  13  16     0.09  -0.09   0.24     0.01  -0.01   0.03     0.00  -0.00   0.00
  14   8    -0.16  -0.19   0.25    -0.01  -0.02   0.03    -0.01  -0.03  -0.00
  15   6    -0.05   0.15   0.16    -0.00   0.02   0.02    -0.00   0.01   0.01
  16   6    -0.05   0.04   0.00    -0.00   0.00   0.00    -0.00   0.00   0.00
  17   8     0.13  -0.22   0.20     0.01  -0.03   0.02    -0.00  -0.01  -0.00
  18   6     0.01  -0.16  -0.08     0.00  -0.02  -0.01     0.00   0.00   0.00
  19   6    -0.06  -0.04  -0.01    -0.01  -0.00  -0.00     0.00   0.00  -0.00
  20   1     0.01  -0.00   0.00    -0.07   0.05  -0.04    -0.00   0.00  -0.00
  21   1    -0.00   0.00  -0.01     0.02  -0.04   0.06     0.00  -0.00   0.00
  22   1     0.00  -0.00  -0.00    -0.03   0.00   0.03    -0.00   0.00   0.00
  23   1    -0.01  -0.01  -0.00     0.12   0.07   0.03     0.00   0.00   0.00
  24   1     0.00  -0.00  -0.00    -0.07   0.02   0.04    -0.00  -0.00   0.00
  25   1    -0.00  -0.01   0.00     0.04   0.06  -0.04     0.01   0.01  -0.01
  26   1     0.02  -0.01  -0.01    -0.15   0.07   0.09    -0.01   0.01   0.02
  27   1    -0.00  -0.00  -0.01     0.04   0.01   0.06     0.00   0.00   0.01
  28   1     0.00  -0.00   0.01    -0.01   0.03  -0.12     0.00   0.00   0.00
  29   1    -0.00  -0.00   0.00     0.03   0.03  -0.02    -0.00   0.01  -0.01
  30   1    -0.00  -0.01   0.00     0.02   0.02   0.01    -0.35  -0.42   0.10
  31   1    -0.00  -0.01  -0.01     0.00  -0.04   0.02    -0.05   0.51  -0.26
  32   1     0.07   0.17   0.04     0.01   0.02   0.00     0.01   0.01   0.00
  33   1    -0.01  -0.03  -0.09    -0.00  -0.00  -0.01    -0.00  -0.00  -0.01
  34   1     0.00  -0.02  -0.05    -0.00  -0.00  -0.01    -0.00  -0.00  -0.01
  35   1    -0.11  -0.00  -0.07    -0.01  -0.00  -0.01    -0.01   0.00  -0.01
  36   1     0.09  -0.02  -0.00     0.01  -0.00  -0.00     0.01  -0.00  -0.00
  37   1    -0.04   0.06   0.01    -0.01   0.01   0.00     0.00  -0.00  -0.00
  38   1     0.00  -0.06  -0.15     0.00  -0.01  -0.02    -0.00  -0.00   0.00
  39   1     0.05   0.03  -0.01     0.01   0.00  -0.00    -0.00  -0.00   0.00
  40   1    -0.10  -0.00   0.04    -0.01   0.00   0.00    -0.00   0.00   0.00
  41   1    -0.01   0.04   0.01    -0.00   0.00   0.00     0.00   0.00  -0.00
                     49                     50                     51
                        a                      a                      a 
 Frequencies --   818.5395               820.2390               821.4322
 Red. masses --     2.8409                 3.1197                 3.0299
 Frc consts  --     0.0000                 0.0000                 0.0000
 IR Inten    --     3.4815                 1.5258                 2.5104
 Raman Activ --     0.0000                 0.0000                 0.0000
 Depolar     --     0.0000                 0.0000                 0.0000
 Atom AN      X      Y      Z        X      Y      Z        X      Y      Z
   1   6    -0.00  -0.04  -0.02    -0.00   0.09   0.05    -0.00   0.01   0.00
   2   6    -0.01  -0.07  -0.05     0.02   0.19   0.14     0.00   0.02   0.01
   3   8     0.01   0.05   0.05    -0.03  -0.14  -0.12    -0.00  -0.01  -0.01
   4  15     0.00  -0.02  -0.03    -0.00   0.07   0.08    -0.02  -0.04   0.01
   5  16    -0.00   0.01   0.00     0.01  -0.02  -0.01    -0.00   0.01   0.00
   6   8     0.00   0.01   0.00     0.01  -0.07  -0.01    -0.03   0.11  -0.01
   7   6    -0.00  -0.02  -0.00    -0.01   0.10   0.02     0.03  -0.16  -0.03
   8   6    -0.00  -0.01  -0.00    -0.00   0.05   0.00     0.01  -0.07   0.00
   9  16     0.00   0.00  -0.00    -0.00  -0.00   0.00     0.00   0.00   0.00
  10   6    -0.00   0.00  -0.00     0.01  -0.00   0.00    -0.00  -0.00   0.00
  11  16    -0.00  -0.00   0.00    -0.00  -0.00  -0.00     0.00   0.00  -0.00
  12  15    -0.02   0.06  -0.04     0.00   0.03  -0.03     0.04   0.01  -0.07
  13  16     0.00  -0.00   0.01     0.00  -0.00   0.01     0.01  -0.00   0.01
  14   8    -0.00  -0.01   0.01    -0.02  -0.03   0.04    -0.06  -0.12   0.12
  15   6     0.00   0.01  -0.00     0.02   0.04  -0.04     0.07   0.15  -0.15
  16   6     0.00   0.01  -0.00     0.00   0.02  -0.02     0.01   0.07  -0.07
  17   8     0.10  -0.08   0.13     0.03  -0.03   0.05    -0.02  -0.01  -0.01
  18   6    -0.09   0.13  -0.21    -0.03   0.04  -0.07     0.01  -0.00   0.02
  19   6    -0.06   0.06  -0.08    -0.02   0.02  -0.02     0.01  -0.00   0.01
  20   1     0.01   0.02   0.05    -0.02  -0.06  -0.12    -0.00  -0.01  -0.01
  21   1     0.08  -0.02   0.11    -0.20   0.06  -0.28    -0.02   0.01  -0.03
  22   1    -0.09   0.11  -0.04     0.23  -0.28   0.10     0.02  -0.02   0.01
  23   1     0.11   0.01   0.11    -0.27  -0.02  -0.27    -0.03  -0.00  -0.02
  24   1    -0.13   0.09  -0.01     0.34  -0.22   0.03     0.03  -0.02   0.00
  25   1     0.01   0.02  -0.03    -0.05  -0.10   0.15     0.08   0.15  -0.22
  26   1    -0.01   0.02   0.04     0.02  -0.06  -0.17    -0.03   0.10   0.26
  27   1     0.01   0.01   0.04    -0.03  -0.04  -0.16     0.04   0.06   0.25
  28   1     0.00   0.01   0.00    -0.01  -0.06  -0.02     0.01   0.09   0.03
  29   1    -0.00   0.02  -0.03     0.02  -0.09   0.14    -0.02   0.14  -0.21
  30   1     0.00   0.00  -0.00    -0.00  -0.00   0.00     0.00   0.00   0.00
  31   1     0.00  -0.00  -0.00    -0.00   0.01  -0.00    -0.00   0.00   0.00
  32   1    -0.02  -0.01  -0.00    -0.09  -0.04  -0.01    -0.34  -0.16  -0.03
  33   1     0.01   0.00   0.02     0.07   0.01   0.09     0.23   0.02   0.31
  34   1     0.02  -0.01   0.01     0.07  -0.02   0.07     0.26  -0.08   0.23
  35   1    -0.01  -0.00   0.00    -0.02  -0.02   0.02    -0.09  -0.06   0.08
  36   1    -0.01  -0.00  -0.00    -0.09  -0.02  -0.00    -0.33  -0.06  -0.01
  37   1     0.39  -0.20  -0.11     0.13  -0.07  -0.04    -0.03   0.02   0.01
  38   1    -0.26  -0.10   0.35    -0.09  -0.03   0.12     0.02   0.01  -0.03
  39   1    -0.30  -0.15   0.23    -0.10  -0.05   0.08     0.02   0.01  -0.02
  40   1     0.02  -0.10   0.10     0.00  -0.03   0.04     0.00   0.01  -0.01
  41   1     0.40  -0.06  -0.02     0.14  -0.02  -0.01    -0.03   0.00   0.00
                     52                     53                     54
                        a                      a                      a 
 Frequencies --   821.0196               905.3764               913.5170
 Red. masses --     2.9146                12.9460                12.8611
 Frc consts  --     0.0000                 0.0000                 0.0000
 IR Inten    --     5.1663               304.9154               329.6477
 Raman Activ --     0.0000                 0.0000                 0.0000
 Depolar     --     0.0000                 0.0000                 0.0000
 Atom AN      X      Y      Z        X      Y      Z        X      Y      Z
   1   6     0.00  -0.04  -0.02    -0.01  -0.07   0.07     0.00  -0.00   0.01
   2   6    -0.01  -0.09  -0.07    -0.14  -0.09   0.05    -0.01  -0.00   0.00
   3   8     0.01   0.06   0.06     0.13   0.14  -0.19     0.01   0.01  -0.01
   4  15     0.02   0.04  -0.04    -0.15  -0.14   0.09    -0.01  -0.01   0.01
   5  16     0.00  -0.00  -0.00    -0.00   0.01   0.00    -0.00   0.00   0.00
   6   8     0.04  -0.14   0.02     0.65   0.09   0.05     0.05   0.01   0.00
   7   6    -0.04   0.19   0.04    -0.36   0.05   0.11    -0.02   0.00   0.01
   8   6    -0.01   0.08  -0.00    -0.20   0.05  -0.17    -0.02   0.00  -0.01
   9  16    -0.01  -0.00  -0.01    -0.02  -0.00  -0.00     0.00   0.00   0.00
  10   6     0.01  -0.00   0.01     0.01   0.00   0.00    -0.01  -0.00  -0.01
  11  16     0.00   0.00  -0.01    -0.01  -0.00  -0.00     0.01   0.01   0.01
  12  15     0.03   0.00  -0.05     0.01  -0.01  -0.01    -0.11   0.17   0.10
  13  16     0.00  -0.00   0.01     0.00  -0.00   0.00     0.00  -0.00  -0.00
  14   8    -0.04  -0.08   0.08    -0.02   0.02   0.02     0.26  -0.32  -0.22
  15   6     0.05   0.11  -0.10     0.00  -0.02  -0.01     0.01   0.24   0.11
  16   6     0.00   0.04  -0.05     0.01  -0.01  -0.00    -0.15   0.11   0.00
  17   8    -0.02   0.00  -0.02     0.01   0.03   0.02    -0.17  -0.46  -0.22
  18   6     0.01  -0.01   0.03    -0.00  -0.02  -0.02     0.01   0.20   0.24
  19   6     0.01  -0.00   0.01    -0.01  -0.01  -0.00     0.18   0.13   0.05
  20   1     0.01   0.03   0.06     0.10  -0.07   0.07     0.01  -0.01   0.00
  21   1     0.11  -0.03   0.15    -0.00   0.03  -0.04    -0.00   0.00  -0.00
  22   1    -0.12   0.14  -0.05     0.02   0.01  -0.02     0.00  -0.00  -0.00
  23   1     0.14   0.01   0.14    -0.03   0.03  -0.04    -0.01   0.00  -0.01
  24   1    -0.17   0.11  -0.01    -0.01  -0.02  -0.01    -0.00  -0.00   0.00
  25   1    -0.10  -0.18   0.27     0.01   0.02   0.05     0.00   0.00   0.00
  26   1     0.03  -0.12  -0.32     0.04  -0.01   0.11     0.00  -0.00   0.01
  27   1    -0.05  -0.07  -0.30     0.09  -0.02   0.05     0.01  -0.00   0.00
  28   1    -0.01  -0.10  -0.03    -0.02   0.07  -0.34    -0.00   0.01  -0.03
  29   1     0.03  -0.17   0.25     0.08   0.00   0.04     0.01   0.00   0.00
  30   1    -0.01  -0.01   0.00    -0.01  -0.01   0.01     0.01   0.01  -0.00
  31   1    -0.00   0.01  -0.01     0.01   0.00  -0.02     0.00  -0.02  -0.00
  32   1    -0.23  -0.11  -0.02    -0.01   0.00  -0.00     0.09  -0.02   0.02
  33   1     0.16   0.02   0.21    -0.00  -0.00   0.00     0.02   0.03  -0.00
  34   1     0.18  -0.06   0.16    -0.00   0.00   0.00     0.03  -0.04  -0.03
  35   1    -0.06  -0.04   0.05     0.01  -0.00   0.01    -0.21  -0.00  -0.11
  36   1    -0.22  -0.04  -0.01    -0.00   0.00  -0.00     0.06  -0.04  -0.00
  37   1    -0.05   0.02   0.01    -0.00   0.00  -0.00    -0.03  -0.02   0.03
  38   1     0.03   0.01  -0.04     0.01   0.00  -0.00    -0.09  -0.03   0.03
  39   1     0.03   0.02  -0.03     0.01   0.00   0.00    -0.07  -0.05  -0.02
  40   1     0.00   0.01  -0.01    -0.02  -0.00   0.01     0.28   0.02  -0.11
  41   1    -0.05   0.01   0.00     0.00   0.00   0.00    -0.04  -0.06  -0.02
                     55                     56                     57
                        a                      a                      a 
 Frequencies --   936.7248               938.7442              1034.8780
 Red. masses --    11.4942                11.6187                 8.2306
 Frc consts  --     0.0000                 0.0000                 0.0000
 IR Inten    --   124.0002               114.3801               181.9259
 Raman Activ --     0.0000                 0.0000                 0.0000
 Depolar     --     0.0000                 0.0000                 0.0000
 Atom AN      X      Y      Z        X      Y      Z        X      Y      Z
   1   6    -0.01  -0.24   0.22     0.00  -0.00   0.00     0.01  -0.12   0.11
   2   6    -0.30  -0.14   0.05    -0.01  -0.00  -0.00     0.02   0.15  -0.13
   3   8     0.29   0.33  -0.45     0.01   0.01  -0.01    -0.06  -0.05   0.03
   4  15     0.01   0.08   0.14    -0.00   0.00   0.00     0.00   0.00   0.00
   5  16     0.00  -0.01  -0.01    -0.00   0.00   0.00    -0.00   0.00   0.00
   6   8    -0.25  -0.07   0.01    -0.00  -0.00   0.00    -0.28   0.02   0.04
   7   6     0.10  -0.01  -0.06     0.00  -0.00  -0.00     0.46  -0.09   0.26
   8   6     0.10  -0.02   0.09     0.00  -0.00   0.00    -0.30   0.07  -0.27
   9  16     0.01  -0.00   0.01    -0.00  -0.00  -0.00     0.01   0.00   0.00
  10   6    -0.00   0.00  -0.01    -0.00  -0.01   0.02    -0.00   0.00   0.00
  11  16     0.00  -0.00   0.00     0.02   0.01  -0.01     0.00   0.00   0.00
  12  15    -0.00   0.00   0.00     0.06   0.11  -0.13    -0.00  -0.00  -0.00
  13  16     0.00  -0.00   0.00     0.00  -0.01   0.02    -0.00   0.00  -0.00
  14   8     0.01  -0.01  -0.00    -0.29   0.36   0.24     0.01  -0.03  -0.01
  15   6     0.00   0.00   0.00    -0.06  -0.22  -0.11    -0.05   0.04   0.00
  16   6    -0.01   0.01  -0.00     0.22  -0.16   0.00     0.04  -0.02   0.00
  17   8     0.00   0.00   0.00    -0.09  -0.39  -0.17    -0.01  -0.02  -0.02
  18   6     0.00  -0.00  -0.00    -0.04   0.11   0.17     0.04   0.03   0.02
  19   6    -0.00  -0.00  -0.00     0.19   0.13   0.04    -0.03  -0.02  -0.01
  20   1     0.29  -0.20   0.21     0.01  -0.00   0.00     0.12  -0.08   0.09
  21   1     0.01   0.09  -0.08     0.00   0.00   0.00     0.02   0.03  -0.01
  22   1     0.03   0.06  -0.08     0.00   0.00  -0.00     0.02   0.03  -0.03
  23   1    -0.05   0.09  -0.09    -0.00   0.00  -0.00    -0.01   0.05  -0.05
  24   1    -0.04   0.01  -0.05    -0.00  -0.00  -0.00    -0.01   0.07  -0.05
  25   1    -0.02  -0.00  -0.03     0.00  -0.00  -0.00     0.12  -0.07   0.14
  26   1    -0.04   0.01  -0.06    -0.00   0.00  -0.00     0.17  -0.04   0.12
  27   1    -0.05   0.01  -0.03    -0.00   0.00  -0.00     0.12  -0.05   0.01
  28   1     0.01  -0.04   0.17     0.00  -0.00   0.00    -0.03   0.08  -0.45
  29   1    -0.04  -0.00  -0.02    -0.00  -0.00   0.00     0.12   0.00   0.04
  30   1     0.00   0.01  -0.00    -0.00  -0.01  -0.00     0.00  -0.00  -0.01
  31   1    -0.00   0.00   0.01    -0.01   0.01   0.01    -0.00   0.00   0.00
  32   1     0.00  -0.00   0.00    -0.11   0.05  -0.02    -0.02   0.01  -0.00
  33   1     0.00  -0.00  -0.00    -0.06  -0.01  -0.01    -0.02   0.01  -0.00
  34   1     0.00  -0.00  -0.00    -0.05   0.06   0.03    -0.00   0.01   0.01
  35   1    -0.01  -0.00  -0.00     0.30   0.01   0.15     0.04   0.00   0.02
  36   1     0.00  -0.00  -0.00    -0.07   0.07   0.00    -0.00   0.01   0.00
  37   1    -0.00   0.00   0.00    -0.05  -0.03   0.02     0.02   0.01   0.00
  38   1     0.00  -0.00  -0.00    -0.10  -0.05   0.01     0.02   0.01   0.00
  39   1     0.00   0.00  -0.00    -0.06  -0.05  -0.03     0.01   0.01   0.01
  40   1    -0.00   0.00   0.00     0.27   0.01  -0.11    -0.04  -0.00   0.02
  41   1    -0.00   0.00   0.00    -0.04  -0.06  -0.02     0.01   0.01   0.00
                     58                     59                     60
                        a                      a                      a 
 Frequencies --  1036.8805              1051.1397              1053.4723
 Red. masses --     8.5250                 9.7873                 9.7343
 Frc consts  --     0.0000                 0.0000                 0.0000
 IR Inten    --   221.9233                82.8137               108.7668
 Raman Activ --     0.0000                 0.0000                 0.0000
 Depolar     --     0.0000                 0.0000                 0.0000
 Atom AN      X      Y      Z        X      Y      Z        X      Y      Z
   1   6    -0.00   0.01  -0.01     0.00  -0.02   0.02    -0.07   0.27  -0.27
   2   6    -0.00  -0.02   0.02     0.01   0.02  -0.02    -0.09  -0.45   0.38
   3   8     0.01   0.01  -0.00    -0.02  -0.01   0.01     0.24   0.22  -0.17
   4  15    -0.00  -0.00   0.00     0.00  -0.00   0.00     0.02   0.01   0.00
   5  16     0.00   0.00   0.00     0.00  -0.00  -0.00    -0.00   0.00   0.00
   6   8     0.04  -0.00  -0.01     0.01   0.00  -0.00    -0.16  -0.02   0.03
   7   6    -0.07   0.01  -0.04    -0.01   0.00  -0.00     0.18  -0.04   0.09
   8   6     0.04  -0.01   0.04     0.01  -0.00   0.00    -0.09   0.03  -0.09
   9  16     0.00   0.00   0.00     0.00   0.00   0.00     0.01  -0.00   0.00
  10   6    -0.00  -0.00   0.00    -0.00   0.00  -0.00     0.00   0.01  -0.00
  11  16     0.00   0.01   0.00    -0.01  -0.01   0.00    -0.00   0.00   0.00
  12  15    -0.01   0.00   0.00    -0.01  -0.02   0.01    -0.00  -0.00   0.00
  13  16    -0.00  -0.00   0.00     0.00  -0.00   0.00     0.00  -0.00   0.00
  14   8     0.06  -0.21  -0.09     0.10  -0.24  -0.11     0.01  -0.01  -0.01
  15   6    -0.32   0.31   0.02    -0.31   0.29   0.02    -0.02   0.02   0.00
  16   6     0.28  -0.17   0.03     0.24  -0.12   0.03     0.01  -0.01   0.00
  17   8    -0.05  -0.14  -0.13     0.05   0.25   0.19     0.00   0.01   0.01
  18   6     0.27   0.25   0.12    -0.30  -0.29  -0.16    -0.01  -0.01  -0.01
  19   6    -0.24  -0.16  -0.04     0.24   0.16   0.05     0.01   0.01   0.01
  20   1    -0.01   0.01  -0.01     0.01  -0.01   0.01    -0.26   0.18  -0.20
  21   1    -0.00  -0.00   0.00     0.00   0.01  -0.00    -0.06  -0.07   0.02
  22   1    -0.00  -0.00   0.00     0.00   0.00  -0.00    -0.06  -0.03   0.05
  23   1     0.00  -0.01   0.01    -0.00   0.01  -0.01     0.01  -0.13   0.14
  24   1     0.00  -0.01   0.01    -0.00   0.01  -0.01     0.02  -0.16   0.12
  25   1    -0.02   0.01  -0.02    -0.00   0.00  -0.00     0.04  -0.03   0.05
  26   1    -0.02   0.01  -0.02    -0.00   0.00  -0.00     0.05  -0.01   0.03
  27   1    -0.02   0.01  -0.00    -0.00   0.00  -0.00     0.03  -0.01  -0.00
  28   1     0.00  -0.01   0.06     0.00  -0.00   0.01    -0.01   0.02  -0.14
  29   1    -0.02  -0.00  -0.01    -0.00   0.00  -0.00     0.04   0.00   0.01
[...]
  33   1    -0.00  -0.00   0.00    -0.04  -0.05   0.06     0.00   0.00  -0.00
  34   1     0.00   0.00  -0.00    -0.01  -0.01  -0.00    -0.00  -0.00   0.00
  35   1    -0.00   0.00   0.00    -0.01   0.02   0.00     0.00  -0.00  -0.00
  36   1     0.00  -0.00  -0.00     0.00  -0.00   0.08    -0.00   0.00   0.00
  37   1     0.00  -0.00   0.01    -0.00   0.00   0.00    -0.01   0.01  -0.01
  38   1    -0.02   0.03  -0.00     0.01  -0.02   0.00     0.16  -0.22   0.03
  39   1     0.00  -0.00  -0.00     0.00  -0.00   0.00    -0.02   0.03  -0.00
  40   1    -0.00  -0.00  -0.00    -0.00   0.00   0.00     0.00   0.00   0.00
  41   1    -0.00   0.00  -0.00    -0.00   0.00  -0.00     0.00  -0.00  -0.00
                    103                    104                    105
                        a                      a                      a 
 Frequencies --  2974.1320              2981.8088              3021.4901
 Red. masses --     1.7097                 1.7332                 1.7688
 Frc consts  --     0.0000                 0.0000                 0.0000
 IR Inten    --    18.4297                 9.1174                36.1356
 Raman Activ --     0.0000                 0.0000                 0.0000
 Depolar     --     0.0000                 0.0000                 0.0000
 Atom AN      X      Y      Z        X      Y      Z        X      Y      Z
   1   6     0.00  -0.00  -0.00    -0.00  -0.00   0.00     0.00   0.00   0.00
   2   6    -0.00   0.00   0.00     0.00  -0.00  -0.00    -0.00   0.00   0.00
   3   8    -0.00  -0.00   0.00     0.00  -0.00  -0.00    -0.00   0.00   0.00
   4  15    -0.00   0.00  -0.00     0.00   0.00   0.00     0.00  -0.00  -0.00
   5  16    -0.00   0.00   0.00     0.00   0.00   0.00    -0.00  -0.00  -0.00
   6   8     0.00  -0.00   0.00    -0.01  -0.00   0.00     0.00   0.00  -0.00
   7   6     0.00   0.00  -0.00    -0.11  -0.21   0.09     0.00   0.00  -0.00
   8   6     0.00  -0.00   0.00     0.02   0.03  -0.01     0.00   0.00  -0.00
   9  16    -0.00   0.00   0.00     0.00   0.00   0.00    -0.00  -0.00  -0.00
  10   6    -0.03   0.05  -0.04    -0.00   0.00  -0.00    -0.11  -0.04  -0.03
  11  16     0.00   0.00  -0.00    -0.00  -0.00  -0.00    -0.00  -0.00   0.00
  12  15     0.00   0.00  -0.00     0.00   0.00   0.00     0.00   0.00   0.00
  13  16     0.00   0.00   0.00    -0.00  -0.00   0.00    -0.00  -0.00   0.00
  14   8    -0.00  -0.00   0.00    -0.00  -0.00   0.00    -0.00  -0.00  -0.00
  15   6     0.00   0.00   0.01    -0.00  -0.00   0.00     0.00   0.00   0.00
  16   6    -0.00  -0.00  -0.00     0.00   0.00  -0.00     0.00  -0.00   0.00
  17   8    -0.00  -0.01  -0.00    -0.00  -0.00  -0.00    -0.00  -0.00  -0.00
  18   6     0.14  -0.19   0.02    -0.00   0.00  -0.00     0.02  -0.03   0.01
  19   6    -0.01   0.02  -0.00    -0.00   0.00   0.00     0.13  -0.19   0.04
  20   1    -0.00  -0.00   0.00     0.00   0.00  -0.00    -0.00  -0.00   0.00
  21   1    -0.00   0.00   0.00     0.00  -0.00  -0.00     0.00  -0.00  -0.00
  22   1     0.00  -0.00  -0.00     0.00   0.00   0.00    -0.00  -0.00  -0.00
  23   1     0.02  -0.01  -0.01    -0.00   0.00   0.00     0.00  -0.00  -0.00
  24   1    -0.00   0.00  -0.00     0.00   0.00   0.00     0.00   0.00   0.00
  25   1     0.00  -0.00  -0.00    -0.01  -0.04   0.00    -0.00  -0.00  -0.00
  26   1    -0.00  -0.00   0.00     0.43   0.79  -0.32    -0.00  -0.00   0.00
  27   1     0.00   0.00  -0.00    -0.05  -0.10   0.04    -0.00  -0.01   0.00
  28   1    -0.00   0.00  -0.00    -0.02   0.01  -0.00    -0.00   0.00  -0.00
  29   1     0.00   0.00   0.00     0.01  -0.01  -0.01     0.00  -0.00  -0.00
  30   1     0.15  -0.16   0.17     0.01  -0.01   0.01     0.02  -0.04   0.03
  31   1    -0.04  -0.01  -0.01     0.00   0.00   0.00     0.36   0.16   0.08
  32   1    -0.00   0.00  -0.02    -0.00   0.00  -0.00     0.00  -0.00  -0.00
  33   1    -0.00  -0.00   0.00     0.00   0.00  -0.00    -0.00  -0.00   0.00
  34   1     0.00   0.00  -0.00    -0.00  -0.00   0.00    -0.00  -0.00   0.00
  35   1    -0.00   0.00   0.00     0.00  -0.00  -0.00    -0.00   0.00   0.00
  36   1    -0.00  -0.00   0.00     0.00   0.00   0.00     0.00  -0.00  -0.01
  37   1     0.02  -0.04   0.04    -0.00  -0.00   0.00     0.00   0.00  -0.01
  38   1    -0.53   0.75  -0.09     0.00  -0.00   0.00    -0.06   0.08  -0.01
  39   1     0.06  -0.09   0.01     0.00  -0.00   0.00    -0.48   0.71  -0.10
  40   1    -0.01  -0.01  -0.01    -0.00   0.00   0.00     0.01  -0.03   0.00
  41   1    -0.00   0.00   0.01    -0.00   0.00  -0.00     0.02  -0.01  -0.05
                    106                    107                    108
                        a                      a                      a 
 Frequencies --  3021.5222              3027.6846              3033.4508
 Red. masses --     1.8330                 1.7662                 1.7382
 Frc consts  --     0.0000                 0.0000                 0.0000
 IR Inten    --    12.4237                38.8001                33.5956
 Raman Activ --     0.0000                 0.0000                 0.0000
 Depolar     --     0.0000                 0.0000                 0.0000
 Atom AN      X      Y      Z        X      Y      Z        X      Y      Z
   1   6     0.00  -0.00  -0.00    -0.01   0.01   0.00    -0.16   0.14   0.14
   2   6    -0.00   0.00   0.00    -0.00   0.00   0.00    -0.02   0.02   0.02
   3   8     0.00  -0.00   0.00     0.00  -0.00   0.00    -0.00  -0.00   0.00
   4  15    -0.00   0.00   0.00    -0.00   0.00  -0.00    -0.00   0.00  -0.00
   5  16     0.00   0.00   0.00     0.00  -0.00   0.00    -0.00  -0.00   0.00
   6   8    -0.00  -0.00   0.00     0.00   0.00   0.00     0.00   0.00  -0.00
   7   6    -0.00  -0.00   0.00     0.02   0.04  -0.01    -0.00  -0.00   0.00
   8   6     0.00   0.00  -0.00     0.10   0.23  -0.06    -0.01  -0.01   0.01
   9  16     0.00   0.00   0.00    -0.00   0.00  -0.00    -0.00   0.00   0.00
  10   6     0.23   0.08   0.07    -0.00  -0.00  -0.00     0.00   0.00   0.00
  11  16     0.00   0.00  -0.00    -0.00  -0.00  -0.00    -0.00   0.00  -0.00
  12  15     0.00   0.00   0.00     0.00  -0.00   0.00     0.00  -0.00   0.00
  13  16    -0.00  -0.00  -0.00    -0.00   0.00  -0.00     0.00  -0.00  -0.00
  14   8    -0.00  -0.00   0.00    -0.00   0.00   0.00    -0.00   0.00  -0.00
  15   6     0.00   0.00   0.00    -0.00  -0.00   0.00    -0.00   0.00  -0.00
  16   6     0.00   0.00   0.00    -0.00  -0.00   0.00     0.00   0.00  -0.01
  17   8    -0.00  -0.00  -0.00     0.00   0.00  -0.00    -0.00   0.00  -0.00
  18   6     0.01  -0.01   0.00    -0.00   0.00  -0.00     0.00  -0.00   0.00
  19   6     0.06  -0.09   0.02    -0.00   0.00  -0.00     0.00  -0.00   0.00
  20   1     0.00  -0.00  -0.00    -0.01  -0.00   0.01    -0.02   0.01   0.03
  21   1    -0.00   0.00   0.00     0.04  -0.03  -0.04     0.62  -0.50  -0.53
  22   1     0.00   0.00   0.00     0.01   0.01   0.02    -0.04  -0.01  -0.00
  23   1     0.00  -0.00  -0.00     0.01  -0.00  -0.01     0.05  -0.04  -0.04
  24   1    -0.00  -0.00  -0.00     0.00   0.00   0.00    -0.01  -0.00  -0.01
  25   1     0.00   0.00   0.00     0.01  -0.01  -0.01    -0.00   0.00   0.00
  26   1     0.00   0.00  -0.00    -0.06  -0.10   0.04     0.00   0.00  -0.00
  27   1    -0.01  -0.02   0.01    -0.41  -0.81   0.29     0.03   0.06  -0.02
  28   1    -0.00   0.00  -0.00     0.01   0.03  -0.01     0.01  -0.00   0.00
  29   1    -0.00   0.00   0.00     0.04  -0.03  -0.06     0.01  -0.02  -0.02
  30   1    -0.04   0.08  -0.07     0.00  -0.00   0.00    -0.00   0.00  -0.00
  31   1    -0.77  -0.35  -0.16     0.01   0.00   0.00    -0.01  -0.00  -0.00
  32   1     0.00  -0.00  -0.00    -0.00   0.00  -0.00    -0.00   0.00   0.00
  33   1    -0.00  -0.00   0.00    -0.00   0.00  -0.00     0.00   0.00  -0.00
  34   1    -0.00  -0.00   0.00     0.00   0.00  -0.00    -0.00  -0.00   0.00
  35   1    -0.00   0.00   0.00    -0.00   0.00   0.00     0.00  -0.00  -0.00
  36   1     0.00  -0.00  -0.01    -0.00  -0.00   0.00    -0.00   0.00   0.02
  37   1     0.00   0.00  -0.01    -0.00  -0.00   0.00    -0.00  -0.00   0.00
  38   1    -0.03   0.04  -0.01     0.00  -0.00   0.00    -0.00   0.00   0.00
  39   1    -0.23   0.34  -0.05     0.01  -0.01   0.00    -0.00   0.00   0.00
  40   1     0.01  -0.02   0.00    -0.00  -0.00  -0.00    -0.00  -0.00  -0.00
  41   1     0.01  -0.01  -0.02    -0.00   0.00  -0.00     0.00   0.00  -0.01
                    109                    110                    111
                        a                      a                      a 
 Frequencies --  3039.0412              3047.6044              3048.9375
 Red. masses --     1.7715                 1.6044                 1.6004
 Frc consts  --     0.0000                 0.0000                 0.0000
 IR Inten    --    30.7950                13.6989                14.9951
 Raman Activ --     0.0000                 0.0000                 0.0000
 Depolar     --     0.0000                 0.0000                 0.0000
 Atom AN      X      Y      Z        X      Y      Z        X      Y      Z
   1   6    -0.00   0.00   0.00     0.00  -0.01   0.00    -0.01  -0.00  -0.00
   2   6    -0.00   0.00   0.00     0.00  -0.00  -0.00    -0.00  -0.00  -0.00
   3   8    -0.00  -0.00   0.00    -0.00   0.00  -0.00     0.00   0.00  -0.00
   4  15    -0.00   0.00  -0.00     0.00   0.00   0.00    -0.00   0.00   0.00
   5  16    -0.00   0.00   0.00     0.00   0.00  -0.00     0.00   0.00  -0.00
   6   8    -0.00   0.00   0.00     0.00  -0.00  -0.00     0.00   0.00   0.00
   7   6    -0.00  -0.00   0.00    -0.00   0.01   0.01     0.00  -0.00  -0.00
   8   6    -0.00  -0.00   0.00    -0.05   0.17   0.15     0.00  -0.01  -0.01
   9  16     0.00  -0.00   0.00     0.00   0.00   0.00    -0.00   0.00  -0.00
  10   6     0.00   0.00  -0.00     0.00   0.00   0.00    -0.00  -0.00   0.00
  11  16     0.00   0.00   0.00     0.00   0.00   0.00     0.00   0.00  -0.00
  12  15     0.00  -0.00  -0.00    -0.00  -0.00  -0.00     0.00   0.00  -0.00
  13  16    -0.00   0.00   0.00     0.00   0.00   0.00    -0.00   0.00  -0.00
  14   8    -0.00   0.00   0.00     0.00   0.00   0.00    -0.00  -0.00   0.00
  15   6    -0.00  -0.00   0.03    -0.00  -0.00   0.00     0.00   0.00   0.00
  16   6    -0.02  -0.03   0.26    -0.00  -0.00   0.00     0.00  -0.00   0.00
  17   8     0.00  -0.00   0.00     0.00   0.00   0.00    -0.00   0.00   0.00
  18   6     0.00   0.00   0.00     0.00   0.00  -0.00     0.00   0.01  -0.01
  19   6    -0.00   0.00   0.01     0.00   0.00  -0.01     0.03   0.09  -0.21
  20   1    -0.00   0.00   0.00     0.01   0.01  -0.01     0.00   0.00  -0.00
  21   1     0.02  -0.01  -0.01    -0.02   0.02   0.02     0.00  -0.01  -0.01
  22   1     0.00   0.00   0.00    -0.01  -0.01  -0.01     0.02   0.02   0.02
  23   1     0.00  -0.00  -0.00    -0.00   0.00   0.00    -0.00   0.00  -0.00
  24   1    -0.00  -0.00  -0.00    -0.00  -0.00  -0.00     0.00   0.00   0.00
  25   1    -0.00   0.00   0.00     0.01  -0.03  -0.02    -0.00   0.00   0.00
  26   1     0.00   0.00  -0.00    -0.00  -0.01   0.00     0.00   0.00  -0.00
  27   1     0.00   0.00  -0.00     0.03   0.09  -0.01    -0.00  -0.00   0.00
  28   1    -0.00  -0.00  -0.00    -0.16   0.04   0.01     0.00  -0.00  -0.00
  29   1    -0.00   0.00   0.00     0.30  -0.72  -0.55    -0.01   0.03   0.02
  30   1     0.00  -0.00   0.00    -0.00   0.00  -0.00    -0.00   0.00  -0.00
  31   1    -0.00  -0.00   0.00    -0.00  -0.00  -0.00     0.00   0.00   0.00
  32   1     0.00  -0.00  -0.08    -0.00  -0.00  -0.00     0.00  -0.00  -0.00
  33   1     0.01   0.01  -0.00    -0.00  -0.00   0.00    -0.00  -0.00   0.00
  34   1     0.06   0.08  -0.00     0.01   0.01  -0.00    -0.01  -0.01   0.01
  35   1    -0.01   0.01   0.04    -0.00   0.00   0.00    -0.01   0.02   0.01
  36   1     0.01   0.00  -0.95    -0.00  -0.00  -0.00     0.00  -0.00  -0.02
  37   1    -0.00  -0.00   0.00     0.00  -0.00   0.00     0.00  -0.01   0.04
  38   1    -0.00   0.00   0.00     0.00  -0.00  -0.00     0.01  -0.01  -0.00
  39   1     0.01  -0.01   0.00    -0.00   0.00  -0.00    -0.03   0.06  -0.04
  40   1    -0.00  -0.01  -0.00    -0.00  -0.00  -0.00    -0.07  -0.12  -0.13
  41   1     0.00   0.01  -0.02    -0.00  -0.01   0.03    -0.02  -0.27   0.91
                    112                    113                    114
                        a                      a                      a 
 Frequencies --  3051.8221              3053.0696              3054.5697
 Red. masses --     1.6242                 1.6483                 1.8085
 Frc consts  --     0.0000                 0.0000                 0.0000
 IR Inten    --    20.5621                15.0147                 8.0387
 Raman Activ --     0.0000                 0.0000                 0.0000
 Depolar     --     0.0000                 0.0000                 0.0000
 Atom AN      X      Y      Z        X      Y      Z        X      Y      Z
   1   6     0.01   0.01   0.01     0.11   0.12   0.17     0.01   0.01   0.01
   2   6     0.00   0.00   0.00     0.01   0.01   0.01     0.00   0.00   0.00
   3   8    -0.00   0.00  -0.00    -0.00   0.00   0.00    -0.00   0.00  -0.00
   4  15     0.00  -0.00  -0.00     0.00  -0.00  -0.00     0.00   0.00  -0.00
   5  16    -0.00   0.00   0.00    -0.00   0.00   0.00     0.00  -0.00  -0.00
   6   8    -0.00   0.00   0.00    -0.00   0.00   0.00     0.00  -0.00  -0.00
   7   6     0.00   0.00   0.00     0.00  -0.00  -0.00    -0.00  -0.00   0.00
   8   6     0.01   0.00   0.00     0.04  -0.01  -0.01    -0.03   0.01  -0.00
   9  16     0.00  -0.00  -0.00     0.00   0.00   0.00    -0.00  -0.00  -0.00
  10   6    -0.00  -0.00  -0.00     0.00  -0.00   0.00     0.00   0.00   0.00
  11  16     0.00   0.00  -0.00     0.00   0.00   0.00     0.00  -0.00  -0.00
  12  15     0.00   0.00   0.00    -0.00  -0.00  -0.00    -0.00   0.00  -0.00
  13  16    -0.00   0.00  -0.00     0.00  -0.00   0.00    -0.00   0.00  -0.00
  14   8    -0.00  -0.00  -0.00     0.00   0.00   0.00    -0.00  -0.00   0.00
  15   6     0.01   0.01  -0.01    -0.00  -0.00   0.00     0.00   0.00  -0.00
  16   6     0.15   0.17  -0.06    -0.01  -0.01   0.00     0.02   0.00  -0.01
  17   8     0.00  -0.00  -0.00     0.00   0.00   0.00    -0.00   0.00   0.00
  18   6     0.00   0.00   0.00    -0.00   0.00  -0.00     0.00  -0.01  -0.01
  19   6     0.01   0.02   0.02     0.00   0.01   0.00    -0.09  -0.17  -0.19
  20   1     0.01   0.01  -0.00     0.09   0.10  -0.05     0.01   0.01  -0.01
  21   1    -0.00   0.00   0.00    -0.01   0.03   0.04     0.00   0.00   0.00
  22   1    -0.03  -0.03  -0.03    -0.47  -0.56  -0.60    -0.03  -0.04  -0.04
  23   1     0.00   0.00   0.00     0.01  -0.00  -0.00     0.00  -0.00  -0.00
  24   1    -0.00  -0.00  -0.00    -0.02  -0.02  -0.03    -0.00  -0.00  -0.00
  25   1     0.00  -0.00  -0.00    -0.00   0.00   0.00     0.00  -0.00  -0.00
  26   1    -0.00  -0.00   0.00    -0.00  -0.00   0.00     0.00   0.00  -0.00
  27   1     0.00  -0.00   0.00    -0.01  -0.02   0.01    -0.00  -0.00   0.00
  28   1    -0.03   0.00  -0.00    -0.14   0.01  -0.01     0.09  -0.01   0.01
  29   1     0.00  -0.01  -0.00    -0.01   0.03   0.02     0.00  -0.01  -0.01
  30   1     0.00  -0.00   0.00    -0.00   0.00  -0.00    -0.00   0.00  -0.00
  31   1     0.00   0.00   0.00    -0.00  -0.00  -0.00    -0.00  -0.00  -0.00
  32   1     0.00   0.00   0.00    -0.00   0.00  -0.00     0.00   0.00  -0.00
  33   1    -0.02  -0.03   0.02     0.00   0.00  -0.00    -0.00  -0.00   0.00
  34   1    -0.55  -0.71   0.31     0.04   0.05  -0.02    -0.05  -0.06   0.03
  35   1    -0.02   0.10   0.02     0.00  -0.01  -0.00    -0.02   0.05   0.02
  36   1     0.02   0.02  -0.12    -0.00  -0.00   0.01     0.00   0.00  -0.02
  37   1     0.00   0.00  -0.00    -0.00  -0.00   0.00     0.00  -0.01   0.01
  38   1     0.00  -0.00   0.00     0.00  -0.00   0.00    -0.01   0.01  -0.00
  39   1     0.01  -0.01   0.00     0.00   0.00   0.00    -0.02  -0.01  -0.03
  40   1    -0.03  -0.06  -0.05    -0.02  -0.04  -0.03     0.34   0.69   0.54
  41   1     0.00   0.01  -0.03    -0.00  -0.01   0.03    -0.01  -0.07   0.15
                    115                    116                    117
                        a                      a                      a 
 Frequencies --  3054.6708              3058.0694              3061.8951
 Red. masses --     1.7853                 1.7773                 1.7907
 Frc consts  --     0.0000                 0.0000                 0.0000
 IR Inten    --     9.4118                11.2902                10.9979
 Raman Activ --     0.0000                 0.0000                 0.0000
 Depolar     --     0.0000                 0.0000                 0.0000
 Atom AN      X      Y      Z        X      Y      Z        X      Y      Z
   1   6    -0.02  -0.01  -0.02    -0.00   0.00  -0.00     0.17   0.18  -0.11
   2   6    -0.00  -0.00  -0.00    -0.00   0.00   0.00     0.01   0.00  -0.00
   3   8     0.00  -0.00   0.00    -0.00  -0.00   0.00    -0.00  -0.00  -0.00
   4  15    -0.00  -0.00  -0.00    -0.00   0.00  -0.00     0.00   0.00   0.00
   5  16    -0.00  -0.00  -0.00     0.00  -0.00   0.00    -0.00   0.00   0.00
   6   8    -0.00   0.00   0.00    -0.00  -0.00   0.00     0.00  -0.00  -0.00
   7   6     0.01  -0.00  -0.00    -0.00  -0.00   0.00    -0.00  -0.00   0.00
   8   6     0.26  -0.05  -0.00    -0.00  -0.00  -0.00    -0.00   0.00   0.00
   9  16    -0.00  -0.00  -0.00     0.00  -0.00   0.00    -0.00   0.00  -0.00
  10   6    -0.00  -0.00  -0.00     0.00   0.00   0.00     0.00   0.00   0.00
  11  16    -0.00  -0.00   0.00     0.00  -0.00  -0.00     0.00   0.00  -0.00
  12  15     0.00   0.00   0.00    -0.00  -0.00   0.00    -0.00   0.00  -0.00
  13  16     0.00   0.00  -0.00     0.00   0.00   0.00    -0.00   0.00  -0.00
  14   8     0.00   0.00   0.00     0.00   0.00   0.00     0.00  -0.00   0.00
  15   6    -0.00  -0.00   0.00    -0.00  -0.01  -0.01    -0.00  -0.00   0.00
  16   6    -0.00  -0.01  -0.00     0.08  -0.24  -0.08     0.00   0.00   0.00
  17   8    -0.00   0.00   0.00     0.00  -0.00  -0.00     0.00   0.00   0.00
  18   6     0.00  -0.00  -0.00    -0.00   0.00   0.00    -0.00   0.00  -0.00
  19   6    -0.01  -0.02  -0.02     0.00   0.01   0.01    -0.00  -0.00  -0.00
  20   1    -0.02  -0.02   0.01    -0.00  -0.00   0.00    -0.56  -0.60   0.49
  21   1     0.01  -0.01  -0.01     0.00  -0.00  -0.00     0.01   0.03  -0.00
  22   1     0.07   0.08   0.09     0.00   0.00   0.00    -0.04  -0.06  -0.10
  23   1     0.00  -0.00  -0.00     0.00  -0.00  -0.00    -0.01   0.01   0.01
  24   1     0.00   0.00   0.00    -0.00  -0.00  -0.00    -0.01  -0.01  -0.01
  25   1    -0.00   0.01   0.01    -0.00   0.00   0.00    -0.00  -0.00   0.00
  26   1    -0.01  -0.02   0.01     0.00   0.00  -0.00     0.00   0.00  -0.00
  27   1     0.03  -0.01  -0.00     0.00   0.00  -0.00     0.00   0.01  -0.00
  28   1    -0.93   0.08  -0.07     0.01  -0.00   0.00     0.00   0.00   0.00
  29   1    -0.01   0.10   0.08    -0.00   0.00   0.00     0.01  -0.01  -0.01
  30   1     0.00  -0.00   0.00    -0.00   0.00  -0.00    -0.00   0.00  -0.00
  31   1     0.00   0.00   0.00    -0.00  -0.00  -0.00    -0.00  -0.00  -0.00
  32   1     0.00  -0.00   0.00     0.00  -0.00   0.02     0.00   0.00  -0.00
  33   1     0.00   0.00  -0.00     0.01   0.01  -0.01     0.00   0.00  -0.00
  34   1     0.01   0.01  -0.01     0.06   0.04  -0.04    -0.00  -0.00   0.00
  35   1    -0.00   0.01   0.00    -0.35   0.83   0.32     0.00  -0.00  -0.00
  36   1    -0.00  -0.00   0.00     0.01  -0.03   0.02     0.00   0.00  -0.00
  37   1     0.00  -0.00   0.00    -0.00   0.00  -0.00     0.00  -0.00   0.00
  38   1    -0.00   0.00  -0.00     0.00  -0.00   0.00     0.00  -0.00  -0.00
  39   1    -0.00  -0.00  -0.00     0.00  -0.00   0.00     0.00  -0.00  -0.00
  40   1     0.04   0.08   0.06    -0.01  -0.03  -0.02     0.00   0.01   0.00
  41   1    -0.00  -0.01   0.01     0.00   0.01  -0.02    -0.00  -0.00   0.01
