
                                 *****************
                                 * O   R   C   A *
                                 *****************

                                            #,                                       
                                            ###                                      
                                            ####                                     
                                            #####                                    
                                            ######                                   
                                           ########,                                 
                                     ,,################,,,,,                         
                               ,,#################################,,                 
                          ,,##########################################,,             
                       ,#########################################, ''#####,          
                    ,#############################################,,   '####,        
                  ,##################################################,,,,####,       
                ,###########''''           ''''###############################       
              ,#####''   ,,,,##########,,,,          '''####'''          '####       
            ,##' ,,,,###########################,,,                        '##       
           ' ,,###''''                  '''############,,,                           
         ,,##''                                '''############,,,,        ,,,,,,###''
      ,#''                                            '''#######################'''  
     '                                                          ''''####''''         
             ,#######,   #######,   ,#######,      ##                                
            ,#'     '#,  ##    ##  ,#'     '#,    #''#        ,####,   ,####,        
            ##       ##  ##   ,#'  ##            #'  '#       #'       #'  '#        
            ##       ##  #######   ##           ,######,      #####,   #    #        
            '#,     ,#'  ##    ##  '#,     ,#' ,#      #,     #,   #   #,  ,#        
             '#######'   ##     ##  '#######'  #'      '#     '####' # '####'        



                #########################################################
                #                        -***-                          #
                #          Department of theory and spectroscopy        #
                #                                                       #
                #                      Frank Neese                      #
                #                                                       #
                #     Directorship, Architecture, Infrastructure        #
                #                    SHARK, DRIVERS                     #
                #        Core code/Algorithms in most modules           #
                #                                                       #
                #        Max Planck Institute fuer Kohlenforschung      #
                #                Kaiser Wilhelm Platz 1                 #
                #                 D-45470 Muelheim/Ruhr                 #
                #                      Germany                          #
                #                                                       #
                #                  All rights reserved                  #
                #                        -***-                          #
                #########################################################


                         Program Version 6.0.0  -   RELEASE  -


 With contributions from (in alphabetic order):
   Daniel Aravena         : Magnetic Suceptibility
   Michael Atanasov       : Ab Initio Ligand Field Theory (pilot matlab implementation)
   Alexander A. Auer      : GIAO ZORA, VPT2 properties, NMR spectrum
   Ute Becker             : All parallelization in ORCA, NUMFREQ, NUMCALC
   Giovanni Bistoni       : ED, misc. LED, open-shell LED, HFLD
   Martin Brehm           : Molecular dynamics
   Dmytro Bykov           : pre 5.0 version of the SCF Hessian
   Marcos Casanova-Páez   : Triplet and SCS-CIS(D). UHF-(DLPNO)-IP/EA/STEOM-CCSD. UHF-CVS-IP/STEOM-CCSD
   Vijay G. Chilkuri      : MRCI spin determinant printing, contributions to CSF-ICE
   Pauline Colinet        : FMM embedding
   Dipayan Datta          : RHF DLPNO-CCSD density
   Achintya Kumar Dutta   : EOM-CC, STEOM-CC
   Nicolas Foglia         : Exact transition moments, OPA infrastructure, MCD improvements
   Dmitry Ganyushin       : Spin-Orbit,Spin-Spin,Magnetic field MRCI
   Miquel Garcia          : C-PCM and meta-GGA Hessian, CCSD/C-PCM, Gaussian charge scheme
   Tiago L. C. Gouveia    : GS-ROHF, GS-ROCIS
   Yang Guo               : DLPNO-NEVPT2, F12-NEVPT2, CIM, IAO-localization
   Andreas Hansen         : Spin unrestricted coupled pair/coupled cluster methods
   Ingolf Harden          : AUTO-CI MPn and infrastructure 
   Benjamin Helmich-Paris : MC-RPA, TRAH-(SCF,CASSCF), AVAS, COSX integrals, SCF dyn. polar.
   Lee Huntington         : MR-EOM, pCC
   Robert Izsak           : Overlap fitted RIJCOSX, COSX-SCS-MP3, EOM
   Riya Kayal             : Wick's Theorem for AUTO-CI, AUTO-CI UHF-CCSDT
   Emily Kempfer          : AUTO-CI, RHF CISDT and CCSDT
   Christian Kollmar      : KDIIS, OOCD, Brueckner-CCSD(T), CCSD density, CASPT2, CASPT2-K, improved NEVPT2
   Axel Koslowski         : Symmetry handling
   Simone Kossmann        : Meta GGA functionals, TD-DFT gradient, OOMP2, (MP2 Hessian; deprecated post 5.0)
   Lucas Lang             : DCDCAS
   Marvin Lechner         : AUTO-CI (C++ implementation), FIC-MRCC
   Spencer Leger          : CASSCF response
   Dagmar Lenk            : GEPOL surface, SMD, ORCA-2-JSON
   Dimitrios Liakos       : Extrapolation schemes; Compound Job, initial MDCI parallelization
   Dimitrios Manganas     : Further ROCIS development; embedding schemes. LFT, Crystal Embedding
   Dimitrios Pantazis     : SARC Basis sets
   Anastasios Papadopoulos: AUTO-CI, single reference methods and gradients
   Taras Petrenko         : pre 6.0 DFT Hessian and TD-DFT gradient, (ASA, deprecated), ECA, 1-Electron XAS/XES, NRVS
   Peter Pinski           : DLPNO-MP2, DLPNO-MP2 Gradient
   Christoph Reimann      : Effective Core Potentials
   Marius Retegan         : Local ZFS, SOC
   Christoph Riplinger    : Optimizer, TS searches, QM/MM, DLPNO-CCSD(T), (RO)-DLPNO pert. Triples
   Michael Roemelt        : Original ROCIS implementation
   Masaaki Saitow         : Open-shell DLPNO-CCSD energy and density
   Barbara Sandhoefer     : DKH picture change effects
   Kantharuban Sivalingam : CASSCF convergence/infrastructure, NEVPT2 and variants, FIC-MRCI
   Bernardo de Souza      : ESD, SOC TD-DFT
   Georgi Stoychev        : AutoAux, RI-MP2 NMR, DLPNO-MP2 response, X2C
   Van Anh Tran           : RI-MP2 g-tensors
   Willem Van den Heuvel  : Paramagnetic NMR
   Zikuan Wang            : NOTCH, Electric field optimization 
   Frank Wennmohs         : Technical directorship and infrastructure
   Hang Xu                : AUTO-CI-Response properties 


 We gratefully acknowledge several colleagues who have allowed us to
 interface, adapt or use parts of their codes:
   Stefan Grimme, W. Hujo, H. Kruse, P. Pracht,  : VdW corrections, initial TS optimization,
                  C. Bannwarth, S. Ehlert,         DFT functionals, gCP, sTDA/sTD-DF
                  L. Wittmann, M. Mueller
   Ed Valeev, F. Pavosevic, A. Kumar             : LibInt (2-el integral package), F12 methods
   Garnet Chan, S. Sharma, J. Yang, R. Olivares  : DMRG
   Ulf Ekstrom                                   : XCFun DFT Library
   Mihaly Kallay                                 : mrcc  (arbitrary order and MRCC methods)
   Frank Weinhold                                : gennbo (NPA and NBO analysis)
   Simon Mueller                                 : openCOSMO-RS
   Christopher J. Cramer and Donald G. Truhlar   : smd solvation model
   Lars Goerigk                                  : TD-DFT with DH, B97 family of functionals
   V. Asgeirsson, H. Jonsson                     : NEB implementation
   FAccTs GmbH                                   : IRC, NEB, NEB-TS, DLPNO-Multilevel, CI-OPT
                                                   MM, QMMM, 2- and 3-layer-ONIOM, Crystal-QMMM,
                                                   LR-CPCM, SF, NACMEs, symmetry and pop. for TD-DFT,
                                                   nearIR, NL-DFT gradient (VV10), updates on ESD,
                                                   ML-optimized integration grids, MBIS, APM,
                                                   GOAT, DOCKER, SOLVATOR, interface openCOSMO-RS
   S Lehtola, MJT Oliveira, MAL Marques          : LibXC Library
   Liviu Ungur et al                             : ANISO software


 Your calculation uses the libint2 library for the computation of 2-el integrals
 For citations please refer to: http://libint.valeyev.net

 Your ORCA version has been built with support for libXC version: 6.2.2
 For citations please refer to: https://libxc.gitlab.io

 This ORCA versions uses:
   CBLAS   interface :  Fast vector & matrix operations
   LAPACKE interface :  Fast linear algebra routines
   SCALAPACK package :  Parallel linear algebra routines
   Shared memory     :  Shared parallel matrices
   BLAS/LAPACK       :  OpenBLAS 0.3.27  USE64BITINT DYNAMIC_ARCH NO_AFFINITY SapphireRapids SINGLE_THREADED
        Core in use  :  SapphireRapids
   Copyright (c) 2011-2014, The OpenBLAS Project


Your calculation utilizes the geometrical counterpoise correction gCP
Please cite in your paper:
H.Kruse, S. Grimme J.Chem.Phys., 136, (2012), 154101 
   

Your calculation utilizes the atom-pairwise dispersion correction
based on EEQ partial charges (D4)


================================================================================

----- Orbital basis set information -----
Your calculation utilizes the basis: def2-SV(P)
   F. Weigend and R. Ahlrichs, Phys. Chem. Chem. Phys. 7, 3297 (2005).

----- AuxJ basis set information -----
Your calculation utilizes the auxiliary basis: def2/J
   F. Weigend, Phys. Chem. Chem. Phys. 8, 1057 (2006).

================================================================================
                                        WARNINGS
                       Please study these warnings very carefully!
================================================================================


================================================================================
                                       INPUT FILE
================================================================================
NAME = sp.inp
|  1> ! pbe def2-sv(p) def2/J RI DEFGRID1 loosescf d4 GCP(DFT/SV(P)) printgap
|  2> %output
|  3>     printlevel normal
|  4> end
|  5> * xyz 0 1
|  6> C 3.2351251985 -0.8667754669 -3.167014891
|  7> C 4.0937375432 -0.7352298489 -1.9273093615
|  8> O 3.5586408072 0.200646022 -0.9708204837
|  9> P 2.07250367 0.1966555241 -0.408928229
| 10> S 0.7112587892 1.0100534989 -1.5586319042
| 11> O 2.2249937282 1.066012318 0.8949747889
| 12> C 3.228160132 0.882288474 1.9244993427
| 13> C 2.6766275384 0.0782874723 3.0861316037
| 14> S 1.8525122807 -1.8483838964 0.1537344075
| 15> C 0.2015871718 -1.8360369932 0.8962078068
| 16> S -1.1383711785 -1.6062982678 -0.3152880144
| 17> P -1.9521797132 0.1933042034 0.4294842256
| 18> S -0.9247285324 1.1976163773 1.7544352649
| 19> O -3.3003492919 -0.4457579604 1.0243734175
| 20> C -4.0494774974 0.1815070387 2.0804203809
| 21> C -4.789541775 1.4131943722 1.5976186105
| 22> O -2.398302319 1.0958038102 -0.7913909115
| 23> C -3.336982504 0.6894147577 -1.8153717223
| 24> C -2.6409882396 -0.0005236697 -2.9714242521
| 25> H 3.0772922714 0.1072714696 -3.6243115519
| 26> H 3.7259428431 -1.5244885406 -3.8769942996
| 27> H 2.2628514271 -1.2843317346 -2.9081819755
| 28> H 5.0763839941 -0.3230406419 -2.1638020316
| 29> H 4.2042566232 -1.702094561 -1.4289140687
| 30> H 4.1076143288 0.4084992819 1.4846043755
| 31> H 3.4713753865 1.9002627294 2.2330226978
| 32> H 2.5478873497 -0.9657226365 2.8113697809
| 33> H 3.3699818961 0.140279515 3.9187400076
| 34> H 1.7163614906 0.4895859551 3.3911192507
| 35> H 0.137075989 -1.0371048521 1.6397252137
| 36> H 0.0815246799 -2.8164038834 1.3495942818
| 37> H -4.734279631 -0.5982098956 2.4165144651
| 38> H -3.3566200666 0.4433450231 2.8864842023
| 39> H -4.0754526521 2.1594670001 1.2489799286
| 40> H -5.4627936067 1.1606762027 0.7823972205
| 41> H -5.3621063542 1.8323933578 2.4190348943
| 42> H -4.0946686748 0.042874438 -1.3645249559
| 43> H -3.7875517111 1.6311736364 -2.1339173516
| 44> H -3.3337636847 -0.0875631534 -3.8023227626
| 45> H -1.7761065835 0.5829473775 -3.2794178168
| 46> H -2.3014623526 -0.9931954784 -2.6844558316
| 47> *
| 48> 
| 49>                          ****END OF INPUT****
================================================================================

                       ****************************
                       * Single Point Calculation *
                       ****************************

---------------------------------
CARTESIAN COORDINATES (ANGSTROEM)
---------------------------------
  C      3.235125   -0.866775   -3.167015
  C      4.093738   -0.735230   -1.927309
  O      3.558641    0.200646   -0.970820
  P      2.072504    0.196656   -0.408928
  S      0.711259    1.010053   -1.558632
  O      2.224994    1.066012    0.894975
  C      3.228160    0.882288    1.924499
  C      2.676628    0.078287    3.086132
  S      1.852512   -1.848384    0.153734
  C      0.201587   -1.836037    0.896208
  S     -1.138371   -1.606298   -0.315288
  P     -1.952180    0.193304    0.429484
  S     -0.924729    1.197616    1.754435
  O     -3.300349   -0.445758    1.024373
  C     -4.049477    0.181507    2.080420
  C     -4.789542    1.413194    1.597619
  O     -2.398302    1.095804   -0.791391
  C     -3.336983    0.689415   -1.815372
  C     -2.640988   -0.000524   -2.971424
  H      3.077292    0.107271   -3.624312
  H      3.725943   -1.524489   -3.876994
  H      2.262851   -1.284332   -2.908182
  H      5.076384   -0.323041   -2.163802
  H      4.204257   -1.702095   -1.428914
  H      4.107614    0.408499    1.484604
  H      3.471375    1.900263    2.233023
  H      2.547887   -0.965723    2.811370
  H      3.369982    0.140280    3.918740
  H      1.716361    0.489586    3.391119
  H      0.137076   -1.037105    1.639725
  H      0.081525   -2.816404    1.349594
  H     -4.734280   -0.598210    2.416514
  H     -3.356620    0.443345    2.886484
  H     -4.075453    2.159467    1.248980
  H     -5.462794    1.160676    0.782397
  H     -5.362106    1.832393    2.419035
  H     -4.094669    0.042874   -1.364525
  H     -3.787552    1.631174   -2.133917
  H     -3.333764   -0.087563   -3.802323
  H     -1.776107    0.582947   -3.279418
  H     -2.301462   -0.993195   -2.684456

----------------------------
CARTESIAN COORDINATES (A.U.)
----------------------------
  NO LB      ZA    FRAG     MASS         X           Y           Z
   0 C     6.0000    0    12.011    6.113501   -1.637968   -5.984791
   1 C     6.0000    0    12.011    7.736043   -1.389383   -3.642087
   2 O     8.0000    0    15.999    6.724857    0.379166   -1.834585
   3 P    15.0000    0    30.974    3.916464    0.371625   -0.772762
   4 S    16.0000    0    32.060    1.344084    1.908724   -2.945387
   5 O     8.0000    0    15.999    4.204629    2.014471    1.691257
   6 C     6.0000    0    12.011    6.100339    1.667284    3.636777
   7 C     6.0000    0    12.011    5.058093    0.147942    5.831944
   8 S    16.0000    0    32.060    3.500741   -3.492939    0.290516
   9 C     6.0000    0    12.011    0.380945   -3.469607    1.693587
  10 S    16.0000    0    32.060   -2.151210   -3.035464   -0.595808
  11 P    15.0000    0    30.974   -3.689085    0.365292    0.811608
  12 S    16.0000    0    32.060   -1.747484    2.263167    3.315402
  13 O     8.0000    0    15.999   -6.236756   -0.842360    1.935785
  14 C     6.0000    0    12.011   -7.652403    0.342999    3.931425
  15 C     6.0000    0    12.011   -9.050922    2.670550    3.019062
  16 O     8.0000    0    15.999   -4.532135    2.070769   -1.495512
  17 C     6.0000    0    12.011   -6.305983    1.302805   -3.430555
  18 C     6.0000    0    12.011   -4.990744   -0.000990   -5.615178
  19 H     1.0000    0     1.008    5.815240    0.202714   -6.848956
  20 H     1.0000    0     1.008    7.041012   -2.880866   -7.326457
  21 H     1.0000    0     1.008    4.276169   -2.427035   -5.495667
  22 H     1.0000    0     1.008    9.592975   -0.610458   -4.088993
  23 H     1.0000    0     1.008    7.944894   -3.216493   -2.700256
  24 H     1.0000    0     1.008    7.762266    0.771952    2.805496
  25 H     1.0000    0     1.008    6.559949    3.590976    4.219801
  26 H     1.0000    0     1.008    4.814809   -1.824951    5.312719
  27 H     1.0000    0     1.008    6.368343    0.265090    7.405345
  28 H     1.0000    0     1.008    3.243453    0.925183    6.408287
  29 H     1.0000    0     1.008    0.259036   -1.959844    3.098632
  30 H     1.0000    0     1.008    0.154059   -5.322232    2.550364
  31 H     1.0000    0     1.008   -8.946492   -1.130453    4.566551
  32 H     1.0000    0     1.008   -6.343093    0.837801    5.454665
  33 H     1.0000    0     1.008   -7.701489    4.080801    2.360230
  34 H     1.0000    0     1.008  -10.323184    2.193360    1.478516
  35 H     1.0000    0     1.008  -10.132913    3.462722    4.571313
  36 H     1.0000    0     1.008   -7.737802    0.081021   -2.578578
  37 H     1.0000    0     1.008   -7.157435    3.082471   -4.032519
  38 H     1.0000    0     1.008   -6.299900   -0.165470   -7.185349
  39 H     1.0000    0     1.008   -3.356355    1.101611   -6.197202
  40 H     1.0000    0     1.008   -4.349134   -1.876867   -5.072886

--------------------------------
INTERNAL COORDINATES (ANGSTROEM)
--------------------------------
 C      0   0   0     0.000000000000     0.00000000     0.00000000
 C      1   0   0     1.513733532680     0.00000000     0.00000000
 O      2   1   0     1.441201976118   112.91491449     0.00000000
 P      3   2   1     1.588817931838   125.47658939    51.48266754
 S      4   3   2     1.958678746421   116.19552692   279.29736048
 O      4   3   2     1.574546770674   101.58906914   161.28862131
 C      6   4   3     1.449143916747   125.82871522   310.28384660
 C      7   6   4     1.516573546629   111.07728716   262.72055607
 S      4   3   2     2.132409830515   101.08254862    49.32189717
 C      9   4   3     1.810241119266   101.28962961   176.39306168
 S     10   9   4     1.820986102987   113.52005506    70.59466252
 P     11  10   9     2.110814789358    99.00486321   240.95455503
 S     12  11  10     1.954429361249   118.33437936    12.92732358
 O     12  11  10     1.606192644975    96.60801205   252.00992408
 C     14  12  11     1.438711102438   122.37379816   156.57792101
 C     15  14  12     1.515864892392   112.00452355    72.75953878
 O     12  11  10     1.582424412119   108.82702933   142.55373437
 C     17  12  11     1.447345588514   124.64901083    57.14295311
 C     18  17  12     1.515546271592   111.69427609   270.80640100
 H      1   2   3     1.087565585816   110.41671529    55.23319325
 H      1   2   3     1.085154002067   109.38681395   175.76973826
 H      1   2   3     1.089341085884   110.18038824   295.66849270
 H      2   1   3     1.091523143522   111.46988519   244.03149043
 H      2   1   3     1.093361653998   110.72028867   121.25600774
 H      7   6   4     1.091523460576   109.05468350    26.39238913
 H      7   6   4     1.091151641762   103.70353014   143.37501168
 H      8   7   6     1.087209824611   111.01221840    72.03096049
 H      8   7   6     1.085274174089   108.96626361   191.99455208
 H      8   7   6     1.088253090661   109.58461661   311.29797878
 H     10   9   4     1.093285138083   109.73877641   309.04185257
 H     10   9   4     1.086781273796   105.40903047   188.67603935
 H     15  14  12     1.090812400577   103.96926475   193.72164282
 H     15  14  12     1.094691478755   108.37370891   310.68187347
 H     16  15  14     1.090135331559   109.77282009   297.59200122
 H     16  15  14     1.087023168809   110.63933625    57.87846051
 H     16  15  14     1.085487309080   109.28634362   178.27655193
 H     18  17  12     1.093327730003   108.89001429    34.15415686
 H     18  17  12     1.091509832270   103.41085069   151.27683675
 H     19  18  17     1.085313790481   109.10826910   192.50818171
 H     19  18  17     1.087804567868   109.68925647   312.45058587
 H     19  18  17     1.087669996872   110.95164880    72.21569903

---------------------------
INTERNAL COORDINATES (A.U.)
---------------------------
 C      0   0   0     0.000000000000     0.00000000     0.00000000
 C      1   0   0     2.860541816498     0.00000000     0.00000000
 O      2   1   0     2.723477038529   112.91491449     0.00000000
 P      3   2   1     3.002430767837   125.47658939    51.48266754
 S      4   3   2     3.701366415068   116.19552692   279.29736048
 O      4   3   2     2.975462181623   101.58906914   161.28862131
 C      6   4   3     2.738485131289   125.82871522   310.28384660
 C      7   6   4     2.865908665078   111.07728716   262.72055607
 S      4   3   2     4.029670584955   101.08254862    49.32189717
 C      9   4   3     3.420859951777   101.28962961   176.39306168
 S     10   9   4     3.441165028322   113.52005506    70.59466252
 P     11  10   9     3.988861871318    99.00486321   240.95455503
 S     12  11  10     3.693336240856   118.33437936    12.92732358
 O     12  11  10     3.035264217322    96.60801205   252.00992408
 C     14  12  11     2.718769969439   122.37379816   156.57792101
 C     15  14  12     2.864569502646   112.00452355    72.75953878
 O     12  11  10     2.990348766535   108.82702933   142.55373437
 C     17  12  11     2.735086783430   124.64901083    57.14295311
 C     18  17  12     2.863967396595   111.69427609   270.80640100
 H      1   2   3     2.055201109871   110.41671529    55.23319325
 H      1   2   3     2.050643877036   109.38681395   175.76973826
 H      1   2   3     2.058556318748   110.18038824   295.66849270
 H      2   1   3     2.062679810094   111.46988519   244.03149043
 H      2   1   3     2.066154091388   110.72028867   121.25600774
 H      7   6   4     2.062680409239   109.05468350    26.39238913
 H      7   6   4     2.061977773510   103.70353014   143.37501168
 H      8   7   6     2.054528818624   111.01221840    72.03096049
 H      8   7   6     2.050870969246   108.96626361   191.99455208
 H      8   7   6     2.056500305743   109.58461661   311.29797878
 H     10   9   4     2.066009497262   109.73877641   309.04185257
 H     10   9   4     2.053718974949   105.40903047   188.67603935
 H     15  14  12     2.061336700575   103.96926475   193.72164282
 H     15  14  12     2.068667095985   108.37370891   310.68187347
 H     16  15  14     2.060057225558   109.77282009   297.59200122
 H     16  15  14     2.054176090277   110.63933625    57.87846051
 H     16  15  14     2.051273736009   109.28634362   178.27655193
 H     18  17  12     2.066089984327   108.89001429    34.15415686
 H     18  17  12     2.062654655474   103.41085069   151.27683675
 H     19  18  17     2.050945833376   109.10826910   192.50818171
 H     19  18  17     2.055652720500   109.68925647   312.45058587
 H     19  18  17     2.055398418171   110.95164880    72.21569903

---------------------
BASIS SET INFORMATION
---------------------
There are 5 groups of distinct atoms

 Group   1 Type C   : 7s4p1d contracted to 3s2p1d pattern {511/31/1}
 Group   2 Type O   : 7s4p1d contracted to 3s2p1d pattern {511/31/1}
 Group   3 Type P   : 10s7p1d contracted to 4s3p1d pattern {5311/511/1}
 Group   4 Type S   : 10s7p1d contracted to 4s3p1d pattern {5311/511/1}
 Group   5 Type H   : 4s contracted to 2s pattern {31}

Atom   0C    basis set group =>   1
Atom   1C    basis set group =>   1
Atom   2O    basis set group =>   2
Atom   3P    basis set group =>   3
Atom   4S    basis set group =>   4
Atom   5O    basis set group =>   2
Atom   6C    basis set group =>   1
Atom   7C    basis set group =>   1
Atom   8S    basis set group =>   4
Atom   9C    basis set group =>   1
Atom  10S    basis set group =>   4
Atom  11P    basis set group =>   3
Atom  12S    basis set group =>   4
Atom  13O    basis set group =>   2
Atom  14C    basis set group =>   1
Atom  15C    basis set group =>   1
Atom  16O    basis set group =>   2
Atom  17C    basis set group =>   1
Atom  18C    basis set group =>   1
Atom  19H    basis set group =>   5
Atom  20H    basis set group =>   5
Atom  21H    basis set group =>   5
Atom  22H    basis set group =>   5
Atom  23H    basis set group =>   5
Atom  24H    basis set group =>   5
Atom  25H    basis set group =>   5
Atom  26H    basis set group =>   5
Atom  27H    basis set group =>   5
Atom  28H    basis set group =>   5
Atom  29H    basis set group =>   5
Atom  30H    basis set group =>   5
Atom  31H    basis set group =>   5
Atom  32H    basis set group =>   5
Atom  33H    basis set group =>   5
Atom  34H    basis set group =>   5
Atom  35H    basis set group =>   5
Atom  36H    basis set group =>   5
Atom  37H    basis set group =>   5
Atom  38H    basis set group =>   5
Atom  39H    basis set group =>   5
Atom  40H    basis set group =>   5
---------------------------------
AUXILIARY/J BASIS SET INFORMATION
---------------------------------
There are 5 groups of distinct atoms

 Group   1 Type C   : 12s5p4d2f1g contracted to 6s4p3d1f1g pattern {711111/2111/211/2/1}
 Group   2 Type O   : 12s5p4d2f1g contracted to 6s4p3d1f1g pattern {711111/2111/211/2/1}
 Group   3 Type P   : 14s5p5d2f1g contracted to 8s4p3d1f1g pattern {71111111/2111/311/2/1}
 Group   4 Type S   : 14s5p5d2f1g contracted to 8s4p3d1f1g pattern {71111111/2111/311/2/1}
 Group   5 Type H   : 5s2p1d contracted to 3s1p1d pattern {311/2/1}

Atom   0C    basis set group =>   1
Atom   1C    basis set group =>   1
Atom   2O    basis set group =>   2
Atom   3P    basis set group =>   3
Atom   4S    basis set group =>   4
Atom   5O    basis set group =>   2
Atom   6C    basis set group =>   1
Atom   7C    basis set group =>   1
Atom   8S    basis set group =>   4
Atom   9C    basis set group =>   1
Atom  10S    basis set group =>   4
Atom  11P    basis set group =>   3
Atom  12S    basis set group =>   4
Atom  13O    basis set group =>   2
Atom  14C    basis set group =>   1
Atom  15C    basis set group =>   1
Atom  16O    basis set group =>   2
Atom  17C    basis set group =>   1
Atom  18C    basis set group =>   1
Atom  19H    basis set group =>   5
Atom  20H    basis set group =>   5
Atom  21H    basis set group =>   5
Atom  22H    basis set group =>   5
Atom  23H    basis set group =>   5
Atom  24H    basis set group =>   5
Atom  25H    basis set group =>   5
Atom  26H    basis set group =>   5
Atom  27H    basis set group =>   5
Atom  28H    basis set group =>   5
Atom  29H    basis set group =>   5
Atom  30H    basis set group =>   5
Atom  31H    basis set group =>   5
Atom  32H    basis set group =>   5
Atom  33H    basis set group =>   5
Atom  34H    basis set group =>   5
Atom  35H    basis set group =>   5
Atom  36H    basis set group =>   5
Atom  37H    basis set group =>   5
Atom  38H    basis set group =>   5
Atom  39H    basis set group =>   5
Atom  40H    basis set group =>   5
------------------------------------------------------------------------------
                             ORCA STARTUP CALCULATIONS
                           -- RI-GTO INTEGRALS CHOSEN --
------------------------------------------------------------------------------
------------------------------------------------------------------------------
                   ___                                                        
                  /   \      - P O W E R E D   B Y -                         
                 /     \                                                     
                 |  |  |   _    _      __       _____    __    __             
                 |  |  |  | |  | |    /  \     |  _  \  |  |  /  |          
                  \  \/   | |  | |   /    \    | | | |  |  | /  /          
                 / \  \   | |__| |  /  /\  \   | |_| |  |  |/  /          
                |  |  |   |  __  | /  /__\  \  |    /   |      \           
                |  |  |   | |  | | |   __   |  |    \   |  |\   \          
                \     /   | |  | | |  |  |  |  | |\  \  |  | \   \       
                 \___/    |_|  |_| |__|  |__|  |_| \__\ |__|  \__/        
                                                                              
                      - O R C A' S   B I G   F R I E N D -                    
                                      &                                       
                       - I N T E G R A L  F E E D E R -                       
                                                                              
 v1 FN, 2020, v2 2021, v3 2022-2024                                           
------------------------------------------------------------------------------


----------------------
SHARK INTEGRAL PACKAGE
----------------------

Number of atoms                             ...     41
Number of basis functions                   ...    334
Number of shells                            ...    170
Maximum angular momentum                    ...      2
Integral batch strategy                     ... SHARK/LIBINT Hybrid
RI-J (if used) integral strategy            ... SPLIT-RIJ (Revised 2003 algorithm where possible)
Printlevel                                  ...      1
Contraction scheme used                     ... SEGMENTED contraction
Prescreening option                         ... SCHWARTZ
   Thresh                                   ... 1.000e-09
   Tcut                                     ... 1.000e-10
   Tpresel                                  ... 1.000e-10 
Coulomb Range Separation                    ... NOT USED
Exchange Range Separation                   ... NOT USED
Multipole approximations                    ... NOT USED
Finite Nucleus Model                        ... NOT USED
CABS basis                                  ... NOT available
Auxiliary Coulomb fitting basis             ... AVAILABLE
   # of basis functions in Aux-J            ...   1185
   # of shells in Aux-J                     ...    407
   Maximum angular momentum in Aux-J        ...      4
Auxiliary J/K fitting basis                 ... NOT available
Auxiliary Correlation fitting basis         ... NOT available
Auxiliary 'external' fitting basis          ... NOT available

Checking pre-screening integrals            ... done (  0.0 sec) Dimension = 170
Check shell pair data                       ... done (  0.0 sec)
Shell pair information
Shell pair cut-off parameter TPreSel        ...   1.0e-10
Total number of shell pairs                 ...     14535
Shell pairs after pre-screening             ...     10325
Total number of primitive shell pairs       ...     62501
Primitive shell pairs kept                  ...     25613
          la=0 lb=0:   3981 shell pairs
          la=1 lb=0:   3525 shell pairs
          la=1 lb=1:    815 shell pairs
          la=2 lb=0:   1300 shell pairs
          la=2 lb=1:    594 shell pairs
          la=2 lb=2:    110 shell pairs

Calculating one electron integrals          ... done (  0.1 sec)
Calculating RI/J V-Matrix + Cholesky decomp.... done (  0.2 sec)
Calculating Nuclear repulsion               ... done (  0.0 sec) ENN=   2816.000910837818 Eh

Diagonalization of the overlap matrix:
Smallest eigenvalue                        ... 3.067e-03
Time for diagonalization                   ...    0.010 sec
Threshold for overlap eigenvalues          ... 1.000e-07
Number of eigenvalues below threshold      ... 0
Time for construction of square roots      ...    0.043 sec
Total time needed                          ...    0.060 sec

-------------------
DFT GRID GENERATION
-------------------

General Integration Accuracy     IntAcc      ... 4.159
Radial Grid Type                 RadialGrid  ... OptM3 with GC (2021)
Angular Grid (max. ang.)         AngularGrid ... 3 (Lebedev-194)
Angular grid pruning method      GridPruning ... 4 (adaptive)
Weight generation scheme         WeightScheme... mBecke (2022)
Basis function cutoff            BFCut       ... 1.0000e-10
Integration weight cutoff        WCut        ... 1.0000e-14
Partially contracted basis set               ... off
Rotationally invariant grid construction     ... off
Angular grids for H and He will be reduced by one unit

Total number of grid points                  ...    97447
Total number of batches                      ...     1544
Average number of points per batch           ...       63
Average number of grid points per atom       ...     2377
Initializing property integral containers    ... done (  0.0 sec)

SHARK setup successfully completed in   1.6 seconds

Maximum memory used throughout the entire STARTUP-calculation: 51.8 MB
-------------------------------------------------------------------------------
                                 ORCA GUESS
                   Start orbitals & Density for SCF / CASSCF
-------------------------------------------------------------------------------

------------
SCF SETTINGS
------------
Hamiltonian:
 Density Functional     Method          .... DFT(GTOs)
 Exchange Functional    Exchange        .... PBE
   PBE kappa parameter   XKappa         ....  0.804000
   PBE mue parameter    XMuePBE         ....  0.219520
 Correlation Functional Correlation     .... PBE
   PBE beta parameter  CBetaPBE         ....  0.066725
 LDA part of GGA corr.  LDAOpt          .... PW91-LDA
 Gradients option       PostSCFGGA      .... off
   NL short-range parameter             ....  6.400000
 RI-approximation to the Coulomb term is turned on
   Number of AuxJ basis functions       .... 1185


General Settings:
 Integral files         IntName         .... sp
 Hartree-Fock type      HFTyp           .... RHF
 Total Charge           Charge          ....    0
 Multiplicity           Mult            ....    1
 Number of Electrons    NEL             ....  202
 Basis Dimension        Dim             ....  334
 Nuclear Repulsion      ENuc            ....   2816.0009108378 Eh

Convergence Acceleration:
 AO-DIIS                CNVDIIS         .... on
   Start iteration      DIISMaxIt       ....    12
   Startup error        DIISStart       ....  0.200000
   # of expansion vecs  DIISMaxEq       ....     5
   Bias factor          DIISBfac        ....   1.050
   Max. coefficient     DIISMaxC        ....  10.000
 MO-DIIS                CNVKDIIS        .... off
 Trust-Rad. Augm. Hess. CNVTRAH         .... auto
   Auto Start mean grad. ratio tolernc. ....  1.125000
   Auto Start start iteration           ....    50
   Auto Start num. interpolation iter.  ....    10
   Max. Number of Micro iterations      ....    24
   Max. Number of Macro iterations      .... Maxiter - #DIIS iter
   Number of Davidson start vectors     ....     2
   Converg. threshold    (grad. norm)   ....   1.000e-04
   Grad. Scal. Fac. for Micro threshold ....   0.100
   Minimum threshold for Micro iter.    ....   1.000e-02
   NR start threshold (gradient norm)   ....   1.000e-04
   Initial trust radius                 ....   0.400
   Minimum AH scaling param. (alpha)    ....   1.000
   Maximum AH scaling param. (alpha)    .... 1000.000
   Quad. conv. algorithm                .... NR
   White noise on init. David. guess    .... on
   Maximum white noise                  ....   0.010
   Pseudo random numbers                .... off
   Inactive MOs                         .... canonical
   Orbital update algorithm             .... Taylor
   Preconditioner                       .... Diag
   Full preconditioner red. dimension   ....   250
 SOSCF                  CNVSOSCF        .... on
   Start iteration      SOSCFMaxIt      ....   150
   Startup grad/error   SOSCFStart      ....  0.003300
   Hessian update       SOSCFHessUp     .... L-BFGS
 Level Shifting         CNVShift        .... on
   Level shift para.    LevelShift      ....    0.2500
   Turn off err/grad.   ShiftErr        ....    0.0010
 Zerner damping         CNVZerner       .... off
 Static damping         CNVDamp         .... on
   Fraction old density DampFac         ....    0.7000
   Max. Damping (<1)    DampMax         ....    0.9800
   Min. Damping (>=0)   DampMin         ....    0.0000
   Turn off err/grad.   DampErr         ....    0.1000

SCF Procedure:
 Maximum # iterations   MaxIter         ....   125
 SCF integral mode      SCFMode         .... Direct
   Integral package                     .... SHARK and LIBINT hybrid scheme
 Reset frequency        DirectResetFreq ....    20
 Integral Threshold     Thresh          ....  1.000e-09 Eh
 Primitive CutOff       TCut            ....  1.000e-10 Eh

Convergence Tolerance:
 Convergence Check Mode ConvCheckMode   .... Total+1el-Energy
 Convergence forced     ConvForced      .... 0
 Energy Change          TolE            ....  1.000e-05 Eh
 1-El. energy change                    ....  1.000e-02 Eh
 Orbital Gradient       TolG            ....  1.000e-04
 Orbital Rotation angle TolX            ....  1.000e-04
 DIIS Error             TolErr          ....  5.000e-04

------------------------------
INITIAL GUESS: MODEL POTENTIAL
------------------------------
Loading Hartree-Fock densities                     ... done
Calculating cut-offs                               ... done
Initializing the effective Hamiltonian             ... done
Setting up the integral package (SHARK)            ... done
Starting the Coulomb interaction                   ... done (   0.6 sec)
Making the grid                                    ... done (   0.6 sec)
Mapping shells                                     ... done
Starting the XC term evaluation                    ... done (   0.4 sec)
  promolecular density results
     # of electrons  =    201.985106279
     EX              =   -229.993770497
     EC              =     -7.290433656
     EX+EC           =   -237.284204153
Transforming the Hamiltonian                       ... done (   0.0 sec)
Diagonalizing the Hamiltonian                      ... done (   0.0 sec)
Back transforming the eigenvectors                 ... done (   0.0 sec)
Now organizing SCF variables                       ... done
                      ------------------
                      INITIAL GUESS DONE (   1.6 sec)
                      ------------------
             **** ENERGY FILE WAS UPDATED (sp.en.tmp) ****
Finished Guess after   2.0 sec
Maximum memory used throughout the entire GUESS-calculation: 39.4 MB

-------------------------------------------------------------------------------------------
                                      ORCA LEAN-SCF
                              memory conserving SCF solver
-------------------------------------------------------------------------------------------

----------------------------------------D-I-I-S--------------------------------------------
Iteration    Energy (Eh)           Delta-E    RMSDP     MaxDP     DIISErr   Damp  Time(sec)
-------------------------------------------------------------------------------------------
               ***  Starting incremental Fock matrix formation  ***
    1    -2929.1664812131243707     0.00e+00  2.73e-03  1.38e-01  1.87e-01  0.700   2.2
    2    -2929.3953600434911095    -2.29e-01  1.78e-03  7.21e-02  7.40e-02  0.700   2.0
                               ***Turning on AO-DIIS***
    3    -2929.4677764041039154    -7.24e-02  6.98e-04  2.06e-02  2.24e-02  0.700   2.0
    4    -2929.5135467603872712    -4.58e-02  1.06e-03  3.98e-02  1.03e-02  0.000   1.9
    5    -2929.6202970033505153    -1.07e-01  3.13e-04  1.41e-02  7.41e-03  0.000   1.9
                              *** Initializing SOSCF ***
---------------------------------------S-O-S-C-F--------------------------------------
Iteration    Energy (Eh)           Delta-E    RMSDP     MaxDP     MaxGrad    Time(sec)
--------------------------------------------------------------------------------------
    6    -2929.6213963987006537    -1.10e-03  1.10e-04  3.28e-03  1.85e-03     1.9
               *** Restarting incremental Fock matrix formation ***
    7    -2929.6215208684593563    -1.24e-04  8.27e-05  2.57e-03  2.35e-04     2.2
    8    -2929.6215221847319299    -1.32e-06  3.65e-05  1.18e-03  3.00e-04     1.8
                 **** Energy Check signals convergence ****

               *****************************************************
               *                     SUCCESS                       *
               *           SCF CONVERGED AFTER   8 CYCLES          *
               *****************************************************

             **** ENERGY FILE WAS UPDATED (sp.en.tmp) ****

----------------
TOTAL SCF ENERGY
----------------

Total Energy       :      -2929.62152218473193 Eh          -79719.05446 eV

Components:
Nuclear Repulsion  :       2816.00091083781763 Eh           76627.28044 eV
Electronic Energy  :      -5745.62243302254956 Eh         -156346.33490 eV
One Electron Energy:      -9651.79285260230608 Eh         -262638.63581 eV
Two Electron Energy:       3906.17041957975653 Eh          106292.30091 eV

Virial components:
Potential Energy   :      -5848.92992298009631 Eh         -159157.47461 eV
Kinetic Energy     :       2919.30840079536392 Eh           79438.42016 eV
Virial Ratio       :          2.00353272760992

DFT components:
N(Alpha)           :      100.999291756424 electrons
N(Beta)            :      100.999291756424 electrons
N(Total)           :      201.998583512847 electrons
E(X)               :     -231.809660517468 Eh       
E(C)               :       -7.298635418994 Eh       
E(XC)              :     -239.108295936462 Eh       

---------------
SCF CONVERGENCE
---------------

  Last Energy change         ...    1.3163e-06  Tolerance :   1.0000e-05
  Last MAX-Density change    ...    1.1844e-03  Tolerance :   1.0000e-03
  Last RMS-Density change    ...    3.6536e-05  Tolerance :   1.0000e-04
  Last DIIS Error            ...    1.8479e-03  Tolerance :   5.0000e-04
  Last Orbital Gradient      ...    3.0013e-04  Tolerance :   1.0000e-04
  Last Orbital Rotation      ...    5.1163e-04  Tolerance :   1.0000e-04


----------------
ORBITAL ENERGIES
----------------

  NO   OCC          E(Eh)            E(eV) 
   0   2.0000     -88.041947     -2395.7432 
   1   2.0000     -88.034737     -2395.5470 
   2   2.0000     -87.980132     -2394.0611 
   3   2.0000     -87.970525     -2393.7997 
   4   2.0000     -76.419125     -2079.4701 
   5   2.0000     -76.418285     -2079.4472 
   6   2.0000     -18.787078      -511.2224 
   7   2.0000     -18.786673      -511.2113 
   8   2.0000     -18.779650      -511.0203 
   9   2.0000     -18.779249      -511.0093 
  10   2.0000      -9.956043      -270.9177 
  11   2.0000      -9.955296      -270.8974 
  12   2.0000      -9.953496      -270.8484 
  13   2.0000      -9.949158      -270.7303 
  14   2.0000      -9.944973      -270.6165 
  15   2.0000      -9.881964      -268.9019 
  16   2.0000      -9.880267      -268.8557 
  17   2.0000      -9.880248      -268.8552 
  18   2.0000      -9.879503      -268.8349 
  19   2.0000      -7.686792      -209.1683 
  20   2.0000      -7.680101      -208.9862 
  21   2.0000      -7.625313      -207.4953 
  22   2.0000      -7.615476      -207.2276 
  23   2.0000      -6.416807      -174.6102 
  24   2.0000      -6.415308      -174.5694 
  25   2.0000      -5.714375      -155.4960 
  26   2.0000      -5.711281      -155.4118 
  27   2.0000      -5.708062      -155.3243 
  28   2.0000      -5.704914      -155.2386 
  29   2.0000      -5.704117      -155.2169 
  30   2.0000      -5.696581      -155.0118 
  31   2.0000      -5.654258      -153.8602 
  32   2.0000      -5.646176      -153.6403 
  33   2.0000      -5.645074      -153.6103 
  34   2.0000      -5.644648      -153.5987 
  35   2.0000      -5.635950      -153.3620 
  36   2.0000      -5.635532      -153.3506 
  37   2.0000      -4.639734      -126.2536 
  38   2.0000      -4.638283      -126.2141 
  39   2.0000      -4.638121      -126.2097 
  40   2.0000      -4.637452      -126.1915 
  41   2.0000      -4.637406      -126.1902 
  42   2.0000      -4.635120      -126.1280 
  43   2.0000      -0.980605       -26.6836 
  44   2.0000      -0.977455       -26.5979 
  45   2.0000      -0.936588       -25.4859 
  46   2.0000      -0.935272       -25.4500 
  47   2.0000      -0.758846       -20.6493 
  48   2.0000      -0.715843       -19.4791 
  49   2.0000      -0.707349       -19.2480 
  50   2.0000      -0.687150       -18.6983 
  51   2.0000      -0.685584       -18.6557 
  52   2.0000      -0.671054       -18.2603 
  53   2.0000      -0.646724       -17.5982 
  54   2.0000      -0.630266       -17.1504 
  55   2.0000      -0.590364       -16.0646 
  56   2.0000      -0.581234       -15.8162 
  57   2.0000      -0.574466       -15.6320 
  58   2.0000      -0.570614       -15.5272 
  59   2.0000      -0.559963       -15.2374 
  60   2.0000      -0.497692       -13.5429 
  61   2.0000      -0.492325       -13.3968 
  62   2.0000      -0.471912       -12.8414 
  63   2.0000      -0.465525       -12.6676 
  64   2.0000      -0.450455       -12.2575 
  65   2.0000      -0.445580       -12.1248 
  66   2.0000      -0.437234       -11.8977 
  67   2.0000      -0.432193       -11.7606 
  68   2.0000      -0.428759       -11.6671 
  69   2.0000      -0.415824       -11.3151 
  70   2.0000      -0.404994       -11.0205 
  71   2.0000      -0.395765       -10.7693 
  72   2.0000      -0.391356       -10.6494 
  73   2.0000      -0.382330       -10.4037 
  74   2.0000      -0.379530       -10.3275 
  75   2.0000      -0.367813       -10.0087 
  76   2.0000      -0.351381        -9.5616 
  77   2.0000      -0.349548        -9.5117 
  78   2.0000      -0.347742        -9.4625 
  79   2.0000      -0.346175        -9.4199 
  80   2.0000      -0.341965        -9.3053 
  81   2.0000      -0.341544        -9.2939 
  82   2.0000      -0.339780        -9.2459 
  83   2.0000      -0.336477        -9.1560 
  84   2.0000      -0.333530        -9.0758 
  85   2.0000      -0.314093        -8.5469 
  86   2.0000      -0.310943        -8.4612 
  87   2.0000      -0.298925        -8.1342 
  88   2.0000      -0.291595        -7.9347 
  89   2.0000      -0.285764        -7.7760 
  90   2.0000      -0.271912        -7.3991 
  91   2.0000      -0.268733        -7.3126 
  92   2.0000      -0.266858        -7.2616 
  93   2.0000      -0.262261        -7.1365 
  94   2.0000      -0.253909        -6.9092 
  95   2.0000      -0.235061        -6.3963 
  96   2.0000      -0.214252        -5.8301 
  97   2.0000      -0.202272        -5.5041 
  98   2.0000      -0.198738        -5.4079 
  99   2.0000      -0.178536        -4.8582 
 100   2.0000      -0.177384        -4.8269 
 101   0.0000      -0.038455        -1.0464 
 102   0.0000      -0.029671        -0.8074 
 103   0.0000      -0.010182        -0.2771 
 104   0.0000       0.003172         0.0863 
 105   0.0000       0.024136         0.6568 
 106   0.0000       0.033077         0.9001 
 107   0.0000       0.035335         0.9615 
 108   0.0000       0.039408         1.0723 
 109   0.0000       0.047366         1.2889 
 110   0.0000       0.053998         1.4694 
 111   0.0000       0.056364         1.5337 
*Only the first 10 virtual orbitals were printed.

                    ********************************
                    * MULLIKEN POPULATION ANALYSIS *
                    ********************************

-----------------------
MULLIKEN ATOMIC CHARGES
-----------------------
   0 C :   -0.309493
   1 C :   -0.012551
   2 O :   -0.381867
   3 P :    0.602891
   4 S :   -0.296568
   5 O :   -0.343209
   6 C :   -0.003222
   7 C :   -0.310065
   8 S :   -0.139030
   9 C :   -0.338701
  10 S :   -0.090364
  11 P :    0.635670
  12 S :   -0.300032
  13 O :   -0.391144
  14 C :   -0.002668
  15 C :   -0.317489
  16 O :   -0.358561
  17 C :   -0.032963
  18 C :   -0.302959
  19 H :    0.127857
  20 H :    0.108616
  21 H :    0.127787
  22 H :    0.108929
  23 H :    0.112750
  24 H :    0.099269
  25 H :    0.110240
  26 H :    0.117484
  27 H :    0.107459
  28 H :    0.136490
  29 H :    0.196017
  30 H :    0.181513
  31 H :    0.100518
  32 H :    0.106524
  33 H :    0.131769
  34 H :    0.111863
  35 H :    0.111608
  36 H :    0.106440
  37 H :    0.110361
  38 H :    0.107610
  39 H :    0.139967
  40 H :    0.131255
Sum of atomic charges:    0.0000000

--------------------------------
MULLIKEN REDUCED ORBITAL CHARGES
--------------------------------
  0 C s       :     3.104217  s :     3.104217
      pz      :     1.021268  p :     3.177268
      px      :     1.065333
      py      :     1.090668
      dz2     :     0.004084  d :     0.028008
      dxz     :     0.006053
      dyz     :     0.007204
      dx2y2   :     0.005620
      dxy     :     0.005047

  1 C s       :     3.080350  s :     3.080350
      pz      :     0.904969  p :     2.871351
      px      :     1.041557
      py      :     0.924825
      dz2     :     0.012521  d :     0.060851
      dxz     :     0.010015
      dyz     :     0.017439
      dx2y2   :     0.012087
      dxy     :     0.008788

  2 O s       :     3.754517  s :     3.754517
      pz      :     1.575315  p :     4.614685
      px      :     1.422559
      py      :     1.616811
      dz2     :     0.001973  d :     0.012665
      dxz     :     0.002286
      dyz     :     0.002507
      dx2y2   :     0.003628
      dxy     :     0.002271

  3 P s       :     5.216739  s :     5.216739
      pz      :     2.865786  p :     8.587058
      px      :     2.846346
      py      :     2.874926
      dz2     :     0.124843  d :     0.593312
      dxz     :     0.122678
      dyz     :     0.115484
      dx2y2   :     0.141192
      dxy     :     0.089115

  4 S s       :     5.912200  s :     5.912200
      pz      :     3.433969  p :    10.341064
      px      :     3.386315
      py      :     3.520780
      dz2     :     0.005952  d :     0.043304
      dxz     :     0.013392
      dyz     :     0.007047
      dx2y2   :     0.007451
      dxy     :     0.009462

  5 O s       :     3.754881  s :     3.754881
      pz      :     1.355262  p :     4.575121
      px      :     1.577870
      py      :     1.641989
      dz2     :     0.002413  d :     0.013207
      dxz     :     0.002811
      dyz     :     0.003530
      dx2y2   :     0.002348
      dxy     :     0.002104

  6 C s       :     3.076375  s :     3.076375
      pz      :     0.867324  p :     2.867517
      px      :     0.914679
      py      :     1.085513
      dz2     :     0.012244  d :     0.059331
      dxz     :     0.017657
      dyz     :     0.010100
      dx2y2   :     0.010965
      dxy     :     0.008364

  7 C s       :     3.102449  s :     3.102449
      pz      :     1.022952  p :     3.179846
      px      :     1.077417
      py      :     1.079476
      dz2     :     0.004756  d :     0.027770
      dxz     :     0.007829
      dyz     :     0.004064
      dx2y2   :     0.007829
      dxy     :     0.003291

  8 S s       :     5.875377  s :     5.875377
      pz      :     3.672292  p :    10.189393
      px      :     3.216089
      py      :     3.301013
      dz2     :     0.008843  d :     0.074260
      dxz     :     0.013945
      dyz     :     0.009913
      dx2y2   :     0.029148
      dxy     :     0.012410

  9 C s       :     3.208422  s :     3.208422
      pz      :     1.047655  p :     3.090370
      px      :     0.879523
      py      :     1.163192
      dz2     :     0.005258  d :     0.039909
      dxz     :     0.009951
      dyz     :     0.008436
      dx2y2   :     0.012603
      dxy     :     0.003661

 10 S s       :     5.873390  s :     5.873390
      pz      :     3.463858  p :    10.142326
      px      :     3.323691
      py      :     3.354776
      dz2     :     0.011129  d :     0.074648
      dxz     :     0.021313
      dyz     :     0.013077
      dx2y2   :     0.016542
      dxy     :     0.012586

 11 P s       :     5.176786  s :     5.176786
      pz      :     2.861655  p :     8.607497
      px      :     2.860311
      py      :     2.885530
      dz2     :     0.115525  d :     0.580047
      dxz     :     0.114886
      dyz     :     0.128425
      dx2y2   :     0.106178
      dxy     :     0.115032

 12 S s       :     5.918790  s :     5.918790
      pz      :     3.357098  p :    10.336934
      px      :     3.517735
      py      :     3.462101
      dz2     :     0.007524  d :     0.044309
      dxz     :     0.011346
      dyz     :     0.010970
      dx2y2   :     0.006286
      dxy     :     0.008183

 13 O s       :     3.760728  s :     3.760728
      pz      :     1.515843  p :     4.617589
      px      :     1.430799
      py      :     1.670947
      dz2     :     0.002151  d :     0.012827
      dxz     :     0.002213
      dyz     :     0.002865
      dx2y2   :     0.002264
      dxy     :     0.003334

 14 C s       :     3.075237  s :     3.075237
      pz      :     0.899644  p :     2.866958
      px      :     0.965687
      py      :     1.001627
      dz2     :     0.010844  d :     0.060473
      dxz     :     0.016109
      dyz     :     0.012131
      dx2y2   :     0.006965
      dxy     :     0.014425

 15 C s       :     3.105750  s :     3.105750
      pz      :     1.065883  p :     3.183735
      px      :     1.068388
      py      :     1.049464
      dz2     :     0.003285  d :     0.028004
      dxz     :     0.008954
      dyz     :     0.004755
      dx2y2   :     0.003526
      dxy     :     0.007483

 16 O s       :     3.762759  s :     3.762759
      pz      :     1.388807  p :     4.582539
      px      :     1.582370
      py      :     1.611361
      dz2     :     0.002241  d :     0.013264
      dxz     :     0.002404
      dyz     :     0.003871
      dx2y2   :     0.002075
      dxy     :     0.002673

 17 C s       :     3.090861  s :     3.090861
      pz      :     0.875077  p :     2.882142
      px      :     0.942086
      py      :     1.064980
      dz2     :     0.012313  d :     0.059960
      dxz     :     0.016715
      dyz     :     0.011465
      dx2y2   :     0.006887
      dxy     :     0.012579

 18 C s       :     3.100340  s :     3.100340
      pz      :     1.015722  p :     3.174843
      px      :     1.068417
      py      :     1.090704
      dz2     :     0.004613  d :     0.027775
      dxz     :     0.008112
      dyz     :     0.003942
      dx2y2   :     0.004939
      dxy     :     0.006168

 19 H s       :     0.872143  s :     0.872143

 20 H s       :     0.891384  s :     0.891384

 21 H s       :     0.872213  s :     0.872213

 22 H s       :     0.891071  s :     0.891071

 23 H s       :     0.887250  s :     0.887250

 24 H s       :     0.900731  s :     0.900731

 25 H s       :     0.889760  s :     0.889760

 26 H s       :     0.882516  s :     0.882516

 27 H s       :     0.892541  s :     0.892541

 28 H s       :     0.863510  s :     0.863510

 29 H s       :     0.803983  s :     0.803983

 30 H s       :     0.818487  s :     0.818487

 31 H s       :     0.899482  s :     0.899482

 32 H s       :     0.893476  s :     0.893476

 33 H s       :     0.868231  s :     0.868231

 34 H s       :     0.888137  s :     0.888137

 35 H s       :     0.888392  s :     0.888392

 36 H s       :     0.893560  s :     0.893560

 37 H s       :     0.889639  s :     0.889639

 38 H s       :     0.892390  s :     0.892390

 39 H s       :     0.860033  s :     0.860033

 40 H s       :     0.868745  s :     0.868745


------------------------
MULLIKEN OVERLAP CHARGES
------------------------
B(  0-C ,  1-C ) :   0.9206 B(  0-C ,  2-O ) :  -0.1004 B(  0-C , 19-H ) :   0.7355 
B(  0-C , 20-H ) :   0.6841 B(  0-C , 21-H ) :   0.7308 B(  0-C , 23-H ) :  -0.0757 
B(  1-C ,  2-O ) :   0.5694 B(  1-C ,  3-P ) :  -0.0950 B(  1-C , 22-H ) :   0.7313 
B(  1-C , 23-H ) :   0.7441 B(  2-O ,  3-P ) :   0.6184 B(  2-O ,  4-S ) :  -0.0640 
B(  2-O ,  5-O ) :  -0.0570 B(  2-O ,  8-S ) :  -0.0796 B(  2-O , 22-H ) :  -0.0574 
B(  2-O , 23-H ) :  -0.0615 B(  3-P ,  4-S ) :   0.9638 B(  3-P ,  5-O ) :   0.6400 
B(  3-P ,  6-C ) :  -0.0617 B(  3-P ,  8-S ) :   0.5269 B(  3-P ,  9-C ) :  -0.0560 
B(  4-S ,  5-O ) :  -0.0764 B(  4-S ,  8-S ) :  -0.0761 B(  5-O ,  6-C ) :   0.5359 
B(  5-O ,  7-C ) :  -0.1011 B(  5-O ,  8-S ) :  -0.0671 B(  5-O , 24-H ) :  -0.0612 
B(  5-O , 25-H ) :  -0.0562 B(  6-C ,  7-C ) :   0.8958 B(  6-C , 24-H ) :   0.7092 
B(  6-C , 25-H ) :   0.7410 B(  7-C , 24-H ) :  -0.0676 B(  7-C , 25-H ) :  -0.0521 
B(  7-C , 26-H ) :   0.7213 B(  7-C , 27-H ) :   0.6868 B(  7-C , 28-H ) :   0.7385 
B(  8-S ,  9-C ) :   0.4452 B(  8-S , 10-S ) :  -0.1540 B(  8-S , 30-H ) :  -0.0696 
B(  9-C , 10-S ) :   0.5185 B(  9-C , 11-P ) :  -0.0675 B(  9-C , 12-S ) :  -0.0584 
B(  9-C , 29-H ) :   0.6045 B(  9-C , 30-H ) :   0.7225 B( 10-S , 11-P ) :   0.5253 
B( 10-S , 12-S ) :  -0.0705 B( 10-S , 13-O ) :  -0.0910 B( 10-S , 16-O ) :  -0.0600 
B( 10-S , 29-H ) :  -0.0740 B( 10-S , 30-H ) :  -0.0544 B( 11-P , 12-S ) :   0.9460 
B( 11-P , 13-O ) :   0.5894 B( 11-P , 14-C ) :  -0.0770 B( 11-P , 16-O ) :   0.6513 
B( 12-S , 13-O ) :  -0.0727 B( 12-S , 16-O ) :  -0.0648 B( 12-S , 29-H ) :   0.1219 
B( 12-S , 32-H ) :   0.0805 B( 13-O , 14-C ) :   0.5739 B( 13-O , 15-C ) :  -0.1004 
B( 13-O , 16-O ) :  -0.0619 B( 13-O , 31-H ) :  -0.0601 B( 13-O , 32-H ) :  -0.0691 
B( 14-C , 15-C ) :   0.8877 B( 14-C , 31-H ) :   0.7318 B( 14-C , 32-H ) :   0.7089 
B( 15-C , 31-H ) :  -0.0623 B( 15-C , 32-H ) :  -0.0675 B( 15-C , 33-H ) :   0.7282 
B( 15-C , 34-H ) :   0.7326 B( 15-C , 35-H ) :   0.6937 B( 16-O , 17-C ) :   0.5318 
B( 16-O , 18-C ) :  -0.1013 B( 16-O , 36-H ) :  -0.0647 B( 16-O , 37-H ) :  -0.0577 
B( 17-C , 18-C ) :   0.9140 B( 17-C , 36-H ) :   0.7138 B( 17-C , 37-H ) :   0.7351 
B( 18-C , 36-H ) :  -0.0713 B( 18-C , 38-H ) :   0.6923 B( 18-C , 39-H ) :   0.7431 
B( 18-C , 40-H ) :   0.7473 B( 19-H , 21-H ) :  -0.0502 B( 22-H , 23-H ) :  -0.0727 
B( 24-H , 25-H ) :  -0.0691 B( 26-H , 28-H ) :  -0.0524 B( 31-H , 32-H ) :  -0.0632 
B( 33-H , 34-H ) :  -0.0517 B( 36-H , 37-H ) :  -0.0691 


                     *******************************
                     * LOEWDIN POPULATION ANALYSIS *
                     *******************************

----------------------
LOEWDIN ATOMIC CHARGES
----------------------
   0 C :   -0.371312
   1 C :   -0.115058
   2 O :   -0.247640
   3 P :    0.560858
   4 S :   -0.296972
   5 O :   -0.226239
   6 C :   -0.110186
   7 C :   -0.367426
   8 S :    0.056428
   9 C :   -0.477801
  10 S :    0.085775
  11 P :    0.576550
  12 S :   -0.287388
  13 O :   -0.264758
  14 C :   -0.122274
  15 C :   -0.366074
  16 O :   -0.231187
  17 C :   -0.115384
  18 C :   -0.364282
  19 H :    0.130555
  20 H :    0.128702
  21 H :    0.121872
  22 H :    0.121193
  23 H :    0.106808
  24 H :    0.107680
  25 H :    0.122786
  26 H :    0.116274
  27 H :    0.128407
  28 H :    0.130400
  29 H :    0.121333
  30 H :    0.137539
  31 H :    0.116058
  32 H :    0.106526
  33 H :    0.126904
  34 H :    0.121291
  35 H :    0.130299
  36 H :    0.107556
  37 H :    0.121700
  38 H :    0.128781
  39 H :    0.132852
  40 H :    0.118854

-------------------------------
LOEWDIN REDUCED ORBITAL CHARGES
-------------------------------
  0 C s       :     2.953239  s :     2.953239
      pz      :     1.087280  p :     3.348791
      px      :     1.122925
      py      :     1.138585
      dz2     :     0.010554  d :     0.069282
      dxz     :     0.016721
      dyz     :     0.017029
      dx2y2   :     0.013619
      dxy     :     0.011359

  1 C s       :     2.925009  s :     2.925009
      pz      :     0.982079  p :     3.054288
      px      :     1.074374
      py      :     0.997835
      dz2     :     0.027327  d :     0.135761
      dxz     :     0.024644
      dyz     :     0.037551
      dx2y2   :     0.027779
      dxy     :     0.018461

  2 O s       :     3.494569  s :     3.494569
      pz      :     1.590484  p :     4.729706
      px      :     1.499626
      py      :     1.639596
      dz2     :     0.003621  d :     0.023366
      dxz     :     0.004416
      dyz     :     0.004471
      dx2y2   :     0.007278
      dxy     :     0.003580

  3 P s       :     5.058304  s :     5.058304
      pz      :     2.829495  p :     8.554921
      px      :     2.840812
      py      :     2.884614
      dz2     :     0.166738  d :     0.825918
      dxz     :     0.167589
      dyz     :     0.167341
      dx2y2   :     0.207526
      dxy     :     0.116724

  4 S s       :     5.767235  s :     5.767235
      pz      :     3.479815  p :    10.471331
      px      :     3.427165
      py      :     3.564350
      dz2     :     0.006536  d :     0.058406
      dxz     :     0.019590
      dyz     :     0.009967
      dx2y2   :     0.008727
      dxy     :     0.013587

  5 O s       :     3.500540  s :     3.500540
      pz      :     1.418078  p :     4.701711
      px      :     1.608500
      py      :     1.675132
      dz2     :     0.004723  d :     0.023988
      dxz     :     0.005564
      dyz     :     0.007173
      dx2y2   :     0.003703
      dxy     :     0.002826

  6 C s       :     2.928736  s :     2.928736
      pz      :     0.948575  p :     3.049377
      px      :     0.972609
      py      :     1.128193
      dz2     :     0.025363  d :     0.132073
      dxz     :     0.039754
      dyz     :     0.024091
      dx2y2   :     0.024087
      dxy     :     0.018778

  7 C s       :     2.953493  s :     2.953493
      pz      :     1.090780  p :     3.345202
      px      :     1.130511
      py      :     1.123911
      dz2     :     0.011745  d :     0.068731
      dxz     :     0.019293
      dyz     :     0.011148
      dx2y2   :     0.018533
      dxy     :     0.008012

  8 S s       :     5.637049  s :     5.637049
      pz      :     3.652710  p :    10.212202
      px      :     3.248718
      py      :     3.310773
      dz2     :     0.011150  d :     0.094321
      dxz     :     0.017681
      dyz     :     0.012198
      dx2y2   :     0.038807
      dxy     :     0.014486

  9 C s       :     3.061524  s :     3.061524
      pz      :     1.111977  p :     3.328185
      px      :     1.018830
      py      :     1.197377
      dz2     :     0.010212  d :     0.088092
      dxz     :     0.022915
      dyz     :     0.019622
      dx2y2   :     0.028671
      dxy     :     0.006672

 10 S s       :     5.639002  s :     5.639002
      pz      :     3.481907  p :    10.180953
      px      :     3.339774
      py      :     3.359272
      dz2     :     0.013144  d :     0.094270
      dxz     :     0.027996
      dyz     :     0.015219
      dx2y2   :     0.021588
      dxy     :     0.016323

 11 P s       :     5.057539  s :     5.057539
      pz      :     2.846948  p :     8.562034
      px      :     2.840398
      py      :     2.874688
      dz2     :     0.151710  d :     0.803876
      dxz     :     0.156620
      dyz     :     0.189365
      dx2y2   :     0.143811
      dxy     :     0.162370

 12 S s       :     5.759207  s :     5.759207
      pz      :     3.420390  p :    10.468958
      px      :     3.537874
      py      :     3.510695
      dz2     :     0.008436  d :     0.059223
      dxz     :     0.016266
      dyz     :     0.016422
      dx2y2   :     0.006818
      dxy     :     0.011281

 13 O s       :     3.509086  s :     3.509086
      pz      :     1.551079  p :     4.732036
      px      :     1.493349
      py      :     1.687608
      dz2     :     0.004141  d :     0.023636
      dxz     :     0.004718
      dyz     :     0.004825
      dx2y2   :     0.003832
      dxy     :     0.006120

 14 C s       :     2.927800  s :     2.927800
      pz      :     0.959192  p :     3.059060
      px      :     1.037482
      py      :     1.062386
      dz2     :     0.024015  d :     0.135414
      dxz     :     0.036588
      dyz     :     0.026785
      dx2y2   :     0.013263
      dxy     :     0.034764

 15 C s       :     2.953780  s :     2.953780
      pz      :     1.123921  p :     3.343034
      px      :     1.119459
      py      :     1.099654
      dz2     :     0.008129  d :     0.069259
      dxz     :     0.021871
      dyz     :     0.011975
      dx2y2   :     0.007514
      dxy     :     0.019769

 16 O s       :     3.502760  s :     3.502760
      pz      :     1.444028  p :     4.704450
      px      :     1.608191
      py      :     1.652231
      dz2     :     0.004215  d :     0.023977
      dxz     :     0.004985
      dyz     :     0.007667
      dx2y2   :     0.003094
      dxy     :     0.004016

 17 C s       :     2.928695  s :     2.928695
      pz      :     0.953714  p :     3.053329
      px      :     0.984397
      py      :     1.115218
      dz2     :     0.025573  d :     0.133359
      dxz     :     0.038431
      dyz     :     0.026191
      dx2y2   :     0.013594
      dxy     :     0.029571

 18 C s       :     2.952315  s :     2.952315
      pz      :     1.089272  p :     3.343178
      px      :     1.124229
      py      :     1.129676
      dz2     :     0.011500  d :     0.068790
      dxz     :     0.020647
      dyz     :     0.010302
      dx2y2   :     0.011390
      dxy     :     0.014951

 19 H s       :     0.869445  s :     0.869445

 20 H s       :     0.871298  s :     0.871298

 21 H s       :     0.878128  s :     0.878128

 22 H s       :     0.878807  s :     0.878807

 23 H s       :     0.893192  s :     0.893192

 24 H s       :     0.892320  s :     0.892320

 25 H s       :     0.877214  s :     0.877214

 26 H s       :     0.883726  s :     0.883726

 27 H s       :     0.871593  s :     0.871593

 28 H s       :     0.869600  s :     0.869600

 29 H s       :     0.878667  s :     0.878667

 30 H s       :     0.862461  s :     0.862461

 31 H s       :     0.883942  s :     0.883942

 32 H s       :     0.893474  s :     0.893474

 33 H s       :     0.873096  s :     0.873096

 34 H s       :     0.878709  s :     0.878709

 35 H s       :     0.869701  s :     0.869701

 36 H s       :     0.892444  s :     0.892444

 37 H s       :     0.878300  s :     0.878300

 38 H s       :     0.871219  s :     0.871219

 39 H s       :     0.867148  s :     0.867148

 40 H s       :     0.881146  s :     0.881146


---------------------------------
LOEWDIN BOND ORDERS (THRESH 0.050000)
---------------------------------
B(  0-C ,  1-C ) :   1.1593 B(  0-C ,  2-O ) :   0.0570 B(  0-C , 19-H ) :   0.9326 
B(  0-C , 20-H ) :   0.9234 B(  0-C , 21-H ) :   0.9252 B(  1-C ,  2-O ) :   1.0945 
B(  1-C ,  3-P ) :   0.0579 B(  1-C , 22-H ) :   0.9169 B(  1-C , 23-H ) :   0.9149 
B(  2-O ,  3-P ) :   1.2594 B(  2-O ,  4-S ) :   0.0843 B(  2-O ,  5-O ) :   0.0507 
B(  2-O ,  8-S ) :   0.0629 B(  3-P ,  4-S ) :   1.7758 B(  3-P ,  5-O ) :   1.3119 
B(  3-P ,  6-C ) :   0.0623 B(  3-P ,  8-S ) :   1.0247 B(  4-S ,  5-O ) :   0.0786 
B(  4-S ,  8-S ) :   0.1274 B(  5-O ,  6-C ) :   1.0750 B(  5-O ,  7-C ) :   0.0573 
B(  5-O ,  8-S ) :   0.0733 B(  6-C ,  7-C ) :   1.1552 B(  6-C , 24-H ) :   0.9146 
B(  6-C , 25-H ) :   0.9173 B(  7-C , 26-H ) :   0.9304 B(  7-C , 27-H ) :   0.9265 
B(  7-C , 28-H ) :   0.9304 B(  8-S ,  9-C ) :   1.1681 B(  8-S , 10-S ) :   0.0978 
B(  9-C , 10-S ) :   1.1653 B(  9-C , 29-H ) :   0.8910 B(  9-C , 30-H ) :   0.9244 
B( 10-S , 11-P ) :   1.0563 B( 10-S , 12-S ) :   0.1250 B( 10-S , 13-O ) :   0.0544 
B( 10-S , 16-O ) :   0.0632 B( 11-P , 12-S ) :   1.7167 B( 11-P , 13-O ) :   1.2291 
B( 11-P , 14-C ) :   0.0636 B( 11-P , 16-O ) :   1.2986 B( 11-P , 17-C ) :   0.0630 
B( 12-S , 13-O ) :   0.0918 B( 12-S , 16-O ) :   0.0656 B( 12-S , 29-H ) :   0.0769 
B( 13-O , 14-C ) :   1.0984 B( 13-O , 15-C ) :   0.0610 B( 13-O , 16-O ) :   0.0622 
B( 14-C , 15-C ) :   1.1555 B( 14-C , 31-H ) :   0.9175 B( 14-C , 32-H ) :   0.9043 
B( 15-C , 33-H ) :   0.9293 B( 15-C , 34-H ) :   0.9375 B( 15-C , 35-H ) :   0.9268 
B( 16-O , 17-C ) :   1.0799 B( 16-O , 18-C ) :   0.0579 B( 17-C , 18-C ) :   1.1584 
B( 17-C , 36-H ) :   0.9129 B( 17-C , 37-H ) :   0.9171 B( 18-C , 38-H ) :   0.9251 
B( 18-C , 39-H ) :   0.9295 B( 18-C , 40-H ) :   0.9287 

------------------------------------------
LOEWDIN REDUCED ORBITAL POPULATIONS PER MO
-------------------------------------------
THRESHOLD FOR PRINTING IS 0.1%%
                      0         1         2         3         4         5   
                 -88.04195 -88.03474 -87.98013 -87.97053 -76.41912 -76.41828
                   2.00000   2.00000   2.00000   2.00000   2.00000   2.00000
                  --------  --------  --------  --------  --------  --------
 3 P  s               0.0       0.0       0.0       0.0       0.0     100.0
 4 S  s               0.0       0.0       0.0     100.0       0.0       0.0
 8 S  s             100.0       0.0       0.0       0.0       0.0       0.0
10 S  s               0.0     100.0       0.0       0.0       0.0       0.0
11 P  s               0.0       0.0       0.0       0.0     100.0       0.0
12 S  s               0.0       0.0     100.0       0.0       0.0       0.0

                      6         7         8         9        10        11   
                 -18.78708 -18.78667 -18.77965 -18.77925  -9.95604  -9.95530
                   2.00000   2.00000   2.00000   2.00000   2.00000   2.00000
                  --------  --------  --------  --------  --------  --------
 1 C  s               0.0       0.0       0.0       0.0      99.7       0.0
 2 O  s               0.0      99.9       0.0       0.0       0.0       0.0
 5 O  s               0.0       0.0      99.9       0.0       0.0       0.0
 9 C  s               0.0       0.0       0.0       0.0       0.0      99.8
13 O  s               0.0       0.0       0.0      99.9       0.0       0.0
16 O  s              99.9       0.0       0.0       0.0       0.0       0.0

                     12        13        14        15        16        17   
                  -9.95350  -9.94916  -9.94497  -9.88196  -9.88027  -9.88025
                   2.00000   2.00000   2.00000   2.00000   2.00000   2.00000
                  --------  --------  --------  --------  --------  --------
 6 C  s               0.0      99.7       0.0       0.0       0.0       0.0
 7 C  s               0.0       0.0       0.0       0.0      99.7       0.0
14 C  s               0.0       0.0      99.7       0.0       0.0       0.0
15 C  s               0.0       0.0       0.0      99.7       0.0       0.0
17 C  s              99.7       0.0       0.0       0.0       0.0       0.0
18 C  s               0.0       0.0       0.0       0.0       0.0      99.7

                     18        19        20        21        22        23   
                  -9.87950  -7.68679  -7.68010  -7.62531  -7.61548  -6.41681
                   2.00000   2.00000   2.00000   2.00000   2.00000   2.00000
                  --------  --------  --------  --------  --------  --------
 0 C  s              99.7       0.0       0.0       0.0       0.0       0.0
 4 S  s               0.0       0.0       0.0       0.0      99.9       0.0
 8 S  s               0.0      99.7       0.0       0.0       0.0       0.0
 9 C  px              0.0       0.1       0.1       0.0       0.0       0.0
10 S  s               0.0       0.0      99.7       0.0       0.0       0.0
11 P  s               0.0       0.0       0.0       0.0       0.0      99.4
12 S  s               0.0       0.0       0.0      99.9       0.0       0.0
13 O  px              0.0       0.0       0.0       0.0       0.0       0.1
16 O  pz              0.0       0.0       0.0       0.0       0.0       0.1

                     24        25        26        27        28        29   
                  -6.41531  -5.71437  -5.71128  -5.70806  -5.70491  -5.70412
                   2.00000   2.00000   2.00000   2.00000   2.00000   2.00000
                  --------  --------  --------  --------  --------  --------
 2 O  px              0.2       0.0       0.0       0.0       0.0       0.0
 3 P  s              99.3       0.0       0.0       0.0       0.0       0.0
 5 O  pz              0.2       0.0       0.0       0.0       0.0       0.0
 8 S  pz              0.0      19.3       0.5       0.0       0.0      80.3
 8 S  px              0.0      46.5      38.9       0.0       0.0      14.6
 8 S  py              0.0      34.2      60.6       0.0       0.0       5.1
10 S  pz              0.0       0.0       0.0       4.1      58.4       0.0
10 S  px              0.0       0.0       0.0      52.1       9.3       0.0
10 S  py              0.0       0.0       0.0      43.7      32.3       0.0

                     30        31        32        33        34        35   
                  -5.69658  -5.65426  -5.64618  -5.64507  -5.64465  -5.63595
                   2.00000   2.00000   2.00000   2.00000   2.00000   2.00000
                  --------  --------  --------  --------  --------  --------
 4 S  pz              0.0       0.0       0.0       0.0      35.4      33.6
 4 S  px              0.0       0.0       0.0       0.0      39.5      58.9
 4 S  py              0.0       0.0       0.0       0.0      25.1       7.5
10 S  pz             37.4       0.0       0.0       0.0       0.0       0.0
10 S  px             38.5       0.0       0.0       0.0       0.0       0.0
10 S  py             24.0       0.0       0.0       0.0       0.0       0.0
12 S  pz              0.0      48.5       3.1      48.4       0.0       0.0
12 S  px              0.0      20.1      42.4      37.5       0.0       0.0
12 S  py              0.0      31.4      54.5      14.0       0.0       0.0

                     36        37        38        39        40        41   
                  -5.63553  -4.63973  -4.63828  -4.63812  -4.63745  -4.63741
                   2.00000   2.00000   2.00000   2.00000   2.00000   2.00000
                  --------  --------  --------  --------  --------  --------
 3 P  pz              0.0       0.0      53.7       0.0       0.0       0.0
 3 P  px              0.0       0.0      26.5       0.0      41.5       0.0
 3 P  py              0.0       0.0      19.7       0.0      58.3       0.1
 4 S  pz             31.0       0.0       0.0       0.0       0.0       0.0
 4 S  px              1.6       0.0       0.0       0.0       0.0       0.0
 4 S  py             67.4       0.0       0.0       0.0       0.0       0.0
11 P  pz              0.0      30.8       0.0       0.6       0.1      68.5
11 P  px              0.0      11.5       0.0      78.9       0.0       9.4
11 P  py              0.0      57.6       0.0      20.4       0.0      21.9

                     42        43        44        45        46        47   
                  -4.63512  -0.98061  -0.97745  -0.93659  -0.93527  -0.75885
                   2.00000   2.00000   2.00000   2.00000   2.00000   2.00000
                  --------  --------  --------  --------  --------  --------
 0 C  s               0.0       0.3       0.0       0.3       0.0       0.0
 0 C  pz              0.0       0.4       0.0       0.4       0.0       0.0
 1 C  s               0.0       3.9       0.0       4.4       0.0       0.2
 1 C  pz              0.0       1.8       0.0       1.5       0.0       0.0
 1 C  px              0.0       0.8       0.0       0.7       0.0       0.0
 1 C  py              0.0       1.6       0.0       1.4       0.0       0.0
 1 C  dyz             0.0       0.2       0.0       0.2       0.0       0.0
 2 O  s               0.0      33.0       0.0      26.1       0.0       0.2
 2 O  pz              0.0       0.0       0.0       0.4       0.0       0.1
 2 O  px              0.0       1.1       0.0       0.1       0.0       0.2
 2 O  py              0.0       0.4       0.0       0.8       0.0       0.0
 3 P  s               0.0      13.9       0.0       0.1       0.0       2.1
 3 P  pz             46.2       0.5       0.0       6.8       0.0       0.0
 3 P  px             31.8       4.0       0.0       2.3       0.0       0.4
 3 P  py             21.9       0.5       0.0       1.6       0.0       1.5
 3 P  dz2             0.0       0.0       0.0       0.9       0.0       0.0
 3 P  dxz             0.0       0.2       0.0       0.7       0.0       0.0
 3 P  dyz             0.0       0.5       0.0       0.8       0.0       0.1
 3 P  dx2y2           0.0       0.3       0.0       1.0       0.0       0.1
 4 S  s               0.0       0.3       0.0       0.0       0.0       0.4
 4 S  pz              0.0       0.1       0.0       0.0       0.0       0.1
 4 S  px              0.0       0.2       0.0       0.0       0.0       0.0
 5 O  s               0.0      24.0       0.0      34.8       0.0       0.2
 5 O  pz              0.0       0.4       0.0       0.0       0.0       0.3
 5 O  px              0.0       0.3       0.0       0.5       0.0       0.1
 5 O  py              0.0       0.9       0.0       0.6       0.0       0.0
 6 C  s               0.0       2.8       0.0       4.9       0.0       0.3
 6 C  pz              0.0       1.9       0.0       2.1       0.0       0.0
 6 C  px              0.0       1.3       0.0       2.2       0.0       0.0
 6 C  dxz             0.0       0.2       0.0       0.3       0.0       0.0
 7 C  s               0.0       0.2       0.0       0.4       0.0       0.1
 7 C  pz              0.0       0.3       0.0       0.5       0.0       0.0
 7 C  py              0.0       0.1       0.0       0.1       0.0       0.0
 8 S  s               0.0       0.3       0.0       0.0       0.0      18.8
 8 S  pz              0.0       0.0       0.0       0.0       0.0       0.2
 8 S  px              0.0       0.0       0.0       0.0       0.0       2.4
 8 S  py              0.0       0.3       0.0       0.0       0.0       0.3
 8 S  dxz             0.0       0.0       0.0       0.0       0.0       0.1
 9 C  s               0.0       0.0       0.0       0.0       0.0      27.2
 9 C  pz              0.0       0.0       0.0       0.0       0.0       2.1
 9 C  py              0.0       0.0       0.0       0.0       0.0       0.1
10 S  s               0.0       0.0       0.3       0.0       0.0      18.3
10 S  pz              0.0       0.0       0.1       0.0       0.0       1.6
10 S  px              0.0       0.0       0.1       0.0       0.0       1.1
10 S  py              0.0       0.0       0.3       0.0       0.0       0.1
10 S  dxz             0.0       0.0       0.0       0.0       0.0       0.2
11 P  s               0.0       0.0      13.8       0.0       0.1       2.8
11 P  pz              0.0       0.0       1.0       0.0       5.6       0.0
11 P  px              0.0       0.0       3.6       0.0       1.6       1.1
11 P  py              0.0       0.0       0.2       0.0       3.4       1.1
11 P  dz2             0.0       0.0       0.0       0.0       0.5       0.0
11 P  dxz             0.0       0.0       0.0       0.0       1.1       0.0
11 P  dyz             0.0       0.0       0.9       0.0       0.2       0.1
11 P  dx2y2           0.0       0.0       0.0       0.0       0.5       0.1
11 P  dxy             0.0       0.0       0.0       0.0       0.8       0.0
12 S  s               0.0       0.0       0.3       0.0       0.0       0.6
12 S  pz              0.0       0.0       0.2       0.0       0.0       0.1
12 S  px              0.0       0.0       0.1       0.0       0.0       0.0
[...]
 2 O  dz2             1.7       0.0       0.1       4.3
 2 O  dxz             4.5       1.0       0.2       0.5
 2 O  dyz             0.7       1.1       0.8      16.1
 2 O  dx2y2          10.1       0.0       0.3      13.2
 2 O  dxy             0.0       0.5       0.3       5.2
 3 P  s               0.3       0.0       0.0       0.1
 3 P  pz              0.6       0.0       0.0       2.0
 3 P  px              1.1       0.0       0.0       0.3
 3 P  py              0.1       0.0       0.0       0.5
 3 P  dz2             0.1       0.0       0.0       0.3
 3 P  dxz             0.0       0.0       0.0       0.7
 3 P  dyz             0.3       0.0       0.0       0.3
 3 P  dx2y2           0.8       0.0       0.0       0.3
 3 P  dxy             0.1       0.0       0.0       0.3
 5 O  s               5.2       0.2       0.0       0.3
 5 O  pz              0.4       0.1       0.0       2.8
 5 O  px              0.6       0.0       0.0       0.4
 5 O  py              0.1       0.0       0.0       0.3
 5 O  dz2             9.2       0.2       0.0       2.7
 5 O  dxz            39.4       2.4       0.3       6.4
 5 O  dyz             0.6       0.0       0.2      16.0
 5 O  dx2y2           3.9       0.2       0.1       5.1
 5 O  dxy             0.4       0.0       0.0       0.5
 6 C  s               1.1       0.1       0.0       0.4
 6 C  pz              1.3       0.1       0.0       0.4
 6 C  px              0.9       0.0       0.0       0.3
 6 C  dz2             0.2       0.0       0.0       0.5
 6 C  dxz             6.3       0.3       0.0       1.6
 6 C  dyz             0.1       0.0       0.0       0.0
 6 C  dx2y2           1.6       0.1       0.0       0.2
 6 C  dxy             0.6       0.0       0.0       0.0
 7 C  dz2             0.1       0.0       0.0       0.0
 7 C  dyz             0.1       0.0       0.0       0.0
11 P  s               0.0       0.4       0.4       0.0
11 P  pz              0.1       1.3       0.2       0.1
11 P  px              0.0       0.0       0.8       0.0
11 P  py              0.0       0.6       0.1       0.1
11 P  dz2             0.0       0.4       0.0       0.0
11 P  dxz             0.0       0.6       0.3       0.1
11 P  dx2y2           0.0       0.0       0.5       0.0
11 P  dxy             0.0       0.4       0.0       0.0
13 O  s               0.0       0.2       0.9       0.0
13 O  pz              0.0       0.0       2.8       0.1
13 O  px              0.0       0.3       3.2       0.2
13 O  py              0.0       0.0       0.2       0.0
13 O  dz2             0.1       0.8       8.7       0.4
13 O  dxz             0.0       0.7      10.2       0.0
13 O  dyz             0.0       0.1      25.5       0.8
13 O  dx2y2           0.1       1.9       0.5       0.2
13 O  dxy             0.1       1.3      22.1       1.1
14 C  s               0.0       0.0       1.9       0.1
14 C  pz              0.0       0.0       1.5       0.0
14 C  px              0.0       0.0       1.1       0.0
14 C  py              0.0       0.0       0.7       0.0
14 C  dz2             0.0       0.0       1.2       0.0
14 C  dxz             0.0       0.0       4.9       0.1
14 C  dyz             0.0       0.0       2.8       0.0
14 C  dx2y2           0.0       0.0       0.3       0.0
14 C  dxy             0.0       0.0       1.4       0.0
15 C  dz2             0.0       0.0       0.1       0.0
15 C  dxy             0.0       0.0       0.1       0.0
16 O  s               0.0       0.3       0.2       0.0
16 O  pz              0.2       4.6       0.0       0.1
16 O  px              0.0       1.8       0.0       0.1
16 O  dz2             0.0       0.0       0.4       0.0
16 O  dxz             0.5      15.7       2.7       0.0
16 O  dyz             1.1      28.8       0.1       0.9
16 O  dx2y2           0.3       8.2       0.1       0.2
16 O  dxy             0.4      10.5       0.1       0.4
17 C  s               0.1       1.6       0.1       0.0
17 C  pz              0.0       1.5       0.1       0.0
17 C  px              0.0       1.0       0.0       0.0
17 C  py              0.0       0.2       0.0       0.0
17 C  dz2             0.0       1.0       0.0       0.0
17 C  dxz             0.2       6.0       0.4       0.1
17 C  dyz             0.0       0.6       0.0       0.0
17 C  dx2y2           0.0       0.9       0.0       0.0
17 C  dxy             0.0       0.5       0.1       0.0
31 H  s               0.0       0.0       0.1       0.0


                      *****************************
                      * MAYER POPULATION ANALYSIS *
                      *****************************

  NA   - Mulliken gross atomic population
  ZA   - Total nuclear charge
  QA   - Mulliken gross atomic charge
  VA   - Mayer's total valence
  BVA  - Mayer's bonded valence
  FA   - Mayer's free valence

  ATOM       NA         ZA         QA         VA         BVA        FA
  0 C      6.3095     6.0000    -0.3095     3.9893     3.9893     0.0000
  1 C      6.0126     6.0000    -0.0126     4.0220     4.0220     0.0000
  2 O      8.3819     8.0000    -0.3819     2.1694     2.1694     0.0000
  3 P     14.3971    15.0000     0.6029     4.9758     4.9758     0.0000
  4 S     16.2966    16.0000    -0.2966     2.0604     2.0604    -0.0000
  5 O      8.3432     8.0000    -0.3432     2.1894     2.1894     0.0000
  6 C      6.0032     6.0000    -0.0032     4.0202     4.0202     0.0000
  7 C      6.3101     6.0000    -0.3101     3.9925     3.9925     0.0000
  8 S     16.1390    16.0000    -0.1390     2.2729     2.2729     0.0000
  9 C      6.3387     6.0000    -0.3387     3.8152     3.8152    -0.0000
 10 S     16.0904    16.0000    -0.0904     2.2857     2.2857    -0.0000
 11 P     14.3643    15.0000     0.6357     4.9409     4.9409     0.0000
 12 S     16.3000    16.0000    -0.3000     2.0963     2.0963     0.0000
 13 O      8.3911     8.0000    -0.3911     2.1453     2.1453     0.0000
 14 C      6.0027     6.0000    -0.0027     4.0077     4.0077     0.0000
 15 C      6.3175     6.0000    -0.3175     3.9918     3.9918    -0.0000
 16 O      8.3586     8.0000    -0.3586     2.1878     2.1878     0.0000
 17 C      6.0330     6.0000    -0.0330     4.0350     4.0350    -0.0000
 18 C      6.3030     6.0000    -0.3030     3.9966     3.9966    -0.0000
 19 H      0.8721     1.0000     0.1279     0.9690     0.9690    -0.0000
 20 H      0.8914     1.0000     0.1086     0.9527     0.9527     0.0000
 21 H      0.8722     1.0000     0.1278     0.9886     0.9886    -0.0000
 22 H      0.8911     1.0000     0.1089     0.9475     0.9475    -0.0000
 23 H      0.8873     1.0000     0.1127     0.9474     0.9474    -0.0000
 24 H      0.9007     1.0000     0.0993     0.9725     0.9725     0.0000
 25 H      0.8898     1.0000     0.1102     0.9491     0.9491     0.0000
 26 H      0.8825     1.0000     0.1175     0.9774     0.9774     0.0000
 27 H      0.8925     1.0000     0.1075     0.9533     0.9533     0.0000
 28 H      0.8635     1.0000     0.1365     0.9656     0.9656    -0.0000
 29 H      0.8040     1.0000     0.1960     0.9991     0.9991     0.0000
 30 H      0.8185     1.0000     0.1815     0.9337     0.9337    -0.0000
 31 H      0.8995     1.0000     0.1005     0.9491     0.9491    -0.0000
 32 H      0.8935     1.0000     0.1065     0.9932     0.9932     0.0000
 33 H      0.8682     1.0000     0.1318     0.9761     0.9761    -0.0000
 34 H      0.8881     1.0000     0.1119     0.9573     0.9573    -0.0000
 35 H      0.8884     1.0000     0.1116     0.9544     0.9544     0.0000
 36 H      0.8936     1.0000     0.1064     0.9699     0.9699    -0.0000
 37 H      0.8896     1.0000     0.1104     0.9478     0.9478     0.0000
 38 H      0.8924     1.0000     0.1076     0.9538     0.9538     0.0000
 39 H      0.8600     1.0000     0.1400     0.9665     0.9665    -0.0000
 40 H      0.8687     1.0000     0.1313     0.9647     0.9647    -0.0000

  Mayer bond orders larger than 0.100000
B(  0-C ,  1-C ) :   1.1681 B(  0-C , 19-H ) :   0.9414 B(  0-C , 20-H ) :   0.9340 
B(  0-C , 21-H ) :   0.9312 B(  1-C ,  2-O ) :   0.9150 B(  1-C , 22-H ) :   0.9335 
B(  1-C , 23-H ) :   0.9261 B(  2-O ,  3-P ) :   1.0796 B(  3-P ,  4-S ) :   1.6666 
B(  3-P ,  5-O ) :   1.1386 B(  3-P ,  8-S ) :   0.9294 B(  4-S ,  8-S ) :   0.1181 
B(  5-O ,  6-C ) :   0.9013 B(  6-C ,  7-C ) :   1.1685 B(  6-C , 24-H ) :   0.9194 
B(  6-C , 25-H ) :   0.9351 B(  7-C , 26-H ) :   0.9331 B(  7-C , 27-H ) :   0.9385 
B(  7-C , 28-H ) :   0.9367 B(  8-S ,  9-C ) :   0.9889 B(  9-C , 10-S ) :   1.0136 
B(  9-C , 29-H ) :   0.8459 B(  9-C , 30-H ) :   0.9116 B( 10-S , 11-P ) :   0.9508 
B( 10-S , 12-S ) :   0.1101 B( 11-P , 12-S ) :   1.6120 B( 11-P , 13-O ) :   1.0585 
B( 11-P , 16-O ) :   1.1214 B( 12-S , 29-H ) :   0.1111 B( 13-O , 14-C ) :   0.9217 
B( 14-C , 15-C ) :   1.1596 B( 14-C , 31-H ) :   0.9347 B( 14-C , 32-H ) :   0.9106 
B( 15-C , 33-H ) :   0.9370 B( 15-C , 34-H ) :   0.9463 B( 15-C , 35-H ) :   0.9398 
B( 16-O , 17-C ) :   0.9064 B( 17-C , 18-C ) :   1.1710 B( 17-C , 36-H ) :   0.9155 
B( 17-C , 37-H ) :   0.9344 B( 18-C , 38-H ) :   0.9374 B( 18-C , 39-H ) :   0.9385 
B( 18-C , 40-H ) :   0.9346 

-------
TIMINGS
-------

Total SCF time: 0 days 0 hours 0 min 16 sec 

Total time                  ....      16.445 sec
Sum of individual times     ....      16.000 sec  ( 97.3%)

SCF preparation             ....       0.225 sec  (  1.4%)
Fock matrix formation       ....      14.651 sec  ( 89.1%)
  Startup                   ....       0.057 sec  (  0.4% of F)
  Split-RI-J                ....       8.780 sec  ( 59.9% of F)
  XC integration            ....       5.342 sec  ( 36.5% of F)
    XC Preparation          ....       0.000 sec  (  0.0% of XC)
    Basis function eval.    ....       2.018 sec  ( 37.8% of XC)
    Density eval.           ....       1.023 sec  ( 19.2% of XC)
    XC-Functional eval.     ....       0.394 sec  (  7.4% of XC)
    XC-Potential eval.      ....       1.180 sec  ( 22.1% of XC)
Diagonalization             ....       0.000 sec  (  0.0%)
Density matrix formation    ....       0.211 sec  (  1.3%)
Total Energy calculation    ....       0.029 sec  (  0.2%)
Population analysis         ....       0.200 sec  (  1.2%)
Orbital Transformation      ....       0.086 sec  (  0.5%)
Orbital Orthonormalization  ....       0.000 sec  (  0.0%)
DIIS solution               ....       0.459 sec  (  2.8%)
  MO trafo                  ....       0.000 sec  (  0.0 % of DIIS)
  Orb grad                  ....       0.000 sec  (  0.0 % of DIIS)
  Energy W gradient         ....       0.000 sec  (  0.0 % of DIIS)
  DIIS error                ....       0.021 sec  (  4.6 % of DIIS)
  DIIS work                 ....       0.377 sec  ( 82.2 % of DIIS)
  Form Q                    ....       0.000 sec  (  0.0 % of DIIS)
  Form QpQm                 ....       0.000 sec  (  0.0 % of DIIS)
  Exp/Cayley                ....       0.000 sec  (  0.0 % of DIIS)
  Orb update                ....       0.000 sec  (  0.0 % of DIIS)
  Wake-sleep                ....       0.016 sec  (  3.6 % of DIIS)
SOSCF solution              ....       0.140 sec  (  0.8%)
  MO trafo                  ....       0.076 sec  ( 54.2 % of SOSCF)
  Orb grad                  ....       0.003 sec  (  1.9 % of SOSCF)
  Rot update                ....       0.027 sec  ( 19.2 % of SOSCF)
  Step                      ....       0.034 sec  ( 24.6 % of SOSCF)
Finished LeanSCF after  16.5 sec

Maximum memory used throughout the entire LEANSCF-calculation: 34.6 MB


-------------------------------------------------------------------------------
                          DFT DISPERSION CORRECTION                            
                                                                               
                                DFTD4 V3.4.0                                   
-------------------------------------------------------------------------------
The PBE functional is recognized
Active option DFTDOPT                   ...         5   

-------------------------   ----------------
Dispersion correction           -0.068383791
-------------------------   ----------------

------------------   -----------------
gCP correction             0.185268927
------------------   -----------------

-------------------------   --------------------
FINAL SINGLE POINT ENERGY     -2929.504637048828
-------------------------   --------------------


------------------------------------------------------------------------------
                              ORCA PROPERTY CALCULATIONS
------------------------------------------------------------------------------

GBWName                                 ... sp.gbw
Number of atoms                         ...     41
Number of basis functions               ...    334
Max core memory                         ...   1024 MB

Electric properties:
Dipole moment                           ... YES
Quadrupole moment                       ...  NO
Static polarizability (Dipole/Dipole)   ...  NO
Static polarizability (Dipole/Quad.)    ...  NO
Static polarizability (Quad./Quad.)     ...  NO
Static polarizability (Velocity)        ...  NO

Atomic electric properties:
Dipole moment                           ...  NO
Quadrupole moment                       ...  NO
Static polarizability                   ...  NO

Choice of electric origin               ... Center of mass
Position of electric origin             ...    -0.000002    -0.000004    -0.000001

General magnetic properties:
Magnetizability                         ...  NO

EPR properties:
g-Tensor (aka g-matrix)                 ...  NO
Zero-Field splitting spin-orbit         ...  NO
Zero-field splitting spin-spin          ...  NO
Hyperfine couplings                     ...  NO (   0 nuclei)
Quadrupole couplings                    ...  NO (   0 nuclei)
Contact density                         ...  NO (   0 nuclei)

NMR properties:
Chemical shifts                         ...  NO (   0 nuclei)
Spin-rotation constants                 ...  NO (   0 nuclei)
Spin-spin couplings                     ...  NO (   0 nuclei,    0 pairs)

Choice of magnetic origin               ... GIAO
Position of magnetic origin             ...     0.000000     0.000000     0.000000

Properties with geometric perturbations:
SCF Hessian                             ...  NO
IR spectrum                             ...  NO
VCD spectrum                            ...  NO
X-ray spectroscopy properties:
SCF XES/XAS/RIXS spectra                ...  NO


-------------
DIPOLE MOMENT
-------------

Method             : SCF
Type of density    : Electron Density
Multiplicity       :   1
Irrep              :   0
Energy             : -2929.6215221847319299 Eh
Relativity type    : 
Basis              : AO
                                X                 Y                 Z
Electronic contribution:      4.331997516      -0.238753256       0.826944189
Nuclear contribution   :     -4.348387743      -0.690531122      -0.659919362
                        -----------------------------------------
Total Dipole Moment    :     -0.016390228      -0.929284378       0.167024827
                        -----------------------------------------
Magnitude (a.u.)       :      0.944317419
Magnitude (Debye)      :      2.400264127



--------------------
Rotational spectrum 
--------------------
 
Rotational constants in cm-1:             0.012586             0.005653             0.004814 
Rotational constants in MHz :           377.304681           169.459556           144.316498 

Dipole components along the rotational axes: 
x,y,z [a.u.] :     0.061491     0.043676    -0.941301 
x,y,z [Debye]:     0.156297     0.111016    -2.392596 

 

Dipole moment calculation done in   0.0 sec 

Maximum memory used throughout the entire PROP-calculation: 24.0 MB

--------------------------------
SUGGESTED CITATIONS FOR THIS RUN
--------------------------------

Below you find a list of papers that are relevant to this ORCA run
We neither can nor want to force you to cite these papers, but we appreciate if you do
You receive ORCA, which is the product of decades of hard work by many enthusiastic individuals, for free
The only thing we kindly ask in return is that you cite our papers,
We deeply appreciate it, if you show your appreciation for ORCA by not just citing the generic ORCA reference.

Please note that relegating all ORCA citations to the supporting information does *not* help us.
SI sections are not indexed - citations you put there will not count into any citation statistics
But we need these citations in order to attract the funding resources that allow us to do what we are doing

Therefore, if you are a happy ORCA user, please consider citing a few of the papers listed below in the main body of your paper

In addition to the list printed below, the program has created the file sp.bibtex that contains the list in bibtex format
You can import this file easily into all common literature databanks and citation aid programs


List of essential papers. We consider these as the minimum necessary citations

  1. Neese,F.
     Software update: the ORCA program system, version 5.0
     WIRES Comput. Molec. Sci., 2022 12(1)e1606
     doi.org/10.1002/wcms.1606

List of papers to cite with high priority. The work reported in these papers was absolutely
necessary for this run to complete.
Our perspective: the developers of density functionals and basis sets usually get cited in chemistry papers
Good! But without the algorithms to do something with them, the functionals or basis sets would not do anything.
Hence, in our opinion, the algorithm design and method developments papers are equally worthy of getting cited

  1. Neese,F.
     An improvement of the resolution of the identity approximation for the formation of the Coulomb matrix
     J. Comp. Chem., 2003 24(14)1740-1747
     doi.org/10.1002/jcc.10318
  2. Neese,F.
     The SHARK Integral Generation and Digestion System
     J. Comp. Chem., 2022  1-16
     doi.org/10.1002/jcc.26942
  3. Caldeweyher,E.; Bannwarth,C.; Grimme,S.
     Extension of the D3 dispersion coefficient model
     J. Chem. Phys., 2017 147 034112-XXXX
     doi.org/10.1063/1.4993215
  4. Caldeweyher,E.; Ehlert,S.; Hansen,A.; Neugebauer,H.; Spicher,S.; Bannwarth,C.; Grimme,S.
     A generally applicable atomic-charge dependent London dispersion correction
     J. Chem. Phys., 2019 150 154122-XXXX
     doi.org/10.1063/1.5090222
  5. Caldeweyher,E.; Mewes,J.; Ehlert,S.; Grimme,S.
     Extension and evaluation of the D4 London-dispersion model for periodic systems
     Phys. Chem. Chem. Phys., 2020 22(16)8499-8512
     doi.org/10.1039/D0CP00502A

List of suggested additional citations. These are papers that are important in the 'surrounding' of 
of this run, or papers that preceded the highly important papers. If you like your results we are grateful for a citation.

  1. Neese,F.
     The ORCA program system
     WIRES Comput. Molec. Sci., 2012 2(1)73-78
     doi.org/10.1002/wcms.81
  2. Neese,F.
     Software update: the ORCA program system, version 4.0
     WIRES Comput. Molec. Sci., 2018 8(1)1-6
     doi.org/10.1002/wcms.1327
  3. Neese,F.; Wennmohs,F.; Becker,U.; Riplinger,C.
     The ORCA quantum chemistry program package
     J. Chem. Phys., 2020 152 Art. No. L224108
     doi.org/10.1063/5.0004608

List of optional additional citations

  1. Neese,F.
     Approximate second-order SCF convergence for spin unrestricted wavefunctions
     Chem. Phys. Lett., 2000 325(1-3)93-98
     doi.org/10.1016/s0009-2614(00)00662-x

Timings for individual modules:

Sum of individual times          ...       20.283 sec (=   0.338 min)
Startup calculation              ...        1.654 sec (=   0.028 min)   8.2 %
SCF iterations                   ...       18.519 sec (=   0.309 min)  91.3 %
Property calculations            ...        0.110 sec (=   0.002 min)   0.5 %
                             ****ORCA TERMINATED NORMALLY****
TOTAL RUN TIME: 0 days 0 hours 0 minutes 21 seconds 20 msec
