      -----------------------------------------------------------      
     |                   =====================                   |     
     |                           x T B                           |     
     |                   =====================                   |     
     |                         S. Grimme                         |     
     |          Mulliken Center for Theoretical Chemistry        |     
     |                    University of Bonn                     |     
      -----------------------------------------------------------      

   * xtb version 6.7.1 (edcfbbe) compiled by 'albert@albert-system' on 2024-07-22

   xtb is free software: you can redistribute it and/or modify it under
   the terms of the GNU Lesser General Public License as published by
   the Free Software Foundation, either version 3 of the License, or
   (at your option) any later version.
   
   xtb is distributed in the hope that it will be useful,
   but WITHOUT ANY WARRANTY; without even the implied warranty of
   MERCHANTABILITY or FITNESS FOR A PARTICULAR PURPOSE.  See the
   GNU Lesser General Public License for more details.
   
   Cite this work as:
   * C. Bannwarth, E. Caldeweyher, S. Ehlert, A. Hansen, P. Pracht,
     J. Seibert, S. Spicher, S. Grimme, WIREs Comput. Mol. Sci., 2020, 11,
     e01493. DOI: 10.1002/wcms.1493
   
   for GFN2-xTB:
   * C. Bannwarth, S. Ehlert and S. Grimme., J. Chem. Theory Comput., 2019,
     15, 1652-1671. DOI: 10.1021/acs.jctc.8b01176
   for GFN1-xTB:
   * S. Grimme, C. Bannwarth, P. Shushkov, J. Chem. Theory Comput., 2017,
     13, 1989-2009. DOI: 10.1021/acs.jctc.7b00118
   for GFN0-xTB:
   * P. Pracht, E. Caldeweyher, S. Ehlert, S. Grimme, ChemRxiv, 2019, preprint.
     DOI: 10.26434/chemrxiv.8326202.v1
   for GFN-FF:
   * S. Spicher and S. Grimme, Angew. Chem. Int. Ed., 2020, 59, 15665-15673.
     DOI: 10.1002/anie.202004239
   
   for ALPB and GBSA implicit solvation:
   * S. Ehlert, M. Stahn, S. Spicher, S. Grimme, J. Chem. Theory Comput.,
     2021, 17, 4250-4261. DOI: 10.1021/acs.jctc.1c00471
   
   for ddCOSMO and CPCM-X implicit solvation:
   * M. Stahn, S. Ehlert, S. Grimme, J. Phys. Chem. A,
     2023, XX, XXXX-XXXX. DOI: 10.1021/acs.jpca.3c04382
   
   for DFT-D4:
   * E. Caldeweyher, C. Bannwarth and S. Grimme, J. Chem. Phys., 2017,
     147, 034112. DOI: 10.1063/1.4993215
   * E. Caldeweyher, S. Ehlert, A. Hansen, H. Neugebauer, S. Spicher,
     C. Bannwarth and S. Grimme, J. Chem. Phys., 2019, 150, 154122.
     DOI: 10.1063/1.5090222
   * E. Caldeweyher, J.-M. Mewes, S. Ehlert and S. Grimme, Phys. Chem. Chem. Phys.
     2020, 22, 8499-8512. DOI: 10.1039/D0CP00502A
   
   for sTDA-xTB:
   * S. Grimme and C. Bannwarth, J. Chem. Phys., 2016, 145, 054103.
     DOI: 10.1063/1.4959605
   
   in the mass-spec context:
   * V. Asgeirsson, C. Bauer and S. Grimme, Chem. Sci., 2017, 8, 4879.
     DOI: 10.1039/c7sc00601b
   * J. Koopman and S. Grimme, ACS Omega 2019, 4, 12, 15120-15133.
     DOI: 10.1021/acsomega.9b02011
   
   for metadynamics refer to:
   * S. Grimme, J. Chem. Theory Comput., 2019, 155, 2847-2862
     DOI: 10.1021/acs.jctc.9b00143
   
   for SPH calculations refer to:
   * S. Spicher and S. Grimme, J. Chem. Theory Comput., 2021, 17, 1701-1714
     DOI: 10.1021/acs.jctc.0c01306
   
   for ONIOM refer to:
   * C. Plett, A. Katbashev, S. Ehlert, S. Grimme, M. Bursch,
     Phys. Chem. Chem. Phys., 2023, 25, 17860-17868. DOI: 10.1039/D3CP02178E
   
   for DIPRO refer to:
   * J. Kohn, N. Gildemeister, S. Grimme, D. Fazzi, A. Hansen,
     J. Chem. Phys., 2023, just accepted.
   
   for PTB refer to:
   * S. Grimme, M. Mueller, A. Hansen, J. Chem. Phys., 2023, 158, 124111.
     DOI: 10.1063/5.0137838
   
   with help from (in alphabetical order)
   P. Atkinson, C. Bannwarth, F. Bohle, G. Brandenburg, E. Caldeweyher
   M. Checinski, S. Dohm, S. Ehlert, S. Ehrlich, I. Gerasimov, C. Hölzer
   A. Katbashev, J. Kohn, J. Koopman, C. Lavigne, S. Lehtola, F. März, M. Müller,
   F. Musil, H. Neugebauer, J. Pisarek, C. Plett, P. Pracht, F. Pultar,
   J. Seibert, P. Shushkov, S. Spicher, M. Stahn, M. Steiner, T. Strunk,
   J. Stückrath, T. Rose, and J. Unsleber
   
 * started run on 2025/04/09 at 13:51:03.713     
   ID    Z sym.   atoms
    1    6 C      1, 2, 4, 6, 7, 9, 12, 13, 18, 20
    2    8 O      3, 5, 10, 11, 17, 19
    3    1 H      8, 21-38
    4   16 S      14, 16
    5   15 P      15

           -------------------------------------------------
          |                Calculation Setup                |
           -------------------------------------------------

          program call               : /software/projects/pawsey0265/mwang1/xtb/bin/xtb xtb_opt.coord --opt normal --orca -I xtb_opt-xcontrol-inp
          hostname                   : nid002043
          coordinate file            : xtb_opt.coord
          omp threads                :                   128

           -------------------------------------------------
          |                   Orca driver                   |
           -------------------------------------------------
orca executable           : /software/projects/pawsey0265/mwang1/orca_avx2/orca
orca input file           : xtb_opt.inp
orca input line           : 
orca parallel             : true
orca number of threads    : 128
                         * ORCA takes the control...
  ------------------------------------------------------------------------

                                 *****************
                                 * O   R   C   A *
                                 *****************

                                            #,                                       
                                            ###                                      
                                            ####                                     
                                            #####                                    
                                            ######                                   
                                           ########,                                 
                                     ,,################,,,,,                         
                               ,,#################################,,                 
                          ,,##########################################,,             
                       ,#########################################, ''#####,          
                    ,#############################################,,   '####,        
                  ,##################################################,,,,####,       
                ,###########''''           ''''###############################       
              ,#####''   ,,,,##########,,,,          '''####'''          '####       
            ,##' ,,,,###########################,,,                        '##       
           ' ,,###''''                  '''############,,,                           
         ,,##''                                '''############,,,,        ,,,,,,###''
      ,#''                                            '''#######################'''  
     '                                                          ''''####''''         
             ,#######,   #######,   ,#######,      ##                                
            ,#'     '#,  ##    ##  ,#'     '#,    #''#        ,####,   ,####,        
            ##       ##  ##   ,#'  ##            #'  '#       #'       #'  '#        
            ##       ##  #######   ##           ,######,      #####,   #    #        
            '#,     ,#'  ##    ##  '#,     ,#' ,#      #,     #,   #   #,  ,#        
             '#######'   ##     ##  '#######'  #'      '#     '####' # '####'        



                #########################################################
                #                        -***-                          #
                #          Department of theory and spectroscopy        #
                #                                                       #
                #                      Frank Neese                      #
                #                                                       #
                #     Directorship, Architecture, Infrastructure        #
                #                    SHARK, DRIVERS                     #
                #        Core code/Algorithms in most modules           #
                #                                                       #
                #        Max Planck Institute fuer Kohlenforschung      #
                #                Kaiser Wilhelm Platz 1                 #
                #                 D-45470 Muelheim/Ruhr                 #
                #                      Germany                          #
                #                                                       #
                #                  All rights reserved                  #
                #                        -***-                          #
                #########################################################


                         Program Version 6.0.1  -  RELEASE   -


 With contributions from (in alphabetic order):
[Max-Planck-Institut fuer Kohlenforschung]                               
  Daniel Aravena         : Magnetic Suceptibility                        
  Michael Atanasov       : Ab Initio Ligand Field Theory (pilot matlab implementation)
  Alexander A. Auer      : GIAO ZORA, VPT2 properties, NMR spectrum      
  Ute Becker             : All parallelization in ORCA, NUMFREQ, NUMCALC 
  Giovanni Bistoni       : ED, misc. LED, open-shell LED, HFLD           
  Martin Brehm           : Molecular dynamics                            
  Dmytro Bykov           : pre 5.0 version of the SCF Hessian            
  Marcos Casanova-Páez   : Triplet and SCS-CIS(D). UHF-(DLPNO)-IP/EA/STEOM-CCSD. UHF-CVS-IP/STEOM-CCSD   
  Vijay G. Chilkuri      : MRCI spin determinant printing, contributions to CSF-ICE 
  Pauline Colinet        : FMM embedding                                 
  Dipayan Datta          : RHF DLPNO-CCSD density                        
  Achintya Kumar Dutta   : EOM-CC, STEOM-CC                              
  Nicolas Foglia         : Exact transition moments, OPA infrastructure, MCD improvements    
  Dmitry Ganyushin       : Spin-Orbit,Spin-Spin,Magnetic field MRCI      
  Miquel Garcia-Rates    : C-PCM and meta-GGA Hessian, CCSD/C-PCM, Gaussian charge scheme 
  Tiago L. C. Gouveia    : GS-ROHF, GS-ROCIS                             
  Yang Guo               : DLPNO-NEVPT2, F12-NEVPT2, CIM, IAO-localization        
  Andreas Hansen         : Spin unrestricted coupled pair/coupled cluster methods 
  Ingolf Harden          : AUTO-CI MPn and infrastructure                
  Benjamin Helmich-Paris : MC-RPA, TRAH-(SCF,CASSCF), AVAS, COSX integrals, SCF dyn. polar. 
  Lee Huntington         : MR-EOM, pCC                                   
  Robert Izsak           : Overlap fitted RIJCOSX, COSX-SCS-MP3, EOM     
  Riya Kayal             : Wick's Theorem for AUTO-CI, AUTO-CI UHF-CCSDT 
  Emily Kempfer          : AUTO-CI, RHF CISDT and CCSDT                  
  Christian Kollmar      : KDIIS, OOCD, Brueckner-CCSD(T), CCSD density, CASPT2, CASPT2-K, improved NEVPT2 
  Axel Koslowski         : Symmetry handling                             
  Simone Kossmann        : meta-GGA functionals, TD-DFT gradient, OOMP2, (MP2 Hessian; deprecated post 5.0) 
  Lucas Lang             : DCDCAS                                        
  Marvin Lechner         : AUTO-CI (C++ implementation), FIC-MRCC        
  Spencer Leger          : CASSCF response                               
  Dagmar Lenk            : GEPOL surface, SMD, ORCA-2-JSON               
  Dimitrios Liakos       : Extrapolation schemes; Compound Job, initial MDCI parallelization 
  Dimitrios Manganas     : Further ROCIS development; embedding schemes. LFT, Crystal Embedding 
  Dimitrios Pantazis     : SARC Basis sets                               
  Anastasios Papadopoulos: AUTO-CI, single reference methods and gradients 
  Taras Petrenko         : pre 6.0 DFT Hessian and TD-DFT gradient, (ASA, deprecated), ECA, 1-Electron XAS/XES, NRVS 
  Peter Pinski           : DLPNO-MP2, DLPNO-MP2 Gradient                 
  Christoph Reimann      : Effective Core Potentials                     
  Marius Retegan         : Local ZFS, SOC                                
  Christoph Riplinger    : Optimizer, TS searches, QM/MM, DLPNO-CCSD(T), (RO)-DLPNO pert. Triples 
  Michael Roemelt        : Original ROCIS implementation                 
  Masaaki Saitow         : Open-shell DLPNO-CCSD energy and density      
  Barbara Sandhoefer     : DKH picture change effects                    
  Kantharuban Sivalingam : CASSCF convergence/infrastructure, NEVPT2 and variants, FIC-MRCI 
  Bernardo de Souza      : ESD, SOC TD-DFT                               
  Georgi L. Stoychev     : AutoAux, RI-MP2 NMR, DLPNO-MP2 response, X2C  
  Van Anh Tran           : RI-MP2 g-tensors                              
  Willem Van den Heuvel  : Paramagnetic NMR                              
  Zikuan Wang            : NOTCH, Electric field optimization            
  Frank Wennmohs         : Technical directorship and infrastructure     
  Hang Xu                : AUTO-CI-Response properties                   
                                                                         
[FACCTs GmbH]                                                            
  Markus Bursch, Miquel Garcia-Rates, Christoph Riplinger, Bernardo de Souza, Georgi L. Stoychev 
                                                                 
  APM, Basis sets (HGBS, AHGBS, def-TZVP (Ac-Lr), def2-XVPD (La-Lu)), CI-OPT, improved COSX, DLPNO-Multilevel,           
  DOCKER, DRACO, updates on ESD, GOAT, IRC, LR-CPCM, MBIS, meta-GGA TD-DFT gradient, ML-optimized integration grids, 
  MM, NACMEs, nearIR, NEB, NEB-TS, NL-DFT gradient (VV10), 2- and 3-layer-ONIOM, interface openCOSMO-RS, QMMM,   
  Crystal-QMMM, SF, symmetry and pop. for TD-DFT, r2SCAN hybrids, SOLVATOR                                   
                                                                         
[Other institutions]                                                     
  V. Asgeirsson          : NEB                                           
  Christoph Bannwarth    : sTDA-DFT, sTD-DFT, PBEh-3c, B97-3c, D3        
  Sebastian Ehlert       : rSCAN, r2SCAN, r2SCAN-3c, D4, dhf basis sets  
  Marvin Friede          : D4 for Fr, Ra, Ac-Lr                          
  Lars Goerigk           : TD-DFT with DH, B97 family of functionals     
  Stefan Grimme          : VdW corrections, initial TS optimization, DFT functionals, gCP, sTDA/sTD-DF 
  Waldemar Hujo          : DFT-NL                                        
  H. Jonsson             : NEB                                           
  Holger Kruse           : gCP                                           
  Marcel Mueller         : wB97X-3c, vDZP basis set                      
  Hagen Neugebauer       : wr2SCAN                                       
  Tobias Risthaus        : range-separated hybrid DFT                    
  Lukas Wittmann         : regularized MP2, r2SCAN double-hybrids, wr2SCAN        
                                                                         
We gratefully acknowledge several colleagues who have allowed us to      
interface, adapt or use parts of their codes:                            
  Ed Valeev, F. Pavosevic, A. Kumar             : LibInt (2-el integral package), F12 methods 
  Garnet Chan, S. Sharma, J. Yang, R. Olivares  : DMRG                   
  Ulf Ekstrom                                   : XCFun DFT Library      
  Mihaly Kallay                                 : mrcc  (arbitrary order and MRCC methods)
  Frank Weinhold                                : gennbo (NPA and NBO analysis)           
  Simon Mueller                                 : openCOSMO-RS                            
  Christopher J. Cramer and Donald G. Truhlar   : smd solvation model                     
  S Lehtola, MJT Oliveira, MAL Marques          : LibXC Library                           
  Liviu Ungur et al                             : ANISO software                          


 Your calculation uses the libint2 library for the computation of 2-el integrals
 For citations please refer to: http://libint.valeyev.net

 Your ORCA version has been built with support for libXC version: 6.2.2
 For citations please refer to: https://libxc.gitlab.io

 This ORCA versions uses:
   CBLAS   interface :  Fast vector & matrix operations
   LAPACKE interface :  Fast linear algebra routines
   SCALAPACK package :  Parallel linear algebra routines
   Shared memory     :  Shared parallel matrices
   BLAS/LAPACK       :  OpenBLAS 0.3.27  USE64BITINT DYNAMIC_ARCH NO_AFFINITY Zen SINGLE_THREADED
        Core in use  :  Zen
   Copyright (c) 2011-2014, The OpenBLAS Project




***************************************
The coordinates will be read from file: xtb_opt.xyz
***************************************


Your calculation utilizes the geometrical counterpoise correction gCP
Please cite in your paper:
H.Kruse, S. Grimme J.Chem.Phys., 136, (2012), 154101 
   

Your calculation utilizes the atom-pairwise dispersion correction
based on EEQ partial charges (D4)


Your calculation utilizes the SMD solvation module
Please cite in your paper:
A.V. Marenich, C.J. Cramer, D.G. Truhlar J. Phys. Chem. B, 113, (2009), 6378 

================================================================================

----- Orbital basis set information -----
Your calculation utilizes the basis: def2-mTZVPP
   Stefan Grimme, Andreas Hansen, Sebastian Ehlert, and Jan-Michael Mewes 
   J. Chem. Phys. 154, 064103 (2021). DOI: 10.1063/5.0040021

----- AuxJ basis set information -----
Your calculation utilizes the auxiliary basis: def2/J
   F. Weigend, Phys. Chem. Chem. Phys. 8, 1057 (2006).

================================================================================
                                        WARNINGS
                       Please study these warnings very carefully!
================================================================================

WARNING: Old DensityContainer found on disk!
         Will remove this file - 
         If you want to keep old densities, please start your calculation with a different basename. 



WARNING: SCAN, rSCAN, or r2SCAN functional requested.
  ===> : libXC variant has now been activated.



================================================================================
                                       INPUT FILE
================================================================================
NAME = xtb_opt.inp
|  1> ! r2scan-3c def2/J RI DEFGRID2 scfconv7 ENGRAD tightSCF miniprint
|  2> %cpcm
|  3>     smd true
|  4>     smdsolvent "water"
|  5> end
|  6> * xyzfile 0 1 xtb_opt.xyz
|  7> 
|  8>                          ****END OF INPUT****
================================================================================

                     *******************************
                     * Energy+Gradient Calculation *
                     *******************************

---------------------------------
CARTESIAN COORDINATES (ANGSTROEM)
---------------------------------
  C      5.902706   -1.960149   -0.905133
  C      4.835106   -1.073235   -1.490348
  O      3.543363   -1.590080   -1.026094
  C      2.461746   -0.905886   -1.411897
  O      2.496090    0.085798   -2.119015
  C      1.185573   -1.542061   -0.911005
  C      0.226925   -0.484793   -0.344780
  H      0.194459    0.375648   -1.025592
  C      0.681669    0.037525    1.014246
  O     -0.022197    0.170820    1.993969
  O      1.979042    0.351520    0.955354
  C      2.580171    0.966100    2.145575
  C      2.296922    2.448723    2.169726
  S     -1.467038   -1.196639   -0.284163
  P     -2.659656    0.550951   -0.069535
  S     -1.925807    2.174668   -0.840892
  O     -4.064045   -0.000973   -0.638650
  C     -4.270639   -0.139445   -2.072010
  O     -3.028475    0.753006    1.477477
  C     -3.504608   -0.353212    2.299498
  H      6.881825   -1.600448   -1.234537
  H      5.877879   -1.936045    0.187978
  H      5.785284   -2.993771   -1.242415
  H      4.835923   -1.091029   -2.583919
  H      4.927052   -0.037911   -1.149470
  H      1.403180   -2.318243   -0.174938
  H      0.724685   -2.015416   -1.786012
  H      2.199813    0.451635    3.030589
  H      3.645117    0.757632    2.032747
  H      2.671221    2.928798    1.261409
  H      1.226147    2.648380    2.264922
  H      2.808237    2.892676    3.029255
  H     -4.246652    0.844448   -2.547078
  H     -5.257506   -0.588585   -2.182748
  H     -3.510232   -0.792841   -2.508954
  H     -3.647588    0.067541    3.294820
  H     -2.753329   -1.146591    2.333503
  H     -4.451717   -0.734562    1.910789

----------------------------
CARTESIAN COORDINATES (A.U.)
----------------------------
  NO LB      ZA    FRAG     MASS         X           Y           Z
   0 C     6.0000    0    12.011   11.154498   -3.704145   -1.710454
   1 C     6.0000    0    12.011    9.137026   -2.028120   -2.816349
   2 O     8.0000    0    15.999    6.695986   -3.004816   -1.939037
   3 C     6.0000    0    12.011    4.652025   -1.711877   -2.668098
   4 O     8.0000    0    15.999    4.716927    0.162134   -4.004358
   5 C     6.0000    0    12.011    2.240408   -2.914074   -1.721550
   6 C     6.0000    0    12.011    0.428826   -0.916126   -0.651540
   7 H     1.0000    0     1.008    0.367474    0.709871   -1.938089
   8 C     6.0000    0    12.011    1.288168    0.070913    1.916647
   9 O     8.0000    0    15.999   -0.041946    0.322803    3.768055
  10 O     8.0000    0    15.999    3.739848    0.664277    1.805357
  11 C     6.0000    0    12.011    4.875816    1.825664    4.054550
  12 C     6.0000    0    12.011    4.340553    4.627415    4.100187
  13 S    16.0000    0    32.060   -2.772300   -2.261319   -0.536990
  14 P    15.0000    0    30.974   -5.026021    1.041146   -0.131402
  15 S    16.0000    0    32.060   -3.639247    4.109526   -1.589056
  16 O     8.0000    0    15.999   -7.679932   -0.001839   -1.206873
  17 C     6.0000    0    12.011   -8.070338   -0.263512   -3.915531
  18 O     8.0000    0    15.999   -5.722988    1.422975    2.792027
  19 C     6.0000    0    12.011   -6.622749   -0.667474    4.345422
  20 H     1.0000    0     1.008   13.004765   -3.024409   -2.332937
  21 H     1.0000    0     1.008   11.107582   -3.658594    0.355226
  22 H     1.0000    0     1.008   10.932603   -5.657407   -2.347825
  23 H     1.0000    0     1.008    9.138570   -2.061746   -4.882900
  24 H     1.0000    0     1.008    9.310779   -0.071642   -2.172184
  25 H     1.0000    0     1.008    2.651627   -4.380844   -0.330585
  26 H     1.0000    0     1.008    1.369457   -3.808585   -3.375074
  27 H     1.0000    0     1.008    4.157044    0.853467    5.726983
  28 H     1.0000    0     1.008    6.888272    1.431718    3.841336
  29 H     1.0000    0     1.008    5.047876    5.534626    2.383717
  30 H     1.0000    0     1.008    2.317082    5.004713    4.280083
  31 H     1.0000    0     1.008    5.306798    5.466366    5.724462
  32 H     1.0000    0     1.008   -8.025008    1.595775   -4.813279
  33 H     1.0000    0     1.008   -9.935247   -1.112264   -4.124796
  34 H     1.0000    0     1.008   -6.633376   -1.498252   -4.741236
  35 H     1.0000    0     1.008   -6.892942    0.127633    6.226308
  36 H     1.0000    0     1.008   -5.203038   -2.166743    4.409682
  37 H     1.0000    0     1.008   -8.412526   -1.388121    3.610869

------------------------------------------------------------------------------
                   ___                                                        
                  /   \      - P O W E R E D   B Y -                         
                 /     \                                                     
                 |  |  |   _    _      __       _____    __    __             
                 |  |  |  | |  | |    /  \     |  _  \  |  |  /  |          
                  \  \/   | |  | |   /    \    | | | |  |  | /  /          
                 / \  \   | |__| |  /  /\  \   | |_| |  |  |/  /          
                |  |  |   |  __  | /  /__\  \  |    /   |      \           
                |  |  |   | |  | | |   __   |  |    \   |  |\   \          
                \     /   | |  | | |  |  |  |  | |\  \  |  | \   \       
                 \___/    |_|  |_| |__|  |__|  |_| \__\ |__|  \__/        
                                                                              
                      - O R C A' S   B I G   F R I E N D -                    
                                      &                                       
                       - I N T E G R A L  F E E D E R -                       
                                                                              
 v1 FN, 2020, v2 2021, v3 2022-2024                                           
------------------------------------------------------------------------------


----------------------
SHARK INTEGRAL PACKAGE
----------------------

Number of atoms                             ...     38
Number of basis functions                   ...    510
Number of shells                            ...    240
Maximum angular momentum                    ...      2
Integral batch strategy                     ... SHARK/LIBINT Hybrid
RI-J (if used) integral strategy            ... SPLIT-RIJ (Revised 2003 algorithm where possible)
Printlevel                                  ...      1
Contraction scheme used                     ... SEGMENTED contraction
Prescreening option                         ... SCHWARTZ
   Thresh                                   ... 3.000e-11
   Tcut                                     ... 1.000e-12
   Tpresel                                  ... 1.000e-12 
Coulomb Range Separation                    ... NOT USED
Exchange Range Separation                   ... NOT USED
Multipole approximations                    ... NOT USED
Finite Nucleus Model                        ... NOT USED
CABS basis                                  ... NOT available
Auxiliary Coulomb fitting basis             ... AVAILABLE
   # of basis functions in Aux-J            ...   1146
   # of shells in Aux-J                     ...    386
   Maximum angular momentum in Aux-J        ...      4
Auxiliary J/K fitting basis                 ... NOT available
Auxiliary Correlation fitting basis         ... NOT available
Auxiliary 'external' fitting basis          ... NOT available

Checking pre-screening integrals            ... done (  0.0 sec) Dimension = 240
Check shell pair data                       ... done (  0.0 sec)
Shell pair information
Shell pair cut-off parameter TPreSel        ...   1.0e-12
Total number of shell pairs                 ...     28920
Shell pairs after pre-screening             ...     19708
Total number of primitive shell pairs       ...    108409
Primitive shell pairs kept                  ...     45630
          la=0 lb=0:   5668 shell pairs
          la=1 lb=0:   7161 shell pairs
          la=1 lb=1:   2285 shell pairs
          la=2 lb=0:   2628 shell pairs
          la=2 lb=1:   1644 shell pairs
          la=2 lb=2:    322 shell pairs

Calculating one electron integrals          ... done (  0.1 sec)
Calculating RI/J V-Matrix + Cholesky decomp.... done (  0.1 sec)
Calculating Nuclear repulsion               ... done (  0.0 sec) ENN=   2083.432200881209 Eh

Diagonalization of the overlap matrix:
Smallest eigenvalue                        ... 6.788e-05
Time for diagonalization                   ...    0.032 sec
Threshold for overlap eigenvalues          ... 1.000e-07
Number of eigenvalues below threshold      ... 0
Time for construction of square roots      ...    0.018 sec
Total time needed                          ...    0.051 sec

-------------------
DFT GRID GENERATION
-------------------

General Integration Accuracy     IntAcc      ... 4.388
Radial Grid Type                 RadialGrid  ... OptM3 with GC (2021)
Angular Grid (max. ang.)         AngularGrid ... 4 (Lebedev-302)
Angular grid pruning method      GridPruning ... 4 (adaptive)
Weight generation scheme         WeightScheme... mBecke (2022)
Basis function cutoff            BFCut       ... 1.0000e-11
Integration weight cutoff        WCut        ... 1.0000e-14
Partially contracted basis set               ... off
Rotationally invariant grid construction     ... off
Angular grids for H and He will be reduced by one unit
Diffuse basis detected: some atoms will have their outermost
                        angular grid increased by 1.

Total number of grid points                  ...   180493
Total number of batches                      ...     2836
Average number of points per batch           ...       63
Average number of grid points per atom       ...     4750
Initializing property integral containers    ... done (  0.0 sec)

SHARK setup successfully completed in   2.6 seconds

Maximum memory used throughout the entire STARTUP-calculation: 97.6 MB
Occupation numbers will be reassigned to an Aufbau configuration
             **** ENERGY FILE WAS UPDATED (xtb_opt.en.tmp) ****
Finished Guess after   0.2 sec
Maximum memory used throughout the entire GUESS-calculation: 53.6 MB
--------------------
CPCM SOLVATION MODEL
--------------------
CPCM parameters:
  Epsilon                                         ...      78.3550
  Refrac                                          ...       1.3328
  Rsolv                                           ...       1.3000
  Surface type                                    ... GAUSSIAN VDW
  Discretization scheme                           ... Constant charge density
    Threshold for H atoms                         ...       5.0000 (charges/Ang^2)
    Threshold for non-H atoms                     ...       5.0000 (charges/Ang^2)
  Epsilon function type                           ...         CPCM
Solvent:                                          ... WATER
SMD-CDS solvent descriptors:
  Soln                                            ...       1.3328
  Soln25                                          ...       1.3323
  Sola                                            ...       0.0000
  Solb                                            ...       0.0000
  Solg                                            ...       0.0000
  Solc                                            ...       0.0000
  Solh                                            ...       0.0000
Radii:
  Scheme                                          ... Element-dependent radii
  Radius for C  used is    3.4960 Bohr (=   1.8500 Ang.)
  Radius for O  used is    2.8724 Bohr (=   1.5200 Ang.)
  Radius for H  used is    2.2677 Bohr (=   1.2000 Ang.)
  Radius for S  used is    4.7054 Bohr (=   2.4900 Ang.)
  Radius for P  used is    4.0062 Bohr (=   2.1200 Ang.)
Calculating surface                               ...        done! (  0.0s)
Cavity surface points                             ...         3045
Cavity Volume                                     ...    2268.5189
Cavity Surface-area                               ...    1273.4761
Calculating surface distance matrix               ...        done! (  0.1s)
Performing Cholesky decomposition & store         ...        done! (  0.3s)
Overall time for CPCM initialization              ...                 0.4s

----------------------------------------D-I-I-S--------------------------------------------
Iteration    Energy (Eh)           Delta-E    RMSDP     MaxDP     DIISErr   Damp  Time(sec)
-------------------------------------------------------------------------------------------
               ***  Starting incremental Fock matrix formation  ***
                              *** Initializing SOSCF ***
---------------------------------------S-O-S-C-F--------------------------------------
Iteration    Energy (Eh)           Delta-E    RMSDP     MaxDP     MaxGrad    Time(sec)
--------------------------------------------------------------------------------------
    1    -1981.5145322101493548     0.00e+00  3.25e-06  2.16e-04  3.41e-05    11.5
               *** Restarting incremental Fock matrix formation ***
    2    -1981.5145320294682278     1.81e-07  6.94e-06  4.64e-04  8.60e-05    11.5
    3    -1981.5145301566763010     1.87e-06  5.30e-06  3.47e-04  2.48e-04     7.8
    4    -1981.5145323995120634    -2.24e-06  6.40e-07  3.91e-05  6.25e-06     7.7
                  *** Gradient check signals convergence ***

               *****************************************************
               *                     SUCCESS                       *
               *           SCF CONVERGED AFTER   4 CYCLES          *
               *****************************************************


SMD CDS free energy correction energy :                 9.95816     Kcal/mol
Total Energy after SMD CDS correction =             -1981.498663059 Eh
             **** ENERGY FILE WAS UPDATED (xtb_opt.en.tmp) ****

----------------
TOTAL SCF ENERGY
----------------

Total Energy       :      -1981.49866305946534 Eh          -53919.31983 eV

Components:
Nuclear Repulsion  :       2083.43220088120916 Eh           56693.07241 eV
Electronic Energy  :      -4064.90506609499835 Eh         -110611.69024 eV
One Electron Energy:      -6874.20572492526844 Eh         -187056.64755 eV
Two Electron Energy:       2809.30065883027009 Eh           76444.95731 eV
CPCM Dielectric    :         -0.04166718572281 Eh              -1.13382 eV
SMD CDS (Gcds)     :          0.01586934004670 Eh               0.43183 eV

Virial components:
Potential Energy   :      -3956.11908917213168 Eh         -107651.47331 eV
Kinetic Energy     :       1974.62042611266634 Eh           53732.15348 eV
Virial Ratio       :          2.00348332107571

DFT components:
N(Alpha)           :       87.000068611137 electrons
N(Beta)            :       87.000068611137 electrons
N(Total)           :      174.000137222273 electrons
E(X)               :     -181.296023492668 Eh       
E(C)               :       -5.957343099156 Eh       
E(XC)              :     -187.253366591824 Eh       

CPCM Solvation Model Properties:
Surface-charge          :         -0.05020403414185
Corrected charge        :         -0.00000000000000
Outlying charge corr.   :          0.00013359426359 Eh               0.00364 eV
Free-energy (cav+disp)  :          0.01586934004670 Eh               0.43183 eV

---------------
SCF CONVERGENCE
---------------

  Last Energy change         ...    2.2428e-06  Tolerance :   1.0000e-07
  Last MAX-Density change    ...    3.9069e-05  Tolerance :   1.0000e-07
  Last RMS-Density change    ...    6.4009e-07  Tolerance :   5.0000e-09
  Last DIIS Error            ...    2.5697e-04  Tolerance :   1.0000e-07
  Last Orbital Gradient      ...    6.2479e-06  Tolerance :   1.0000e-04
  Last Orbital Rotation      ...    2.0537e-05  Tolerance :   1.0000e-04


----------------
ORBITAL ENERGIES
----------------

  NO   OCC          E(Eh)            E(eV) 
   0   2.0000     -88.583608     -2410.4825 
   1   2.0000     -88.534736     -2409.1526 
   2   2.0000     -76.924067     -2093.2103 
   3   2.0000     -19.011918      -517.3406 
   4   2.0000     -19.007882      -517.2308 
   5   2.0000     -18.999890      -517.0133 
   6   2.0000     -18.998862      -516.9853 
   7   2.0000     -18.957384      -515.8566 
   8   2.0000     -18.950324      -515.6645 
   9   2.0000     -10.179470      -276.9975 
  10   2.0000     -10.174395      -276.8594 
  11   2.0000     -10.103283      -274.9243 
  12   2.0000     -10.089913      -274.5605 
  13   2.0000     -10.087454      -274.4936 
  14   2.0000     -10.086290      -274.4619 
  15   2.0000     -10.085351      -274.4364 
  16   2.0000     -10.063073      -273.8301 
  17   2.0000     -10.022348      -272.7219 
  18   2.0000     -10.021835      -272.7080 
  19   2.0000      -7.877195      -214.3494 
  20   2.0000      -7.830021      -213.0657 
  21   2.0000      -6.601837      -179.6451 
  22   2.0000      -5.824120      -158.4824 
  23   2.0000      -5.821013      -158.3978 
  24   2.0000      -5.814436      -158.2189 
  25   2.0000      -5.777544      -157.2150 
  26   2.0000      -5.770273      -157.0171 
  27   2.0000      -5.770068      -157.0115 
  28   2.0000      -4.747440      -129.1844 
  29   2.0000      -4.746764      -129.1660 
  30   2.0000      -4.745650      -129.1357 
  31   2.0000      -1.083013       -29.4703 
  32   2.0000      -1.076188       -29.2846 
  33   2.0000      -1.046389       -28.4737 
  34   2.0000      -1.005593       -27.3636 
  35   2.0000      -0.998037       -27.1580 
  36   2.0000      -0.990930       -26.9646 
  37   2.0000      -0.811325       -22.0773 
  38   2.0000      -0.751185       -20.4408 
  39   2.0000      -0.743304       -20.2263 
  40   2.0000      -0.730138       -19.8681 
  41   2.0000      -0.696782       -18.9604 
  42   2.0000      -0.672020       -18.2866 
  43   2.0000      -0.661068       -17.9886 
  44   2.0000      -0.653812       -17.7911 
  45   2.0000      -0.613819       -16.7029 
  46   2.0000      -0.590354       -16.0644 
  47   2.0000      -0.542666       -14.7667 
  48   2.0000      -0.536288       -14.5931 
  49   2.0000      -0.522635       -14.2216 
  50   2.0000      -0.495136       -13.4733 
  51   2.0000      -0.488491       -13.2925 
  52   2.0000      -0.487817       -13.2742 
  53   2.0000      -0.473876       -12.8948 
  54   2.0000      -0.459315       -12.4986 
  55   2.0000      -0.455957       -12.4072 
  56   2.0000      -0.447757       -12.1841 
  57   2.0000      -0.443734       -12.0746 
  58   2.0000      -0.434389       -11.8203 
  59   2.0000      -0.426506       -11.6058 
  60   2.0000      -0.422393       -11.4939 
  61   2.0000      -0.412391       -11.2217 
  62   2.0000      -0.409229       -11.1357 
  63   2.0000      -0.407928       -11.1003 
  64   2.0000      -0.386830       -10.5262 
  65   2.0000      -0.379735       -10.3331 
  66   2.0000      -0.371186       -10.1005 
  67   2.0000      -0.362630        -9.8677 
  68   2.0000      -0.359421        -9.7803 
  69   2.0000      -0.354402        -9.6438 
  70   2.0000      -0.349998        -9.5239 
  71   2.0000      -0.341595        -9.2953 
  72   2.0000      -0.335357        -9.1255 
  73   2.0000      -0.326616        -8.8877 
  74   2.0000      -0.325579        -8.8595 
  75   2.0000      -0.322877        -8.7859 
  76   2.0000      -0.316927        -8.6240 
  77   2.0000      -0.309679        -8.4268 
  78   2.0000      -0.290532        -7.9058 
  79   2.0000      -0.288521        -7.8511 
  80   2.0000      -0.283143        -7.7047 
  81   2.0000      -0.281384        -7.6568 
  82   2.0000      -0.263776        -7.1777 
  83   2.0000      -0.258954        -7.0465 
  84   2.0000      -0.251896        -6.8544 
  85   2.0000      -0.235916        -6.4196 
  86   2.0000      -0.230519        -6.2727 
  87   0.0000      -0.052547        -1.4299 
  88   0.0000      -0.038114        -1.0371 
  89   0.0000      -0.025639        -0.6977 
  90   0.0000      -0.003263        -0.0888 
  91   0.0000       0.002750         0.0748 
  92   0.0000       0.023473         0.6387 
  93   0.0000       0.049160         1.3377 
  94   0.0000       0.062595         1.7033 
  95   0.0000       0.071208         1.9377 
  96   0.0000       0.089300         2.4300 
  97   0.0000       0.092911         2.5282 
*Only the first 10 virtual orbitals were printed.
Total SCF time: 0 days 0 hours 0 min 42 sec 
Finished LeanSCF after  52.8 sec

Maximum memory used throughout the entire LEANSCF-calculation: 116.7 MB


-------------------------------------------------------------------------------
                          DFT DISPERSION CORRECTION                            
                                                                               
                                DFTD4 V3.4.0                                   
-------------------------------------------------------------------------------
-------------------------   ----------------
Dispersion correction           -0.016254042
-------------------------   ----------------

------------------   -----------------
gCP correction             0.035710989
------------------   -----------------

-------------------------   --------------------
FINAL SINGLE POINT ENERGY     -1981.479206112762
-------------------------   --------------------

------------------------------------------------------------------------------
                         ORCA SCF GRADIENT CALCULATION
------------------------------------------------------------------------------

Nuc. rep. gradient        (SHARK) ... done (  0.0 sec)
HCore & Overlap gradient  (SHARK) ... done (  1.8 sec)
Split-RIJ-J gradient      (SHARK) ... done (  9.3 sec)
XC gradient                       ... done ( 21.0 sec)
CPCM gradient                     ... done ( 10.4 sec)
SMD gradient                      ... done (  0.0 sec)
Dispersion correction             ... done (  0.0 sec)

-------------------
DISPERSION GRADIENT
-------------------

   1   C   :    0.000100802   -0.000043131   -0.000001476
   2   C   :    0.000101908   -0.000012976   -0.000059806
   3   O   :    0.000075623   -0.000060422   -0.000057852
   4   C   :    0.000057619   -0.000045857   -0.000112197
   5   O   :    0.000051456    0.000029891   -0.000143452
   6   C   :    0.000001459   -0.000114633   -0.000062084
   7   C   :    0.000015212   -0.000057906   -0.000045308
   8   H   :    0.000009398    0.000005022   -0.000039805
   9   C   :    0.000051617   -0.000017527    0.000085294
  10   O   :    0.000026085   -0.000013132    0.000136264
  11   O   :    0.000060825    0.000033475    0.000088894
  12   C   :    0.000063505    0.000063793    0.000134453
  13   C   :    0.000064387    0.000105618    0.000083807
  14   S   :   -0.000081697   -0.000173228   -0.000036956
  15   P   :   -0.000197257    0.000075850   -0.000023154
  16   S   :   -0.000117681    0.000289047   -0.000129373
  17   O   :   -0.000092137   -0.000003425   -0.000042342
  18   C   :   -0.000085258   -0.000009681   -0.000099382
  19   O   :   -0.000090193    0.000029538    0.000082573
  20   C   :   -0.000090898   -0.000031368    0.000111887
  21   H   :    0.000026935   -0.000005655    0.000000380
  22   H   :    0.000043586   -0.000021261    0.000004554
  23   H   :    0.000028883   -0.000017867    0.000001259
  24   H   :    0.000027200   -0.000001906   -0.000018549
  25   H   :    0.000047736   -0.000001078   -0.000027924
  26   H   :    0.000000695   -0.000059882   -0.000005219
  27   H   :    0.000003985   -0.000047805   -0.000038955
  28   H   :    0.000022468    0.000012387    0.000047031
  29   H   :    0.000023685    0.000030157    0.000053842
  30   H   :    0.000027029    0.000052434    0.000023085
  31   H   :    0.000032835    0.000046146    0.000038578
  32   H   :    0.000014894    0.000027005    0.000018762
  33   H   :   -0.000035915    0.000006293   -0.000037487
  34   H   :   -0.000042981   -0.000013567   -0.000033237
  35   H   :   -0.000043367   -0.000018717   -0.000046636
  36   H   :   -0.000030237   -0.000000590    0.000052711
  37   H   :   -0.000035995   -0.000023969    0.000054132
  38   H   :   -0.000036210   -0.000011071    0.000043686

Difference to translation invariance:
           :    0.0000000000   -0.0000000000    0.0000000000

Difference to rotation invariance:
           :   -0.0000000000    0.0000000000   -0.0000000000

Norm of the Dispersion gradient    ...    0.0007169116
RMS gradient                       ...    0.0000671449
MAX gradient                       ...    0.0002890465
gCP correction                   ... done

------------------
CARTESIAN GRADIENT
------------------

   1   C   :    0.000019580   -0.000024561    0.000012932
   2   C   :   -0.000118331    0.000024305    0.000059239
   3   O   :    0.000005464    0.000178645   -0.000126545
   4   C   :    0.000145704   -0.000126549    0.000052122
   5   O   :   -0.000047935    0.000039439    0.000075826
   6   C   :    0.000078812   -0.000039796   -0.000052516
   7   C   :   -0.000361035   -0.000326626   -0.000002904
   8   H   :    0.000010355    0.000061974    0.000047419
   9   C   :    0.000392202    0.000297295   -0.000055637
  10   O   :   -0.000128604   -0.000100397    0.000168498
  11   O   :   -0.000149595    0.000122342    0.000376515
  12   C   :   -0.000073018   -0.000389428   -0.000179290
  13   C   :    0.000105967    0.000199622   -0.000045344
  14   S   :    0.000216635    0.000060494    0.000008489
  15   P   :   -0.000114197   -0.000012928    0.000020858
  16   S   :    0.000047021   -0.000008719   -0.000075579
  17   O   :    0.000111854   -0.000112044   -0.000402638
  18   C   :   -0.000044102    0.000102785    0.000321534
  19   O   :   -0.000037551   -0.000017442    0.000102907
  20   C   :    0.000019083    0.000126064   -0.000164673
  21   H   :   -0.000021987   -0.000014181    0.000012399
  22   H   :   -0.000005829    0.000018829   -0.000019808
  23   H   :   -0.000008844    0.000053023    0.000029888
  24   H   :   -0.000000976   -0.000000767    0.000063953
  25   H   :   -0.000008553   -0.000058536   -0.000030694
  26   H   :   -0.000010820   -0.000052741   -0.000028919
  27   H   :    0.000021865    0.000045409   -0.000025544
  28   H   :    0.000071616    0.000130605   -0.000156786
  29   H   :   -0.000088487    0.000028053    0.000039901
  30   H   :   -0.000053164   -0.000084197    0.000088390
  31   H   :   -0.000004594   -0.000040045   -0.000051079
  32   H   :   -0.000007628   -0.000057394   -0.000156476
  33   H   :    0.000010649    0.000077160   -0.000032612
  34   H   :   -0.000075643    0.000021463    0.000045469
  35   H   :    0.000057943   -0.000030029   -0.000042669
  36   H   :    0.000007788    0.000033923    0.000114866
  37   H   :    0.000058136   -0.000107344    0.000011291
  38   H   :   -0.000019784   -0.000017702   -0.000002784

Difference to translation invariance:
           :    0.0000000000    0.0000000000   -0.0000000000

Difference to rotation invariance:
           :   -0.0000873413   -0.0003124745   -0.0000715379

Norm of the Cartesian gradient     ...    0.0013048216
RMS gradient                       ...    0.0001222077
MAX gradient                       ...    0.0004026376

-------
TIMINGS
-------

Total SCF gradient time     ....       42.652 sec

Densities                   ....       0.005 sec  (  0.0%)
One electron gradient       ....       1.817 sec  (  4.3%)
RI-J Coulomb gradient       ....       9.342 sec  ( 21.9%)
XC gradient                 ....      21.011 sec  ( 49.3%)
CPCM gradient               ....      10.430 sec  ( 24.5%)
   A-Matrix (El+Nuc)        ....       0.304 sec  (  0.7%)
   Potential                ....      10.125 sec  ( 23.7%)
SMD gradient                ....       0.004 sec  (  0.0%)

Maximum memory used throughout the entire SCFGRAD-calculation: 81.8 MB

------------------------------------------------------------------------------
                              ORCA PROPERTY CALCULATIONS
------------------------------------------------------------------------------

GBWName                                 ... xtb_opt.gbw
Number of atoms                         ...     38
Number of basis functions               ...    510
Max core memory                         ...   1024 MB

Electric properties:
Dipole moment                           ... YES
Quadrupole moment                       ...  NO
Static polarizability (Dipole/Dipole)   ...  NO
Static polarizability (Dipole/Quad.)    ...  NO
Static polarizability (Quad./Quad.)     ...  NO
Static polarizability (Velocity)        ...  NO

Atomic electric properties:
Dipole moment                           ...  NO
Quadrupole moment                       ...  NO
Static polarizability                   ...  NO

Choice of electric origin               ... Center of mass
Position of electric origin             ...    -0.047729     0.024650    -0.109085

General magnetic properties:
Magnetizability                         ...  NO

EPR properties:
g-Tensor (aka g-matrix)                 ...  NO
Zero-Field splitting spin-orbit         ...  NO
Zero-field splitting spin-spin          ...  NO
Hyperfine couplings                     ...  NO (   0 nuclei)
Quadrupole couplings                    ...  NO (   0 nuclei)
Contact density                         ...  NO (   0 nuclei)

NMR properties:
Chemical shifts                         ...  NO (   0 nuclei)
Spin-rotation constants                 ...  NO (   0 nuclei)
Spin-spin couplings                     ...  NO (   0 nuclei,    0 pairs)

Choice of magnetic origin               ... GIAO
Position of magnetic origin             ...     0.000000     0.000000     0.000000

Properties with geometric perturbations:
SCF Hessian                             ...  NO
IR spectrum                             ...  NO
VCD spectrum                            ...  NO
X-ray spectroscopy properties:
SCF XES/XAS/RIXS spectra                ...  NO


-------------
DIPOLE MOMENT
-------------

Method             : SCF
Type of density    : Electron Density
Multiplicity       :   1
Irrep              :   0
Energy             : -1981.4986630594653434 Eh
Relativity type    : 
Basis              : AO
                                X                 Y                 Z
Electronic contribution:    -19.744218692       2.456118201      -3.491411051
Nuclear contribution   :     21.036153575      -4.768793121       3.813802481
                        -----------------------------------------
Total Dipole Moment    :      1.291934883      -2.312674920       0.322391430
                        -----------------------------------------
Magnitude (a.u.)       :      2.668613359
Magnitude (Debye)      :      6.783076099



--------------------
Rotational spectrum 
--------------------
 
Rotational constants in cm-1:             0.016041             0.005268             0.004713 
Rotational constants in MHz :           480.903966           157.942502           141.286050 

Dipole components along the rotational axes: 
x,y,z [a.u.] :     1.631156     0.681441    -1.999116 
x,y,z [Debye]:     4.146070     1.732085    -5.081349 

 

Dipole moment calculation done in   2.5 sec 

Maximum memory used throughout the entire PROP-calculation: 50.2 MB

--------------------------------
SUGGESTED CITATIONS FOR THIS RUN
--------------------------------

Below you find a list of papers that are relevant to this ORCA run
We neither can nor want to force you to cite these papers, but we appreciate if you do
You receive ORCA, which is the product of decades of hard work by many enthusiastic individuals, for free
The only thing we kindly ask in return is that you cite our papers,
We deeply appreciate it, if you show your appreciation for ORCA by not just citing the generic ORCA reference.

Please note that relegating all ORCA citations to the supporting information does *not* help us.
SI sections are not indexed - citations you put there will not count into any citation statistics
But we need these citations in order to attract the funding resources that allow us to do what we are doing

Therefore, if you are a happy ORCA user, please consider citing a few of the papers listed below in the main body of your paper

In addition to the list printed below, the program has created the file xtb_opt.bibtex that contains the list in bibtex format
You can import this file easily into all common literature databanks and citation aid programs


List of essential papers. We consider these as the minimum necessary citations

  1. Neese,F.
     Software update: the ORCA program system, version 5.0
     WIRES Comput. Molec. Sci., 2022 12(1)e1606
     doi.org/10.1002/wcms.1606
  2. Grimme,S.; Hansen,A.; Ehlert,S.; Mewes,J.
     r2SCAN-3c: A 'Swiss army knife' composite electronic-structure method
     J. Chem. Phys., 2021 154 064103
     doi.org/10.1063/5.0040021

List of papers to cite with high priority. The work reported in these papers was absolutely
necessary for this run to complete.
Our perspective: the developers of density functionals and basis sets usually get cited in chemistry papers
Good! But without the algorithms to do something with them, the functionals or basis sets would not do anything.
Hence, in our opinion, the algorithm design and method developments papers are equally worthy of getting cited

  1. Neese,F.
     An improvement of the resolution of the identity approximation for the formation of the Coulomb matrix
     J. Comp. Chem., 2003 24(14)1740-1747
     doi.org/10.1002/jcc.10318
  2. Garcia-Rates,M.; Neese,F.
     Effect of the Solute Cavity on the Solvation Energy and its Derivatives within the Framework of the Gaussian Charge Scheme
     J. Comput. Chem., 2020 41 922-939
     doi.org/10.1002/jcc.26139
  3. Neese,F.
     The SHARK Integral Generation and Digestion System
     J. Comp. Chem., 2022  1-16
     doi.org/10.1002/jcc.26942
  4. Lehtola,S.; Steigemann,C.; Oliveira,M.; Marques,M.
     Recent developments in Libxc - A comprehensive library of functionals for density functional theory
     Software X, 2018 7 
     doi.org/10.1016/j.softx.2017.11.002
  5. Caldeweyher,E.; Bannwarth,C.; Grimme,S.
     Extension of the D3 dispersion coefficient model
     J. Chem. Phys., 2017 147 034112
     doi.org/10.1063/1.4993215
  6. Caldeweyher,E.; Ehlert,S.; Hansen,A.; Neugebauer,H.; Spicher,S.; Bannwarth,C.; Grimme,S.
     A generally applicable atomic-charge dependent London dispersion correction
     J. Chem. Phys., 2019 150 154122
     doi.org/10.1063/1.5090222
  7. Caldeweyher,E.; Mewes,J.; Ehlert,S.; Grimme,S.
     Extension and evaluation of the D4 London-dispersion model for periodic systems
     Phys. Chem. Chem. Phys., 2020 22(16)8499-8512
     doi.org/10.1039/D0CP00502A
  8. Wittmann,L.; Gordiy,I.; Friede,M.; Helmich-Paris,B.; Grimme,S.; Hansen,A.; Bursch,M.
     Extension of the D3 and D4 London Dispersion Corrections to the full Actinides Series
     Phys. Chem. Chem. Phys., 2024 26(32)21379-21394
     doi.org/https://doi.org/10.1039/D4CP01514B 

List of suggested additional citations. These are papers that are important in the 'surrounding' of 
of this run, or papers that preceded the highly important papers. If you like your results we are grateful for a citation.

  1. Neese,F.
     The ORCA program system
     WIRES Comput. Molec. Sci., 2012 2(1)73-78
     doi.org/10.1002/wcms.81
  2. Neese,F.
     Software update: the ORCA program system, version 4.0
     WIRES Comput. Molec. Sci., 2018 8(1)1-6
     doi.org/10.1002/wcms.1327
  3. Neese,F.; Wennmohs,F.; Becker,U.; Riplinger,C.
     The ORCA quantum chemistry program package
     J. Chem. Phys., 2020 152 Art. No. L224108
     doi.org/10.1063/5.0004608

List of optional additional citations

  1. Neese,F.
     Approximate second-order SCF convergence for spin unrestricted wavefunctions
     Chem. Phys. Lett., 2000 325(1-3)93-98
     doi.org/10.1016/s0009-2614(00)00662-x

Timings for individual modules:

Sum of individual times          ...      104.235 sec (=   1.737 min)
Startup calculation              ...        2.604 sec (=   0.043 min)   2.5 %
SCF iterations                   ...       53.077 sec (=   0.885 min)  50.9 %
Property calculations            ...        2.562 sec (=   0.043 min)   2.5 %
SCF Gradient evaluation          ...       45.992 sec (=   0.767 min)  44.1 %
                             ****ORCA TERMINATED NORMALLY****
TOTAL RUN TIME: 0 days 0 hours 1 minutes 55 seconds 408 msec
  ------------------------------------------------------------------------
          * successful ORCA run, taking over control again...

         :::::::::::::::::::::::::::::::::::::::::::::::::::::
         ::                  ORCA SUMMARY                   ::
         :::::::::::::::::::::::::::::::::::::::::::::::::::::
         :: total energy           -1981.479206112762 Eh    ::
         :: gradient norm              0.001304821598 Eh/a0 ::
         :: HOMO-LUMO gap              0.000000000000 eV    ::
         :::::::::::::::::::::::::::::::::::::::::::::::::::::

      ----------------------------------------------------------- 
     |                       L-ANC optimizer                     |
      ----------------------------------------------------------- 
          low memory version by Sebastian Ehlert

          ...................................................
          :                      SETUP                      :
          :.................................................:
          :   energy convergence        0.5000000E-05 Eh    :
          :   grad. convergence         0.1000000E-02 Eh/a0 :
          :   optimization log               true           :
          :   writing optlog all                1     steps :
          :   Hessian reset                     8     steps :
          :   maximium step len.        1.0000000     a0    :
          :   LBFGS images                      8           :
          ...................................................
 * calculating model hessian...
Using Lindh-Hessian (1995)
 Shifting diagonal of input Hessian by   1.003029852996406E-002
 Lowest  eigenvalues of input Hessian
    0.010000    0.000000    0.000000    0.000000    0.000000    0.000000
    0.000000    0.010238    0.010380    0.010486    0.011303    0.011508
    0.011636    0.012166    0.012764    0.013185    0.014150    0.014588
 Highest eigenvalues
    1.709443    1.730335    1.739008    1.880760    2.292018    2.313258
 

........................................................................
.............................. CYCLE    1 ..............................
........................................................................
                         * ORCA takes the control...
  ------------------------------------------------------------------------

                                 *****************
                                 * O   R   C   A *
                                 *****************

                                            #,                                       
                                            ###                                      
                                            ####                                     
                                            #####                                    
                                            ######                                   
                                           ########,                                 
                                     ,,################,,,,,                         
                               ,,#################################,,                 
                          ,,##########################################,,             
                       ,#########################################, ''#####,          
                    ,#############################################,,   '####,        
                  ,##################################################,,,,####,       
                ,###########''''           ''''###############################       
              ,#####''   ,,,,##########,,,,          '''####'''          '####       
            ,##' ,,,,###########################,,,                        '##       
           ' ,,###''''                  '''############,,,                           
         ,,##''                                '''############,,,,        ,,,,,,###''
      ,#''                                            '''#######################'''  
     '                                                          ''''####''''         
             ,#######,   #######,   ,#######,      ##                                
            ,#'     '#,  ##    ##  ,#'     '#,    #''#        ,####,   ,####,        
            ##       ##  ##   ,#'  ##            #'  '#       #'       #'  '#        
            ##       ##  #######   ##           ,######,      #####,   #    #        
            '#,     ,#'  ##    ##  '#,     ,#' ,#      #,     #,   #   #,  ,#        
             '#######'   ##     ##  '#######'  #'      '#     '####' # '####'        



                #########################################################
                #                        -***-                          #
                #          Department of theory and spectroscopy        #
                #                                                       #
                #                      Frank Neese                      #
                #                                                       #
                #     Directorship, Architecture, Infrastructure        #
                #                    SHARK, DRIVERS                     #
                #        Core code/Algorithms in most modules           #
                #                                                       #
                #        Max Planck Institute fuer Kohlenforschung      #
                #                Kaiser Wilhelm Platz 1                 #
                #                 D-45470 Muelheim/Ruhr                 #
                #                      Germany                          #
                #                                                       #
                #                  All rights reserved                  #
                #                        -***-                          #
                #########################################################


                         Program Version 6.0.1  -  RELEASE   -


 With contributions from (in alphabetic order):
[Max-Planck-Institut fuer Kohlenforschung]                               
  Daniel Aravena         : Magnetic Suceptibility                        
  Michael Atanasov       : Ab Initio Ligand Field Theory (pilot matlab implementation)
  Alexander A. Auer      : GIAO ZORA, VPT2 properties, NMR spectrum      
  Ute Becker             : All parallelization in ORCA, NUMFREQ, NUMCALC 
  Giovanni Bistoni       : ED, misc. LED, open-shell LED, HFLD           
  Martin Brehm           : Molecular dynamics                            
  Dmytro Bykov           : pre 5.0 version of the SCF Hessian            
  Marcos Casanova-Páez   : Triplet and SCS-CIS(D). UHF-(DLPNO)-IP/EA/STEOM-CCSD. UHF-CVS-IP/STEOM-CCSD   
  Vijay G. Chilkuri      : MRCI spin determinant printing, contributions to CSF-ICE 
  Pauline Colinet        : FMM embedding                                 
  Dipayan Datta          : RHF DLPNO-CCSD density                        
  Achintya Kumar Dutta   : EOM-CC, STEOM-CC                              
  Nicolas Foglia         : Exact transition moments, OPA infrastructure, MCD improvements    
  Dmitry Ganyushin       : Spin-Orbit,Spin-Spin,Magnetic field MRCI      
  Miquel Garcia-Rates    : C-PCM and meta-GGA Hessian, CCSD/C-PCM, Gaussian charge scheme 
  Tiago L. C. Gouveia    : GS-ROHF, GS-ROCIS                             
  Yang Guo               : DLPNO-NEVPT2, F12-NEVPT2, CIM, IAO-localization        
  Andreas Hansen         : Spin unrestricted coupled pair/coupled cluster methods 
  Ingolf Harden          : AUTO-CI MPn and infrastructure                
  Benjamin Helmich-Paris : MC-RPA, TRAH-(SCF,CASSCF), AVAS, COSX integrals, SCF dyn. polar. 
  Lee Huntington         : MR-EOM, pCC                                   
  Robert Izsak           : Overlap fitted RIJCOSX, COSX-SCS-MP3, EOM     
  Riya Kayal             : Wick's Theorem for AUTO-CI, AUTO-CI UHF-CCSDT 
  Emily Kempfer          : AUTO-CI, RHF CISDT and CCSDT                  
  Christian Kollmar      : KDIIS, OOCD, Brueckner-CCSD(T), CCSD density, CASPT2, CASPT2-K, improved NEVPT2 
  Axel Koslowski         : Symmetry handling                             
  Simone Kossmann        : meta-GGA functionals, TD-DFT gradient, OOMP2, (MP2 Hessian; deprecated post 5.0) 
  Lucas Lang             : DCDCAS                                        
  Marvin Lechner         : AUTO-CI (C++ implementation), FIC-MRCC        
  Spencer Leger          : CASSCF response                               
  Dagmar Lenk            : GEPOL surface, SMD, ORCA-2-JSON               
  Dimitrios Liakos       : Extrapolation schemes; Compound Job, initial MDCI parallelization 
  Dimitrios Manganas     : Further ROCIS development; embedding schemes. LFT, Crystal Embedding 
  Dimitrios Pantazis     : SARC Basis sets                               
  Anastasios Papadopoulos: AUTO-CI, single reference methods and gradients 
  Taras Petrenko         : pre 6.0 DFT Hessian and TD-DFT gradient, (ASA, deprecated), ECA, 1-Electron XAS/XES, NRVS 
  Peter Pinski           : DLPNO-MP2, DLPNO-MP2 Gradient                 
  Christoph Reimann      : Effective Core Potentials                     
  Marius Retegan         : Local ZFS, SOC                                
  Christoph Riplinger    : Optimizer, TS searches, QM/MM, DLPNO-CCSD(T), (RO)-DLPNO pert. Triples 
  Michael Roemelt        : Original ROCIS implementation                 
  Masaaki Saitow         : Open-shell DLPNO-CCSD energy and density      
  Barbara Sandhoefer     : DKH picture change effects                    
  Kantharuban Sivalingam : CASSCF convergence/infrastructure, NEVPT2 and variants, FIC-MRCI 
  Bernardo de Souza      : ESD, SOC TD-DFT                               
  Georgi L. Stoychev     : AutoAux, RI-MP2 NMR, DLPNO-MP2 response, X2C  
  Van Anh Tran           : RI-MP2 g-tensors                              
  Willem Van den Heuvel  : Paramagnetic NMR                              
  Zikuan Wang            : NOTCH, Electric field optimization            
  Frank Wennmohs         : Technical directorship and infrastructure     
  Hang Xu                : AUTO-CI-Response properties                   
                                                                         
[FACCTs GmbH]                                                            
  Markus Bursch, Miquel Garcia-Rates, Christoph Riplinger, Bernardo de Souza, Georgi L. Stoychev 
                                                                 
  APM, Basis sets (HGBS, AHGBS, def-TZVP (Ac-Lr), def2-XVPD (La-Lu)), CI-OPT, improved COSX, DLPNO-Multilevel,           
  DOCKER, DRACO, updates on ESD, GOAT, IRC, LR-CPCM, MBIS, meta-GGA TD-DFT gradient, ML-optimized integration grids, 
  MM, NACMEs, nearIR, NEB, NEB-TS, NL-DFT gradient (VV10), 2- and 3-layer-ONIOM, interface openCOSMO-RS, QMMM,   
  Crystal-QMMM, SF, symmetry and pop. for TD-DFT, r2SCAN hybrids, SOLVATOR                                   
                                                                         
[Other institutions]                                                     
  V. Asgeirsson          : NEB                                           
  Christoph Bannwarth    : sTDA-DFT, sTD-DFT, PBEh-3c, B97-3c, D3        
  Sebastian Ehlert       : rSCAN, r2SCAN, r2SCAN-3c, D4, dhf basis sets  
  Marvin Friede          : D4 for Fr, Ra, Ac-Lr                          
  Lars Goerigk           : TD-DFT with DH, B97 family of functionals     
  Stefan Grimme          : VdW corrections, initial TS optimization, DFT functionals, gCP, sTDA/sTD-DF 
  Waldemar Hujo          : DFT-NL                                        
  H. Jonsson             : NEB                                           
  Holger Kruse           : gCP                                           
  Marcel Mueller         : wB97X-3c, vDZP basis set                      
  Hagen Neugebauer       : wr2SCAN                                       
  Tobias Risthaus        : range-separated hybrid DFT                    
  Lukas Wittmann         : regularized MP2, r2SCAN double-hybrids, wr2SCAN        
                                                                         
We gratefully acknowledge several colleagues who have allowed us to      
interface, adapt or use parts of their codes:                            
  Ed Valeev, F. Pavosevic, A. Kumar             : LibInt (2-el integral package), F12 methods 
  Garnet Chan, S. Sharma, J. Yang, R. Olivares  : DMRG                   
  Ulf Ekstrom                                   : XCFun DFT Library      
  Mihaly Kallay                                 : mrcc  (arbitrary order and MRCC methods)
  Frank Weinhold                                : gennbo (NPA and NBO analysis)           
  Simon Mueller                                 : openCOSMO-RS                            
  Christopher J. Cramer and Donald G. Truhlar   : smd solvation model                     
  S Lehtola, MJT Oliveira, MAL Marques          : LibXC Library                           
  Liviu Ungur et al                             : ANISO software                          


 Your calculation uses the libint2 library for the computation of 2-el integrals
 For citations please refer to: http://libint.valeyev.net

 Your ORCA version has been built with support for libXC version: 6.2.2
 For citations please refer to: https://libxc.gitlab.io

 This ORCA versions uses:
   CBLAS   interface :  Fast vector & matrix operations
   LAPACKE interface :  Fast linear algebra routines
   SCALAPACK package :  Parallel linear algebra routines
   Shared memory     :  Shared parallel matrices
   BLAS/LAPACK       :  OpenBLAS 0.3.27  USE64BITINT DYNAMIC_ARCH NO_AFFINITY Zen SINGLE_THREADED
        Core in use  :  Zen
   Copyright (c) 2011-2014, The OpenBLAS Project




***************************************
The coordinates will be read from file: xtb_opt.xyz
***************************************


Your calculation utilizes the geometrical counterpoise correction gCP
Please cite in your paper:
H.Kruse, S. Grimme J.Chem.Phys., 136, (2012), 154101 
   

Your calculation utilizes the atom-pairwise dispersion correction
based on EEQ partial charges (D4)


Your calculation utilizes the SMD solvation module
Please cite in your paper:
A.V. Marenich, C.J. Cramer, D.G. Truhlar J. Phys. Chem. B, 113, (2009), 6378 

================================================================================

----- Orbital basis set information -----
Your calculation utilizes the basis: def2-mTZVPP
   Stefan Grimme, Andreas Hansen, Sebastian Ehlert, and Jan-Michael Mewes 
   J. Chem. Phys. 154, 064103 (2021). DOI: 10.1063/5.0040021

----- AuxJ basis set information -----
Your calculation utilizes the auxiliary basis: def2/J
   F. Weigend, Phys. Chem. Chem. Phys. 8, 1057 (2006).

================================================================================
                                        WARNINGS
                       Please study these warnings very carefully!
================================================================================

WARNING: Old DensityContainer found on disk!
         Will remove this file - 
         If you want to keep old densities, please start your calculation with a different basename. 



WARNING: SCAN, rSCAN, or r2SCAN functional requested.
  ===> : libXC variant has now been activated.



================================================================================
                                       INPUT FILE
================================================================================
NAME = xtb_opt.inp
|  1> ! r2scan-3c def2/J RI DEFGRID2 scfconv7 ENGRAD tightSCF miniprint
|  2> %cpcm
|  3>     smd true
|  4>     smdsolvent "water"
|  5> end
|  6> * xyzfile 0 1 xtb_opt.xyz
|  7> 
|  8>                          ****END OF INPUT****
================================================================================

                     *******************************
                     * Energy+Gradient Calculation *
                     *******************************

---------------------------------
CARTESIAN COORDINATES (ANGSTROEM)
---------------------------------
  C      5.903005   -1.960969   -0.905653
  C      4.835305   -1.074153   -1.490803
  O      3.543380   -1.590862   -1.026116
  C      2.461922   -0.906710   -1.413092
  O      2.496818    0.083418   -2.122371
  C      1.185521   -1.541516   -0.910965
  C      0.227633   -0.482885   -0.346523
  H      0.195660    0.376719   -1.028260
  C      0.682197    0.038231    1.012687
  O     -0.022164    0.173616    1.991583
  O      1.979902    0.352105    0.954233
  C      2.580078    0.966538    2.145792
  C      2.296226    2.448925    2.171743
  S     -1.466877   -1.194782   -0.285490
  P     -2.660221    0.551869   -0.068978
  S     -1.927858    2.176963   -0.838445
  O     -4.064828   -0.000086   -0.637679
  C     -4.270060   -0.140711   -2.071552
  O     -3.028913    0.753224    1.478070
  C     -3.505118   -0.353326    2.299764
  H      6.882067   -1.600836   -1.234919
  H      5.878143   -1.937149    0.187516
  H      5.785915   -2.994621   -1.243241
  H      4.836033   -1.091878   -2.584480
  H      4.927292   -0.038722   -1.149792
  H      1.403073   -2.316169   -0.173291
  H      0.724243   -2.016645   -1.784826
  H      2.199529    0.450549    3.030324
  H      3.645279    0.758456    2.032907
  H      2.671025    2.930391    1.264029
  H      1.225450    2.648566    2.266867
  H      2.806798    2.892148    3.032403
  H     -4.246186    0.842545   -2.547647
  H     -5.256389   -0.590540   -2.183168
  H     -3.509141   -0.794140   -2.507137
  H     -3.648639    0.067294    3.294821
  H     -2.753520   -1.146109    2.333775
  H     -4.451922   -0.734797    1.910587

----------------------------
CARTESIAN COORDINATES (A.U.)
----------------------------
  NO LB      ZA    FRAG     MASS         X           Y           Z
   0 C     6.0000    0    12.011   11.155064   -3.705694   -1.711436
   1 C     6.0000    0    12.011    9.137403   -2.029854   -2.817210
   2 O     8.0000    0    15.999    6.696017   -3.006293   -1.939078
   3 C     6.0000    0    12.011    4.652358   -1.713433   -2.670356
   4 O     8.0000    0    15.999    4.718301    0.157637   -4.010700
   5 C     6.0000    0    12.011    2.240311   -2.913043   -1.721475
   6 C     6.0000    0    12.011    0.430165   -0.912521   -0.654833
   7 H     1.0000    0     1.008    0.369744    0.711896   -1.943129
   8 C     6.0000    0    12.011    1.289165    0.072247    1.913702
   9 O     8.0000    0    15.999   -0.041884    0.328087    3.763546
  10 O     8.0000    0    15.999    3.741473    0.665381    1.803239
  11 C     6.0000    0    12.011    4.875641    1.826492    4.054960
  12 C     6.0000    0    12.011    4.339239    4.627798    4.104000
  13 S    16.0000    0    32.060   -2.771995   -2.257811   -0.539499
  14 P    15.0000    0    30.974   -5.027088    1.042882   -0.130349
  15 S    16.0000    0    32.060   -3.643124    4.113864   -1.584431
  16 O     8.0000    0    15.999   -7.681412   -0.000163   -1.205039
  17 C     6.0000    0    12.011   -8.069244   -0.265905   -3.914666
  18 O     8.0000    0    15.999   -5.723816    1.423387    2.793148
  19 C     6.0000    0    12.011   -6.623713   -0.667690    4.345924
  20 H     1.0000    0     1.008   13.005222   -3.025142   -2.333658
  21 H     1.0000    0     1.008   11.108080   -3.660681    0.354354
  22 H     1.0000    0     1.008   10.933795   -5.659013   -2.349384
  23 H     1.0000    0     1.008    9.138778   -2.063351   -4.883959
  24 H     1.0000    0     1.008    9.311232   -0.073175   -2.172792
  25 H     1.0000    0     1.008    2.651424   -4.376926   -0.327473
  26 H     1.0000    0     1.008    1.368621   -3.810907   -3.372833
  27 H     1.0000    0     1.008    4.156507    0.851415    5.726482
  28 H     1.0000    0     1.008    6.888579    1.433274    3.841638
  29 H     1.0000    0     1.008    5.047506    5.537637    2.388668
  30 H     1.0000    0     1.008    2.315766    5.005065    4.283758
  31 H     1.0000    0     1.008    5.304080    5.465368    5.730411
  32 H     1.0000    0     1.008   -8.024128    1.592180   -4.814355
  33 H     1.0000    0     1.008   -9.933136   -1.115959   -4.125590
  34 H     1.0000    0     1.008   -6.631315   -1.500707   -4.737803
  35 H     1.0000    0     1.008   -6.894929    0.127167    6.226309
  36 H     1.0000    0     1.008   -5.203399   -2.165833    4.410196
  37 H     1.0000    0     1.008   -8.412914   -1.388565    3.610486

------------------------------------------------------------------------------
                   ___                                                        
                  /   \      - P O W E R E D   B Y -                         
                 /     \                                                     
                 |  |  |   _    _      __       _____    __    __             
                 |  |  |  | |  | |    /  \     |  _  \  |  |  /  |          
                  \  \/   | |  | |   /    \    | | | |  |  | /  /          
                 / \  \   | |__| |  /  /\  \   | |_| |  |  |/  /          
                |  |  |   |  __  | /  /__\  \  |    /   |      \           
                |  |  |   | |  | | |   __   |  |    \   |  |\   \          
                \     /   | |  | | |  |  |  |  | |\  \  |  | \   \       
                 \___/    |_|  |_| |__|  |__|  |_| \__\ |__|  \__/        
                                                                              
                      - O R C A' S   B I G   F R I E N D -                    
                                      &                                       
                       - I N T E G R A L  F E E D E R -                       
                                                                              
 v1 FN, 2020, v2 2021, v3 2022-2024                                           
------------------------------------------------------------------------------


----------------------
SHARK INTEGRAL PACKAGE
----------------------

Number of atoms                             ...     38
Number of basis functions                   ...    510
Number of shells                            ...    240
Maximum angular momentum                    ...      2
Integral batch strategy                     ... SHARK/LIBINT Hybrid
RI-J (if used) integral strategy            ... SPLIT-RIJ (Revised 2003 algorithm where possible)
Printlevel                                  ...      1
Contraction scheme used                     ... SEGMENTED contraction
Prescreening option                         ... SCHWARTZ
   Thresh                                   ... 3.000e-11
   Tcut                                     ... 1.000e-12
   Tpresel                                  ... 1.000e-12 
Coulomb Range Separation                    ... NOT USED
Exchange Range Separation                   ... NOT USED
Multipole approximations                    ... NOT USED
Finite Nucleus Model                        ... NOT USED
CABS basis                                  ... NOT available
Auxiliary Coulomb fitting basis             ... AVAILABLE
   # of basis functions in Aux-J            ...   1146
   # of shells in Aux-J                     ...    386
   Maximum angular momentum in Aux-J        ...      4
Auxiliary J/K fitting basis                 ... NOT available
Auxiliary Correlation fitting basis         ... NOT available
Auxiliary 'external' fitting basis          ... NOT available

Checking pre-screening integrals            ... done (  0.0 sec) Dimension = 240
Check shell pair data                       ... done (  0.0 sec)
Shell pair information
Shell pair cut-off parameter TPreSel        ...   1.0e-12
Total number of shell pairs                 ...     28920
Shell pairs after pre-screening             ...     19703
Total number of primitive shell pairs       ...    108409
Primitive shell pairs kept                  ...     45622
          la=0 lb=0:   5668 shell pairs
          la=1 lb=0:   7160 shell pairs
          la=1 lb=1:   2285 shell pairs
[...]

Nuc. rep. gradient        (SHARK) ... done (  0.0 sec)
HCore & Overlap gradient  (SHARK) ... done (  1.9 sec)
Split-RIJ-J gradient      (SHARK) ... done (  9.4 sec)
XC gradient                       ... done ( 20.9 sec)
CPCM gradient                     ... done ( 10.8 sec)
SMD gradient                      ... done (  0.0 sec)
Dispersion correction             ... done (  0.0 sec)

-------------------
DISPERSION GRADIENT
-------------------

   1   C   :    0.000100628   -0.000043098   -0.000001353
   2   C   :    0.000101695   -0.000013039   -0.000059587
   3   O   :    0.000075552   -0.000060451   -0.000057575
   4   C   :    0.000057352   -0.000045795   -0.000112026
   5   O   :    0.000051083    0.000029625   -0.000143215
   6   C   :    0.000001440   -0.000114422   -0.000061749
   7   C   :    0.000015483   -0.000057410   -0.000045635
   8   H   :    0.000009635    0.000005145   -0.000039970
   9   C   :    0.000051759   -0.000016818    0.000084595
  10   O   :    0.000026232   -0.000012232    0.000135473
  11   O   :    0.000060944    0.000033837    0.000088860
  12   C   :    0.000063440    0.000063442    0.000133958
  13   C   :    0.000064287    0.000104925    0.000083716
  14   S   :   -0.000081697   -0.000172353   -0.000037617
  15   P   :   -0.000197118    0.000076060   -0.000022808
  16   S   :   -0.000117417    0.000289204   -0.000128491
  17   O   :   -0.000092082   -0.000003496   -0.000042318
  18   C   :   -0.000085211   -0.000010134   -0.000099311
  19   O   :   -0.000090120    0.000029298    0.000082702
  20   C   :   -0.000090753   -0.000031583    0.000111854
  21   H   :    0.000026914   -0.000005641    0.000000408
  22   H   :    0.000043461   -0.000021225    0.000004588
  23   H   :    0.000028805   -0.000017850    0.000001293
  24   H   :    0.000027139   -0.000001912   -0.000018476
  25   H   :    0.000047705   -0.000001094   -0.000027823
  26   H   :    0.000000728   -0.000059790   -0.000005020
  27   H   :    0.000003884   -0.000047858   -0.000038710
  28   H   :    0.000022553    0.000012379    0.000047062
  29   H   :    0.000023683    0.000030141    0.000053691
  30   H   :    0.000026950    0.000051998    0.000022959
  31   H   :    0.000032770    0.000045841    0.000038581
  32   H   :    0.000014886    0.000026837    0.000018822
  33   H   :   -0.000036006    0.000006148   -0.000037608
  34   H   :   -0.000042967   -0.000013722   -0.000033297
  35   H   :   -0.000043387   -0.000018947   -0.000046586
  36   H   :   -0.000030136   -0.000000753    0.000052672
  37   H   :   -0.000035967   -0.000024084    0.000054244
  38   H   :   -0.000036146   -0.000011173    0.000043700

Difference to translation invariance:
           :    0.0000000000    0.0000000000    0.0000000000

Difference to rotation invariance:
           :    0.0000000000    0.0000000000    0.0000000000

Norm of the Dispersion gradient    ...    0.0007156591
RMS gradient                       ...    0.0000670276
MAX gradient                       ...    0.0002892045
gCP correction                   ... done

------------------
CARTESIAN GRADIENT
------------------

   1   C   :   -0.000008177    0.000028107    0.000002968
   2   C   :    0.000146836    0.000017133   -0.000032820
   3   O   :    0.000040265   -0.000139675    0.000062837
   4   C   :   -0.000158362    0.000162818   -0.000048834
   5   O   :    0.000034828   -0.000068003    0.000002436
   6   C   :   -0.000043274    0.000021109    0.000018044
   7   C   :    0.000237115    0.000168576    0.000019748
   8   H   :   -0.000018749   -0.000024669    0.000001229
   9   C   :   -0.000370875   -0.000223102    0.000031584
  10   O   :    0.000098027    0.000035940   -0.000099960
  11   O   :    0.000155259   -0.000084146   -0.000189746
  12   C   :    0.000089255    0.000235070    0.000205113
  13   C   :   -0.000011138   -0.000103701   -0.000031988
  14   S   :   -0.000194878   -0.000021351   -0.000027943
  15   P   :    0.000006414    0.000042388   -0.000044904
  16   S   :    0.000045644    0.000012000   -0.000046485
  17   O   :   -0.000000364   -0.000055474    0.000207755
  18   C   :    0.000013552    0.000013667   -0.000266844
  19   O   :   -0.000006816    0.000007651    0.000001435
  20   C   :   -0.000014767   -0.000109233    0.000099329
  21   H   :    0.000006289    0.000015437    0.000004729
  22   H   :    0.000006956    0.000007246    0.000020230
  23   H   :    0.000009580   -0.000007672    0.000006751
  24   H   :    0.000001134    0.000017865   -0.000001172
  25   H   :   -0.000031800    0.000019345    0.000033978
  26   H   :    0.000020085   -0.000002989   -0.000003232
  27   H   :   -0.000013419   -0.000009539    0.000003939
  28   H   :   -0.000026720   -0.000046043    0.000033809
  29   H   :    0.000015029   -0.000029885    0.000004645
  30   H   :    0.000020861   -0.000003056   -0.000058246
  31   H   :   -0.000002972    0.000009300   -0.000004847
  32   H   :    0.000017695    0.000038210    0.000012507
  33   H   :    0.000000742    0.000018403    0.000045780
  34   H   :   -0.000024408    0.000004887    0.000023602
  35   H   :   -0.000010917   -0.000006425    0.000036062
  36   H   :    0.000006976    0.000012405   -0.000022798
  37   H   :   -0.000029379    0.000022904   -0.000005967
  38   H   :   -0.000005528    0.000024500    0.000007277

Difference to translation invariance:
           :   -0.0000000000    0.0000000000   -0.0000000000

Difference to rotation invariance:
           :   -0.0000942353   -0.0003607794   -0.0000727886

Norm of the Cartesian gradient     ...    0.0008954369
RMS gradient                       ...    0.0000838653
MAX gradient                       ...    0.0003708750

-------
TIMINGS
-------

Total SCF gradient time     ....       43.067 sec

Densities                   ....       0.006 sec  (  0.0%)
One electron gradient       ....       1.895 sec  (  4.4%)
RI-J Coulomb gradient       ....       9.365 sec  ( 21.7%)
XC gradient                 ....      20.912 sec  ( 48.6%)
CPCM gradient               ....      10.836 sec  ( 25.2%)
   A-Matrix (El+Nuc)        ....       0.304 sec  (  0.7%)
   Potential                ....      10.533 sec  ( 24.5%)
SMD gradient                ....       0.006 sec  (  0.0%)

Maximum memory used throughout the entire SCFGRAD-calculation: 81.5 MB

------------------------------------------------------------------------------
                              ORCA PROPERTY CALCULATIONS
------------------------------------------------------------------------------

GBWName                                 ... xtb_opt.gbw
Number of atoms                         ...     38
Number of basis functions               ...    510
Max core memory                         ...   1024 MB

Electric properties:
Dipole moment                           ... YES
Quadrupole moment                       ...  NO
Static polarizability (Dipole/Dipole)   ...  NO
Static polarizability (Dipole/Quad.)    ...  NO
Static polarizability (Quad./Quad.)     ...  NO
Static polarizability (Velocity)        ...  NO

Atomic electric properties:
Dipole moment                           ...  NO
Quadrupole moment                       ...  NO
Static polarizability                   ...  NO

Choice of electric origin               ... Center of mass
Position of electric origin             ...    -0.048938     0.029773    -0.111020

General magnetic properties:
Magnetizability                         ...  NO

EPR properties:
g-Tensor (aka g-matrix)                 ...  NO
Zero-Field splitting spin-orbit         ...  NO
Zero-field splitting spin-spin          ...  NO
Hyperfine couplings                     ...  NO (   0 nuclei)
Quadrupole couplings                    ...  NO (   0 nuclei)
Contact density                         ...  NO (   0 nuclei)

NMR properties:
Chemical shifts                         ...  NO (   0 nuclei)
Spin-rotation constants                 ...  NO (   0 nuclei)
Spin-spin couplings                     ...  NO (   0 nuclei,    0 pairs)

Choice of magnetic origin               ... GIAO
Position of magnetic origin             ...     0.000000     0.000000     0.000000

Properties with geometric perturbations:
SCF Hessian                             ...  NO
IR spectrum                             ...  NO
VCD spectrum                            ...  NO
X-ray spectroscopy properties:
SCF XES/XAS/RIXS spectra                ...  NO


-------------
DIPOLE MOMENT
-------------

Method             : SCF
Type of density    : Electron Density
Multiplicity       :   1
Irrep              :   0
Energy             : -1981.4986696630971892 Eh
Relativity type    : 
Basis              : AO
                                X                 Y                 Z
Electronic contribution:    -19.756042852       2.530359273      -3.522247051
Nuclear contribution   :     21.054150678      -4.855570959       3.855923384
                        -----------------------------------------
Total Dipole Moment    :      1.298107827      -2.325211686       0.333676333
                        -----------------------------------------
Magnitude (a.u.)       :      2.683846719
Magnitude (Debye)      :      6.821796222



--------------------
Rotational spectrum 
--------------------
 
Rotational constants in cm-1:             0.016025             0.005265             0.004707 
Rotational constants in MHz :           480.421250           157.855554           141.102681 

Dipole components along the rotational axes: 
x,y,z [a.u.] :     1.640315     0.679300    -2.012698 
x,y,z [Debye]:     4.169349     1.726644    -5.115871 

 

Dipole moment calculation done in   2.0 sec 

Maximum memory used throughout the entire PROP-calculation: 50.2 MB

--------------------------------
SUGGESTED CITATIONS FOR THIS RUN
--------------------------------

Below you find a list of papers that are relevant to this ORCA run
We neither can nor want to force you to cite these papers, but we appreciate if you do
You receive ORCA, which is the product of decades of hard work by many enthusiastic individuals, for free
The only thing we kindly ask in return is that you cite our papers,
We deeply appreciate it, if you show your appreciation for ORCA by not just citing the generic ORCA reference.

Please note that relegating all ORCA citations to the supporting information does *not* help us.
SI sections are not indexed - citations you put there will not count into any citation statistics
But we need these citations in order to attract the funding resources that allow us to do what we are doing

Therefore, if you are a happy ORCA user, please consider citing a few of the papers listed below in the main body of your paper

In addition to the list printed below, the program has created the file xtb_opt.bibtex that contains the list in bibtex format
You can import this file easily into all common literature databanks and citation aid programs


List of essential papers. We consider these as the minimum necessary citations

  1. Neese,F.
     Software update: the ORCA program system, version 5.0
     WIRES Comput. Molec. Sci., 2022 12(1)e1606
     doi.org/10.1002/wcms.1606
  2. Grimme,S.; Hansen,A.; Ehlert,S.; Mewes,J.
     r2SCAN-3c: A 'Swiss army knife' composite electronic-structure method
     J. Chem. Phys., 2021 154 064103
     doi.org/10.1063/5.0040021

List of papers to cite with high priority. The work reported in these papers was absolutely
necessary for this run to complete.
Our perspective: the developers of density functionals and basis sets usually get cited in chemistry papers
Good! But without the algorithms to do something with them, the functionals or basis sets would not do anything.
Hence, in our opinion, the algorithm design and method developments papers are equally worthy of getting cited

  1. Neese,F.
     An improvement of the resolution of the identity approximation for the formation of the Coulomb matrix
     J. Comp. Chem., 2003 24(14)1740-1747
     doi.org/10.1002/jcc.10318
  2. Garcia-Rates,M.; Neese,F.
     Effect of the Solute Cavity on the Solvation Energy and its Derivatives within the Framework of the Gaussian Charge Scheme
     J. Comput. Chem., 2020 41 922-939
     doi.org/10.1002/jcc.26139
  3. Neese,F.
     The SHARK Integral Generation and Digestion System
     J. Comp. Chem., 2022  1-16
     doi.org/10.1002/jcc.26942
  4. Lehtola,S.; Steigemann,C.; Oliveira,M.; Marques,M.
     Recent developments in Libxc - A comprehensive library of functionals for density functional theory
     Software X, 2018 7 
     doi.org/10.1016/j.softx.2017.11.002
  5. Caldeweyher,E.; Bannwarth,C.; Grimme,S.
     Extension of the D3 dispersion coefficient model
     J. Chem. Phys., 2017 147 034112
     doi.org/10.1063/1.4993215
  6. Caldeweyher,E.; Ehlert,S.; Hansen,A.; Neugebauer,H.; Spicher,S.; Bannwarth,C.; Grimme,S.
     A generally applicable atomic-charge dependent London dispersion correction
     J. Chem. Phys., 2019 150 154122
     doi.org/10.1063/1.5090222
  7. Caldeweyher,E.; Mewes,J.; Ehlert,S.; Grimme,S.
     Extension and evaluation of the D4 London-dispersion model for periodic systems
     Phys. Chem. Chem. Phys., 2020 22(16)8499-8512
     doi.org/10.1039/D0CP00502A
  8. Wittmann,L.; Gordiy,I.; Friede,M.; Helmich-Paris,B.; Grimme,S.; Hansen,A.; Bursch,M.
     Extension of the D3 and D4 London Dispersion Corrections to the full Actinides Series
     Phys. Chem. Chem. Phys., 2024 26(32)21379-21394
     doi.org/https://doi.org/10.1039/D4CP01514B 

List of suggested additional citations. These are papers that are important in the 'surrounding' of 
of this run, or papers that preceded the highly important papers. If you like your results we are grateful for a citation.

  1. Neese,F.
     The ORCA program system
     WIRES Comput. Molec. Sci., 2012 2(1)73-78
     doi.org/10.1002/wcms.81
  2. Neese,F.
     Software update: the ORCA program system, version 4.0
     WIRES Comput. Molec. Sci., 2018 8(1)1-6
     doi.org/10.1002/wcms.1327
  3. Neese,F.; Wennmohs,F.; Becker,U.; Riplinger,C.
     The ORCA quantum chemistry program package
     J. Chem. Phys., 2020 152 Art. No. L224108
     doi.org/10.1063/5.0004608

List of optional additional citations

  1. Neese,F.
     Approximate second-order SCF convergence for spin unrestricted wavefunctions
     Chem. Phys. Lett., 2000 325(1-3)93-98
     doi.org/10.1016/s0009-2614(00)00662-x

Timings for individual modules:

Sum of individual times          ...       83.770 sec (=   1.396 min)
Startup calculation              ...        2.558 sec (=   0.043 min)   3.1 %
SCF iterations                   ...       33.595 sec (=   0.560 min)  40.1 %
Property calculations            ...        2.272 sec (=   0.038 min)   2.7 %
SCF Gradient evaluation          ...       45.345 sec (=   0.756 min)  54.1 %
                             ****ORCA TERMINATED NORMALLY****
TOTAL RUN TIME: 0 days 0 hours 1 minutes 31 seconds 227 msec
  ------------------------------------------------------------------------
          * successful ORCA run, taking over control again...

         :::::::::::::::::::::::::::::::::::::::::::::::::::::
         ::                  ORCA SUMMARY                   ::
         :::::::::::::::::::::::::::::::::::::::::::::::::::::
         :: total energy           -1981.479219472641 Eh    ::
         :: gradient norm              0.000895436879 Eh/a0 ::
         :: HOMO-LUMO gap              0.000000000000 eV    ::
         :::::::::::::::::::::::::::::::::::::::::::::::::::::

           -------------------------------------------------
          |                Property Printout                |
           -------------------------------------------------
           -------------------------------------------------
          |                Geometry Summary                 |
           -------------------------------------------------

      molecular mass/u    :      330.3579996
   center of mass at/Å    :       -0.0259558       0.0157715      -0.0587640
  moments of inertia/u·Å² :        0.1051968E+04   0.3201556E+04   0.3581640E+04
rotational constants/cm⁻¹ :        0.1602485E-01   0.5265450E-02   0.4706680E-02

 * 31 selected distances

     #   Z          #   Z                                           value/Å
     1   6 C        2   6 C                                       1.5062081
     3   8 O        4   6 C                                       1.3373173
     4   6 C        5   8 O                                       1.2183648
     6   6 C        7   6 C                                       1.5352705
     7   6 C        8   1 H                                       1.0974843
     9   6 C       10   8 O                                       1.2134190
     9   6 C       11   8 O                                       1.3369885
    12   6 C       13   6 C                                       1.5092440
    14  16 S       15  15 P                                       2.1262833 (max)
    15  15 P       16  16 S                                       1.9416350
    15  15 P       17   8 O                                       1.6130439
    17   8 O       18   6 C                                       1.4559605
    15  15 P       19   8 O                                       1.6030693
     1   6 C       21   1 H                                       1.0939500
     1   6 C       22   1 H                                       1.0937094
     1   6 C       23   1 H                                       1.0936681
     2   6 C       24   1 H                                       1.0937648
     2   6 C       25   1 H                                       1.0940145
     6   6 C       26   1 H                                       1.0915919
     6   6 C       27   1 H                                       1.0964288
    12   6 C       28   1 H                                       1.0924365
    12   6 C       29   1 H                                       1.0911493
    13   6 C       30   1 H                                       1.0937151
    13   6 C       31   1 H                                       1.0933327
    13   6 C       32   1 H                                       1.0945540
    18   6 C       33   1 H                                       1.0926795
    18   6 C       34   1 H                                       1.0898279
    18   6 C       35   1 H                                       1.0934341
    20   6 C       36   1 H                                       1.0898059 (min)
    20   6 C       37   1 H                                       1.0929294
    20   6 C       38   1 H                                       1.0924145

 * 5 distinct bonds (by element types)

   Z      Z             #   av. dist./Å        max./Å        min./Å
   1 H    6 C          19     1.0932048     1.0974843     1.0898059
   6 C    6 C           3     1.5169075     1.5352705     1.5062081
   6 C    8 O           5     1.3124100     1.4559605     1.2134190
   8 O   15 P           2     1.6080566     1.6130439     1.6030693
  15 P   16 S           2     2.0339591     2.1262833     1.9416350


optimized geometry written to: xtbopt.coord


           -------------------------------------------------
          | TOTAL ENERGY            -1981.479219472641 Eh   |
          | GRADIENT NORM               0.000895436879 Eh/α |
           -------------------------------------------------

------------------------------------------------------------------------
 * finished run on 2025/04/09 at 14:00:21.623     
------------------------------------------------------------------------
 total:
 * wall-time:     0 d,  0 h,  9 min, 17.909 sec
 *  cpu-time:     0 d,  0 h,  0 min, 25.673 sec
 * ratio c/w:     0.046 speedup
 SCF:
 * wall-time:     0 d,  0 h,  1 min, 55.436 sec
 *  cpu-time:     0 d,  0 h,  0 min,  9.861 sec
 * ratio c/w:     0.085 speedup
 ANC optimizer:
 * wall-time:     0 d,  0 h,  7 min, 22.407 sec
 *  cpu-time:     0 d,  0 h,  0 min, 14.652 sec
 * ratio c/w:     0.033 speedup

