38
 energy: -64.702891555137 gnorm: 0.052433924036 xtb: 6.7.1 (edcfbbe)
C            2.21360056557731       -3.10545874946291        0.33501832533785
C            3.27761849571045       -2.29106834744262       -0.36612815431402
O            2.72057918814204       -1.01516977742905       -0.82826051494298
C            2.00897621645977       -1.02829175823085       -1.96018528775707
O            1.90017304144166       -1.99457443070869       -2.69595387428319
C            1.35065279254730        0.31018672282999       -2.20853053295849
C            0.39327044899994        0.71630106544749       -1.07228428751722
H           -0.08467875568577        1.66257088765033       -1.34871744717860
C            1.11567067679996        0.95099184973282        0.25434076267475
O            0.93613956198413        0.34044589435427        1.28857473028974
O            1.96460587980219        1.96834682398893        0.09754902342312
C            2.74241636519822        2.38460997501437        1.26555304334913
C            1.96349008375485        3.38780958762768        2.08507295959308
S           -0.91092528796909       -0.58170438751038       -0.98394515246467
P           -2.21534136245444        0.14743612028468        0.52804644877237
S           -2.19576287454008        2.06705208776512        0.80946605351411
O           -3.59905785456743       -0.54059079671590        0.08012465366923
C           -4.38064387459138       -0.01525862165460       -1.02621075135757
O           -1.92292543419546       -0.67130312215428        1.87711792077480
C           -1.80510304876726       -2.12572037788443        1.85722301893830
H            1.77140408346086       -2.53461033231694        1.15837151457463
H            1.42152899497383       -3.40824685244439       -0.35616509972020
H            2.67321665975087       -4.00960167388127        0.74889827191506
H            3.70927408853092       -2.81403935938780       -1.22258838802747
H            4.07495223400671       -1.99526784449849        0.31751511467021
H            0.80298187192986        0.25331348539261       -3.15091309830382
H            2.12184487599983        1.08052297468416       -2.30154138042047
H            3.01651947097966        1.49713287226196        1.84067492480288
H            3.63945410575830        2.82881015891536        0.83361195138224
H            2.57748895269724        3.69998333819512        2.93789027795445
H            1.72482534136063        4.27421667359458        1.48815992196969
H            1.03384167203259        2.95463520876686        2.46977595476778
H           -5.34078535176429       -0.53139931664308       -0.98000366118564
H           -3.88274441244548       -0.23016311860921       -1.97721327026745
H           -4.52721176000926        1.06299341647882       -0.90698947009723
H           -1.43813915181006       -2.40566397612892        2.84550896876567
H           -1.08417564392526       -2.44223871861991        1.09556088920564
H           -2.78379695897894       -2.57690792634222        1.67078613943448
38
 energy: -64.706866078550 gnorm: 0.024813055947 xtb: 6.7.1 (edcfbbe)
C            2.21593412817176       -3.10599887862959        0.33977823941935
C            3.26958952967459       -2.27553485189537       -0.36287090784253
O            2.70635139041268       -1.01245868085878       -0.81727706917509
C            2.00079324549984       -1.02135195956216       -1.94358761832186
O            1.90370491846731       -1.97771248216340       -2.67832504121488
C            1.35873173820143        0.32326873239141       -2.21291444981669
C            0.38829592148156        0.71655112863669       -1.09120299294116
H           -0.11074820564244        1.65414198939220       -1.35551647588423
C            1.09425656916233        0.94292588605078        0.23815025763002
O            0.89136956825312        0.32272230955882        1.25496963601840
O            1.95191408668756        1.94366415742293        0.10341574590237
C            2.72436861205151        2.36861926923363        1.26040524137224
C            1.96003521669111        3.38209977348063        2.08679680694254
S           -0.87573547503130       -0.61127735619198       -0.97662415979842
P           -2.17793314807350        0.13728572057540        0.51736640749530
S           -2.19059263739094        2.06821704703477        0.80699740496702
O           -3.57809709345835       -0.52386969176389        0.08554829214008
C           -4.35779281129474       -0.00948071112129       -1.01404282510903
O           -1.89782794366190       -0.67736855936275        1.86251168194378
C           -1.80386623351282       -2.12184837328640        1.85752078910697
H            1.77223246792812       -2.53259116615627        1.15336376925965
H            1.43137491953873       -3.39799021092831       -0.35740221714745
H            2.67415978510600       -4.00511937090241        0.74780794107033
H            3.68440512361904       -2.79849156452312       -1.22831517921459
H            4.06819467210465       -1.97919024909037        0.31805802969731
H            0.81246206959399        0.25565907246200       -3.15453990562522
H            2.13392536823417        1.08911800335130       -2.29060283844002
H            2.98227158530439        1.48280703102208        1.84505929130815
H            3.62363677676881        2.80902650873861        0.82708604738321
H            2.56997004617695        3.69327272916274        2.93352054225929
H            1.71719236514750        4.25723524077346        1.48694474743999
H            1.03347845178717        2.95078504557012        2.46408448216832
H           -5.31520782731923       -0.52459890046670       -0.95688510660524
H           -3.86120284900249       -0.23331483637230       -1.95855989094238
H           -4.49639639456135        1.06678778855600       -0.90307534818467
H           -1.44208176178128       -2.38852534724412        2.84831381264107
H           -1.09289682093279       -2.44183887752469        1.09439223232189
H           -2.78503545820618       -2.55554571045026        1.66886112675952
38
 energy: -64.708520836540 gnorm: 0.011746361466 xtb: 6.7.1 (edcfbbe)
C            2.21241866678127       -3.10012074286294        0.34506337799380
C            3.25876299079359       -2.25370858957888       -0.35931104723495
O            2.68999407072190       -1.00354207196039       -0.80616050892016
C            2.00779661478126       -1.00731336797921       -1.94021979828507
O            1.90747280643912       -1.96485293706911       -2.66703292634908
C            1.36470466927025        0.33872061512574       -2.22082416680366
C            0.37838146914560        0.71568864737202       -1.11263622692873
H           -0.14417301463945        1.64192543541651       -1.37065430883395
C            1.06595627692978        0.93805815186036        0.22416367437905
O            0.82513027920177        0.31313874620200        1.22997528004478
O            1.93575387750307        1.91891292394181        0.11059843148964
C            2.70304916369362        2.34210760418131        1.25903891440951
C            1.94741503780297        3.37006684188724        2.08398361878886
S           -0.85714463497943       -0.63074012790799       -0.98463670837097
P           -2.13537508151791        0.13037836425824        0.52041589216145
S           -2.14297235204951        2.06569658021008        0.78280512391398
O           -3.54939245258395       -0.50365269457708        0.09788082471454
C           -4.32381575450030       -0.00358593093307       -1.00020727609644
O           -1.86913316922219       -0.68094731853104        1.85830085639013
C           -1.79971004327739       -2.11789035067976        1.86393703924796
H            1.76419071928104       -2.52899424914456        1.15389443853501
H            1.43512301244058       -3.38890784207643       -0.35803742422847
H            2.67572690468944       -3.99316732662550        0.74726100098639
H            3.66402897809038       -2.77749219376994       -1.22978955506602
H            4.05858999377709       -1.95904698687446        0.31953322247438
H            0.82944856722790        0.26071721162032       -3.16697143016810
H            2.13944125238569        1.10385699021681       -2.28165109349752
H            2.94519347413022        1.45952417727216        1.85644102281156
H            3.60680243588276        2.77427152977137        0.82640484474264
H            2.55991372504067        3.67791681724964        2.92335411440272
H            1.70660936313481        4.23828654566211        1.47915216190828
H            1.02102455583719        2.94401874237488        2.46033692615119
H           -5.28067666298910       -0.51566112835753       -0.93453140279173
H           -3.83081055900889       -0.23650768445994       -1.94201938174877
H           -4.45913754168961        1.07263472740567       -0.90144001478758
H           -1.44505141399544       -2.37946481779419        2.85619039394489
H           -1.09723762365505       -2.45395706930092        1.10231699682461
H           -2.78506470467858       -2.53628756662568        1.67428561277949
38
 energy: -64.709069141609 gnorm: 0.006736692991 xtb: 6.7.1 (edcfbbe)
C            2.20957974177351       -3.09177466369255        0.34924888919480
C            3.25209772894388       -2.23661430957410       -0.35635523916857
O            2.67501952783443       -0.99383920924219       -0.79881365374209
C            2.00471729958014       -0.99905886135501       -1.93887109594613
O            1.91687858050094       -1.95542244786721       -2.67139712697132
C            1.36726567428364        0.34961699478570       -2.23021821931701
C            0.36764473004622        0.71085478049763       -1.13078409596507
H           -0.16713089340710        1.62973158435622       -1.39010919644111
C            1.04189603411025        0.93655535571574        0.21386992675547
O            0.76939347576816        0.31551681203860        1.21731772876031
O            1.92539962477640        1.90013779586400        0.11084351632950
C            2.68530639585917        2.31728524628001        1.26123200974918
C            1.93369142432370        3.35718175751411        2.07929108983965
S           -0.85167470680502       -0.64732944778622       -1.00066713126472
P           -2.10184092580590        0.13009642943395        0.52417276164180
S           -2.09502095239275        2.06829883386265        0.77155808742469
O           -3.52604243396647       -0.48703685859701        0.11176953595244
C           -4.29689073299173        0.00143927161036       -0.98964774174199
O           -1.84339545156627       -0.67861751936704        1.85720263907296
C           -1.79526604533853       -2.11506608805382        1.87183443535434
H            1.75657355133514       -2.52417217657162        1.15808628713722
H            1.43518604387768       -3.38383550896642       -0.35603436705956
H            2.67973188194324       -3.98163855637678        0.74952638225087
H            3.65589118314868       -2.76148063859857       -1.22719535800773
H            4.05319789585653       -1.94304795121052        0.32117037243230
H            0.84827801027409        0.27094211452899       -3.18501309808313
H            2.14071756880103        1.11674929032024       -2.27433939505597
H            2.91538763599233        1.43745926783315        1.86830699195305
H            3.59650266293322        2.73997812235328        0.83519678957757
H            2.54866508544894        3.66485371254039        2.91667378405055
H            1.69940419306565        4.22268804221792        1.46753042803400
H            1.00384225002166        2.93815566483695        2.45644130294086
H           -5.25570637608763       -0.50661223153636       -0.91961834347182
H           -3.80552845933874       -0.24144574137126       -1.93061243627885
H           -4.43029227424329        1.07995944240306       -0.90443014596574
H           -1.44548719216284       -2.37803480396850        2.86541430112981
H           -1.09808240567726       -2.47041533790085        1.11258181571385
H           -2.78667545451982       -2.52197851203701        1.68404806816955
38
 energy: -64.709244604298 gnorm: 0.004785569414 xtb: 6.7.1 (edcfbbe)
C            2.20591477062358       -3.08446812764504        0.35242628682101
C            3.24703417850936       -2.22702147146694       -0.35320287531162
O            2.66975997991459       -0.98588553934212       -0.79925234084048
C            2.01363491418616       -0.99114624958732       -1.94886665012038
O            1.92892892652808       -1.94950779187028       -2.68124597522181
C            1.37015246467563        0.35435357320109       -2.23934334318586
C            0.36352812859997        0.70795827545608       -1.14463868575039
H           -0.17663581053855        1.62323048313798       -1.40562205394262
C            1.03206464961510        0.93700753088615        0.20391422868736
O            0.73981653430083        0.32405356657681        1.20819620141688
O            1.92587326371727        1.88863884643540        0.10532799714355
C            2.67539562191043        2.30022579944001        1.26455480915605
C            1.92267534291006        3.34651671216813        2.07368988799949
S           -0.85292123324083       -0.64988751480987       -1.00744413083766
P           -2.08628697946288        0.12952757270747        0.53131240595158
S           -2.06562029347813        2.06855624803568        0.77028704516095
O           -3.51739133891444       -0.47657298894914        0.12546437869502
C           -4.28164764989891        0.00499319954020       -0.98334119710830
O           -1.83180508940926       -0.67853507855917        1.86173657100937
C           -1.79444358850292       -2.11625560964771        1.88072462109891
H            1.74958207750402       -2.51862768125661        1.16165601156522
H            1.43267894261278       -3.38135366897373       -0.35312930415156
H            2.67998633002279       -3.97282444684237        0.75455766200784
H            3.65474236357142       -2.75303731285151       -1.22135917268106
H            4.04744816358463       -1.93270798979580        0.32507891330864
H            0.86048847097704        0.27878818002022       -3.19912901948962
H            2.13969496866091        1.12564087214123       -2.27461214174190
H            2.89413707380808        1.42038626963487        1.87586049332588
H            3.59479326030227        2.71525527861901        0.84871344565921
H            2.53599278424103        3.65580793692403        2.91324954137211
H            1.69557288462043        4.21123632977154        1.45650834061588
H            0.98850528155668        2.93365425241243        2.44941685987364
H           -5.24329684564928       -0.49841408865703       -0.91375280355565
H           -3.78735666814867       -0.24738753380052       -1.92160509349828
H           -4.41206884955195        1.08574011876702       -0.90921164706457
H           -1.44721333450295       -2.38075152276771        2.87551722504068
H           -1.09880352702207       -2.48093673721773        1.12342451173829
H           -2.78967627243699       -2.51617003691458        1.69334949583835
38
 energy: -64.709299560862 gnorm: 0.002716614009 xtb: 6.7.1 (edcfbbe)
C            2.20424060370506       -3.07950320848844        0.35415080063578
C            3.24545650601237       -2.22392225094499       -0.35172862946957
O            2.66694296469381       -0.98281075403671       -0.80125822144493
C            2.01390785131525       -0.98954819306996       -1.95355041725417
O            1.93738869174889       -1.94654836135919       -2.68919825404335
C            1.36969444541214        0.35470708989337       -2.24379409561004
C            0.36189412027102        0.70622780101189       -1.14967371822130
H           -0.17814471992669        1.62107156491031       -1.41226227513881
C            1.03106416496573        0.93811225478661        0.19897482917254
O            0.73425752387918        0.33058561026268        1.20457382977718
O            1.93066320663341        1.88374551748584        0.10015882518862
C            2.67308777301697        2.29243941030280        1.26703833161944
C            1.91686477039559        3.34035790886234        2.06896691535339
S           -0.85514435710475       -0.65097592421475       -1.00962838511698
P           -2.08101403505104        0.13135419687201        0.53568409470845
S           -2.06109221716102        2.06976246249851        0.77706120904906
O           -3.51404828024895       -0.47179417128533        0.13175787621875
C           -4.27457432510442        0.00706786748754       -0.98190881234009
O           -1.82868991074806       -0.67852319169001        1.86515125351577
C           -1.79454686304674       -2.11769747760317        1.88513696545474
H            1.74682266406751       -2.51376745567180        1.16340719553200
H            1.43072678756177       -3.37978446306601       -0.35019562749679
H            2.67924448498348       -3.96720604768893        0.75870483899238
H            3.65611924249533       -2.75052228382703       -1.21809096600708
H            4.04496363655415       -1.92714738473078        0.32700201083091
H            0.86420758277154        0.28283713605047       -3.20605421838901
H            2.13754204837326        1.12821445896324       -2.27523164938972
H            2.88353955946541        1.41091117305759        1.87836709360685
H            3.59781466362466        2.70341799929191        0.85918285026107
H            2.52629277899797        3.65140875975573        2.91173376845267
H            1.69440507976293        4.20490571420467        1.44904748950188
H            0.97980104317662        2.93046758687720        2.44172043986101
H           -5.23748264569482       -0.49450325519282       -0.91410450487314
H           -3.77700136568856       -0.24947080821183       -1.91765184968018
H           -4.40387737754612        1.08832642072577       -0.91194335172032
H           -1.44876078351008       -2.38258329594498        2.88077825090827
H           -1.09849209654903       -2.48436453295803        1.12928414381664
H           -2.79083932030845       -2.51516821839546        1.69760246272229
38
 energy: -64.709317575494 gnorm: 0.001349368407 xtb: 6.7.1 (edcfbbe)
C            2.20291187798244       -3.07636554567860        0.35548008343693
C            3.24434877621439       -2.22298587385462       -0.35085363215580
O            2.66612473702285       -0.98163443401972       -0.80365747423371
C            2.01501331315336       -0.98907773428220       -1.95732964006909
O            1.94227618266656       -1.94559800030552       -2.69327458474549
C            1.36918518818578        0.35394365751359       -2.24664941400689
C            0.36278071353471        0.70702645441415       -1.15183784428712
H           -0.17648696620422        1.62232142131264       -1.41462729217241
C            1.03311611460184        0.93857579268243        0.19621755433164
O            0.73254085132890        0.33552489695150        1.20331396711920
O            1.93682535845973        1.88054042301065        0.09719003504200
C            2.67376485136848        2.28865613650781        1.26929704544313
C            1.91403779256029        3.33708315398121        2.06555940761407
S           -0.85549746229967       -0.64879529630671       -1.00713534439359
P           -2.08122221825468        0.13196103716076        0.53866123722306
S           -2.06070299525010        2.07042937797976        0.78169313126606
O           -3.51491295356115       -0.47013006387955        0.13504772771523
C           -4.27195930552115        0.00806984535810       -0.98186806232837
O           -1.82897258140960       -0.67975399825781        1.86762061937340
C           -1.79452267864329       -2.11941855952550        1.88732811338535
H            1.74549242130170       -2.50931280188489        1.16381053351610
H            1.42924042865600       -3.37795499228311       -0.34811582439406
H            2.67713716714557       -3.96372982488461        0.76208427517282
H            3.65653289167254       -2.75012185761603       -1.21614759650198
H            4.04291282073197       -1.92372963190486        0.32808205487539
H            0.86335045392683        0.28323769473862       -3.20873488037847
H            2.13648935973820        1.12807807658356       -2.27843193947110
H            2.87785710213062        1.40561466612372        1.88013512366487
H            3.60163425640947        2.69746015394087        0.86690497403206
H            2.51895458925486        3.64987244372317        2.91109226507809
H            1.69448623152939        4.20080603459268        1.44351286712729
H            0.97518024695493        2.92811606980046        2.43450426208013
H           -5.23527426270922       -0.49283272316245       -0.91633249852673
H           -3.77110105953858       -0.25016982180381       -1.91512849764673
H           -4.40032859596915        1.08919787909980       -0.91299581143383
H           -1.44949440563053       -2.38358032228784        2.88344865955998
H           -1.09784840852307       -2.48492620302092        1.13203388776039
H           -2.79063593682165       -2.51631787559639        1.69931301091239
38
 energy: -64.709322536234 gnorm: 0.000974223993 xtb: 6.7.1 (edcfbbe)
C            2.20172426115277       -3.07454874320233        0.35661262808231
C            3.24336436433286       -2.22247411531707       -0.35018257850955
O            2.66466780685131       -0.98133899971704       -0.80427416157070
C            2.01492213337137       -0.98912428351638       -1.95861290042205
O            1.94536765400620       -1.94515842418851       -2.69477745939365
C            1.36745847921913        0.35310932877265       -2.24739299706539
C            0.36302290111267        0.70731128310461       -1.15087840633368
H           -0.17605102913019        1.62308501091693       -1.41279004193832
C            1.03394725464546        0.93887341781782        0.19637180032186
O            0.73222237335106        0.33815907268535        1.20419320529224
O            1.94128495699707        1.87766317796110        0.09670783005680
C            2.67555335888611        2.28661329592278        1.27084004434522
C            1.91325038525621        3.33580744058151        2.06297664068541
S           -0.85555009372921       -0.64884855413679       -1.00686881250180
P           -2.08064649718265        0.13277571491094        0.53912218251220
S           -2.06314425516065        2.07097202830461        0.78515027654603
O           -3.51430407841538       -0.46956033605084        0.13546185531498
C           -4.27000576524924        0.00876473646721       -0.98245201611403
O           -1.82816341429108       -0.68036526983026        1.86801535158180
C           -1.79361536503211       -2.12010785150101        1.88732507683743
H            1.74458810750630       -2.50596773855816        1.16380267205482
H            1.42813325916850       -3.37604871442252       -0.34688276500000
H            2.67482946777573       -3.96169435715152        0.76433405849656
H            3.65572401895673       -2.74979995588370       -1.21526961061795
H            4.04133928805344       -1.92141081397687        0.32856313175940
H            0.85917507838823        0.28131870407148       -3.20814697205282
H            2.13501641685526        1.12701470464429       -2.28155283765630
H            2.87567979667343        1.40329478801048        1.88217086192695
H            3.60474647716742        2.69422600118296        0.87107701388711
H            2.51436514376281        3.65012375935474        2.91026621534217
H            1.69562734267358        4.19825074160217        1.43890257394354
H            0.97325671072872        2.92698044692378        2.42856632086699
H           -5.23297167437319       -0.49277823260417       -0.91840312286575
H           -3.76749423872680       -0.24917992792477       -1.91441919231619
H           -4.39870159131625        1.08948748411148       -0.91303269432192
H           -1.44929524969349       -2.38362662896126        2.88364313262281
H           -1.09663918480283       -2.48483282404202        1.13221957189961
H           -2.78945070359401       -2.51688571144128        1.69882462328807
38
 energy: -64.709324587681 gnorm: 0.000576972405 xtb: 6.7.1 (edcfbbe)
C            2.20110032160276       -3.07437106901324        0.35717181386696
C            3.24274727107074       -2.22198462300036       -0.34976792261762
O            2.66315075312918       -0.98137322374371       -0.80329079400416
C            2.01430252402936       -0.98914265909145       -1.95801225523401
O            1.94663230618534       -1.94478964047619       -2.69496675907194
C            1.36728641088479        0.35336294093066       -2.24783542459803
C            0.36387863171964        0.70791414749999       -1.15063528697526
H           -0.17522134188998        1.62390918570051       -1.41164528040849
C            1.03478902836904        0.93810004050194        0.19647615420062
O            0.73068126701010        0.33875856082764        1.20469822036748
O            1.94305445794782        1.87591718233445        0.09722753495276
C            2.67632091884290        2.28598183131529        1.27127945609633
C            1.91341772571570        3.33613317281989        2.06206194567227
S           -0.85542768264767       -0.64738134532561       -1.00627468772903
P           -2.08114081893038        0.13224933723973        0.53950907115413
S           -2.06244756003693        2.07060358145777        0.78419239241988
O           -3.51485147130575       -0.46991931981249        0.13561744636794
C           -4.26983377360528        0.00870775694703       -0.98249443292147
O           -1.82829288290386       -0.68099687676756        1.86841304377184
C           -1.79330079043479       -2.12040197686580        1.88708319042140
H            1.74388549618299       -2.50555765344671        1.16409995490304
H            1.42771367440140       -3.37560169496439       -0.34663127070507
H            2.67411156134238       -3.96142323629264        0.76482553050226
H            3.65467254291813       -2.74929995874258       -1.21505426797871
H            4.04082114496623       -1.92092754811816        0.32874960021067
H            0.85745090014611        0.28028064188119       -3.20771209932126
H            2.13534165308216        1.12669701116164       -2.28367869943514
H            2.87618715304861        1.40359561427303        1.88398850357221
H            3.60555343555504        2.69338005116575        0.87157536800397
H            2.51361653785892        3.65089445999274        2.90963761906187
H            1.69664864828659        4.19797650772621        1.43695586754379
H            0.97300279134316        2.92751682474327        2.42677530062686
H           -5.23269985579733       -0.49309601078019       -0.91912922927602
H           -3.76685848110631       -0.24872413167392       -1.91437123857386
H           -4.39882301718699        1.08943702229989       -0.91279407023173
H           -1.44916359195607       -2.38417341078137        2.88329554076931
H           -1.09612675163366       -2.48476703228569        1.13191978355872
H           -2.78894524000878       -2.51740480471617        1.69795088002172
38
 energy: -64.709325614894 gnorm: 0.000313669808 xtb: 6.7.1 (edcfbbe)
C            2.20051725340316       -3.07473627245347        0.35759705509455
C            3.24200369780609       -2.22163636877250       -0.34925940419903
O            2.66215326041148       -0.98127729651781       -0.80229811010446
C            2.01523741914634       -0.98854162506187       -1.95815354117301
O            1.94820675353757       -1.94408266942104       -2.69552198976940
C            1.36685477018157        0.35348872629818       -2.24765636393028
C            0.36385146344730        0.70769957476754       -1.15003443607890
H           -0.17560576861151        1.62367935190211       -1.41049988891621
C            1.03460707706922        0.93782283825015        0.19710461161253
O            0.73010181045667        0.33873048898904        1.20529986512606
O            1.94339700141985        1.87495486258704        0.09773986550169
C            2.67669498115115        2.28573434135087        1.27116312799261
C            1.91388570164469        3.33671154129745        2.06144186972735
S           -0.85518968040374       -0.64804855649334       -1.00634240716504
P           -2.08077963620893        0.13232560364441        0.53934718538595
S           -2.06278159610353        2.07068613520319        0.78396733612768
O           -3.51429588606614       -0.47020436490320        0.13528049356787
C           -4.26959893547042        0.00858970253816       -0.98247023449388
O           -1.82805107159471       -0.68090789471940        1.86829469188098
C           -1.79315592551699       -2.12022376652706        1.88649985256930
H            1.74306968610444       -2.50624327888103        1.16468186830823
H            1.42730352307687       -3.37597668370453       -0.34646858372343
H            2.67387084505862       -3.96176057225103        0.76503028410171
H            3.65388289528685       -2.74884843727564       -1.21460470998036
H            4.04023086793880       -1.92108528434492        0.32926956795465
H            0.85625974508997        0.27943090320733       -3.20706525065791
H            2.13444977332754        1.12715190966834       -2.28483314444472
H            2.87717669721566        1.40430126098640        1.88510470283937
H            3.60583823099053        2.69304298903075        0.87099254704031
H            2.51418085361056        3.65145724563204        2.90902124127527
H            1.69768848119083        4.19844626103269        1.43590464803341
H            0.97318190276878        2.92858843080987        2.42617726638613
H           -5.23235113274876       -0.49359239514651       -0.91934181548621