
                                 *****************
                                 * O   R   C   A *
                                 *****************

                                            #,                                       
                                            ###                                      
                                            ####                                     
                                            #####                                    
                                            ######                                   
                                           ########,                                 
                                     ,,################,,,,,                         
                               ,,#################################,,                 
                          ,,##########################################,,             
                       ,#########################################, ''#####,          
                    ,#############################################,,   '####,        
                  ,##################################################,,,,####,       
                ,###########''''           ''''###############################       
              ,#####''   ,,,,##########,,,,          '''####'''          '####       
            ,##' ,,,,###########################,,,                        '##       
           ' ,,###''''                  '''############,,,                           
         ,,##''                                '''############,,,,        ,,,,,,###''
      ,#''                                            '''#######################'''  
     '                                                          ''''####''''         
             ,#######,   #######,   ,#######,      ##                                
            ,#'     '#,  ##    ##  ,#'     '#,    #''#        ,####,   ,####,        
            ##       ##  ##   ,#'  ##            #'  '#       #'       #'  '#        
            ##       ##  #######   ##           ,######,      #####,   #    #        
            '#,     ,#'  ##    ##  '#,     ,#' ,#      #,     #,   #   #,  ,#        
             '#######'   ##     ##  '#######'  #'      '#     '####' # '####'        



                #########################################################
                #                        -***-                          #
                #          Department of theory and spectroscopy        #
                #                                                       #
                #                      Frank Neese                      #
                #                                                       #
                #     Directorship, Architecture, Infrastructure        #
                #                    SHARK, DRIVERS                     #
                #        Core code/Algorithms in most modules           #
                #                                                       #
                #        Max Planck Institute fuer Kohlenforschung      #
                #                Kaiser Wilhelm Platz 1                 #
                #                 D-45470 Muelheim/Ruhr                 #
                #                      Germany                          #
                #                                                       #
                #                  All rights reserved                  #
                #                        -***-                          #
                #########################################################


                         Program Version 6.0.0  -   RELEASE  -


 With contributions from (in alphabetic order):
   Daniel Aravena         : Magnetic Suceptibility
   Michael Atanasov       : Ab Initio Ligand Field Theory (pilot matlab implementation)
   Alexander A. Auer      : GIAO ZORA, VPT2 properties, NMR spectrum
   Ute Becker             : All parallelization in ORCA, NUMFREQ, NUMCALC
   Giovanni Bistoni       : ED, misc. LED, open-shell LED, HFLD
   Martin Brehm           : Molecular dynamics
   Dmytro Bykov           : pre 5.0 version of the SCF Hessian
   Marcos Casanova-Páez   : Triplet and SCS-CIS(D). UHF-(DLPNO)-IP/EA/STEOM-CCSD. UHF-CVS-IP/STEOM-CCSD
   Vijay G. Chilkuri      : MRCI spin determinant printing, contributions to CSF-ICE
   Pauline Colinet        : FMM embedding
   Dipayan Datta          : RHF DLPNO-CCSD density
   Achintya Kumar Dutta   : EOM-CC, STEOM-CC
   Nicolas Foglia         : Exact transition moments, OPA infrastructure, MCD improvements
   Dmitry Ganyushin       : Spin-Orbit,Spin-Spin,Magnetic field MRCI
   Miquel Garcia          : C-PCM and meta-GGA Hessian, CCSD/C-PCM, Gaussian charge scheme
   Tiago L. C. Gouveia    : GS-ROHF, GS-ROCIS
   Yang Guo               : DLPNO-NEVPT2, F12-NEVPT2, CIM, IAO-localization
   Andreas Hansen         : Spin unrestricted coupled pair/coupled cluster methods
   Ingolf Harden          : AUTO-CI MPn and infrastructure 
   Benjamin Helmich-Paris : MC-RPA, TRAH-(SCF,CASSCF), AVAS, COSX integrals, SCF dyn. polar.
   Lee Huntington         : MR-EOM, pCC
   Robert Izsak           : Overlap fitted RIJCOSX, COSX-SCS-MP3, EOM
   Riya Kayal             : Wick's Theorem for AUTO-CI, AUTO-CI UHF-CCSDT
   Emily Kempfer          : AUTO-CI, RHF CISDT and CCSDT
   Christian Kollmar      : KDIIS, OOCD, Brueckner-CCSD(T), CCSD density, CASPT2, CASPT2-K, improved NEVPT2
   Axel Koslowski         : Symmetry handling
   Simone Kossmann        : Meta GGA functionals, TD-DFT gradient, OOMP2, (MP2 Hessian; deprecated post 5.0)
   Lucas Lang             : DCDCAS
   Marvin Lechner         : AUTO-CI (C++ implementation), FIC-MRCC
   Spencer Leger          : CASSCF response
   Dagmar Lenk            : GEPOL surface, SMD, ORCA-2-JSON
   Dimitrios Liakos       : Extrapolation schemes; Compound Job, initial MDCI parallelization
   Dimitrios Manganas     : Further ROCIS development; embedding schemes. LFT, Crystal Embedding
   Dimitrios Pantazis     : SARC Basis sets
   Anastasios Papadopoulos: AUTO-CI, single reference methods and gradients
   Taras Petrenko         : pre 6.0 DFT Hessian and TD-DFT gradient, (ASA, deprecated), ECA, 1-Electron XAS/XES, NRVS
   Peter Pinski           : DLPNO-MP2, DLPNO-MP2 Gradient
   Christoph Reimann      : Effective Core Potentials
   Marius Retegan         : Local ZFS, SOC
   Christoph Riplinger    : Optimizer, TS searches, QM/MM, DLPNO-CCSD(T), (RO)-DLPNO pert. Triples
   Michael Roemelt        : Original ROCIS implementation
   Masaaki Saitow         : Open-shell DLPNO-CCSD energy and density
   Barbara Sandhoefer     : DKH picture change effects
   Kantharuban Sivalingam : CASSCF convergence/infrastructure, NEVPT2 and variants, FIC-MRCI
   Bernardo de Souza      : ESD, SOC TD-DFT
   Georgi Stoychev        : AutoAux, RI-MP2 NMR, DLPNO-MP2 response, X2C
   Van Anh Tran           : RI-MP2 g-tensors
   Willem Van den Heuvel  : Paramagnetic NMR
   Zikuan Wang            : NOTCH, Electric field optimization 
   Frank Wennmohs         : Technical directorship and infrastructure
   Hang Xu                : AUTO-CI-Response properties 


 We gratefully acknowledge several colleagues who have allowed us to
 interface, adapt or use parts of their codes:
   Stefan Grimme, W. Hujo, H. Kruse, P. Pracht,  : VdW corrections, initial TS optimization,
                  C. Bannwarth, S. Ehlert,         DFT functionals, gCP, sTDA/sTD-DF
                  L. Wittmann, M. Mueller
   Ed Valeev, F. Pavosevic, A. Kumar             : LibInt (2-el integral package), F12 methods
   Garnet Chan, S. Sharma, J. Yang, R. Olivares  : DMRG
   Ulf Ekstrom                                   : XCFun DFT Library
   Mihaly Kallay                                 : mrcc  (arbitrary order and MRCC methods)
   Frank Weinhold                                : gennbo (NPA and NBO analysis)
   Simon Mueller                                 : openCOSMO-RS
   Christopher J. Cramer and Donald G. Truhlar   : smd solvation model
   Lars Goerigk                                  : TD-DFT with DH, B97 family of functionals
   V. Asgeirsson, H. Jonsson                     : NEB implementation
   FAccTs GmbH                                   : IRC, NEB, NEB-TS, DLPNO-Multilevel, CI-OPT
                                                   MM, QMMM, 2- and 3-layer-ONIOM, Crystal-QMMM,
                                                   LR-CPCM, SF, NACMEs, symmetry and pop. for TD-DFT,
                                                   nearIR, NL-DFT gradient (VV10), updates on ESD,
                                                   ML-optimized integration grids, MBIS, APM,
                                                   GOAT, DOCKER, SOLVATOR, interface openCOSMO-RS
   S Lehtola, MJT Oliveira, MAL Marques          : LibXC Library
   Liviu Ungur et al                             : ANISO software


 Your calculation uses the libint2 library for the computation of 2-el integrals
 For citations please refer to: http://libint.valeyev.net

 Your ORCA version has been built with support for libXC version: 6.2.2
 For citations please refer to: https://libxc.gitlab.io

 This ORCA versions uses:
   CBLAS   interface :  Fast vector & matrix operations
   LAPACKE interface :  Fast linear algebra routines
   SCALAPACK package :  Parallel linear algebra routines
   Shared memory     :  Shared parallel matrices
   BLAS/LAPACK       :  OpenBLAS 0.3.27  USE64BITINT DYNAMIC_ARCH NO_AFFINITY SkylakeX SINGLE_THREADED
        Core in use  :  SkylakeX
   Copyright (c) 2011-2014, The OpenBLAS Project


Your calculation utilizes the geometrical counterpoise correction gCP
Please cite in your paper:
H.Kruse, S. Grimme J.Chem.Phys., 136, (2012), 154101 
   

Your calculation utilizes the DFT-NL dispersion correction.
Cite in your paper:
Vydrov, O. A.; Van Voorhis, T. J. Chem. Phys. 2010, 133, 244103
Hujo, W.; Grimme, S. J. Chem. Theory Comput. 2011, 7, 3866 
   

Your calculation utilizes the SMD solvation module
Please cite in your paper:
A.V. Marenich, C.J. Cramer, D.G. Truhlar J. Phys. Chem. B, 113, (2009), 6378 

================================================================================

----- Orbital basis set information -----
Your calculation utilizes the basis: def2-TZVP
   F. Weigend and R. Ahlrichs, Phys. Chem. Chem. Phys. 7, 3297 (2005).

----- AuxJ basis set information -----
Your calculation utilizes the auxiliary basis: def2/J
   F. Weigend, Phys. Chem. Chem. Phys. 8, 1057 (2006).

================================================================================
                                        WARNINGS
                       Please study these warnings very carefully!
================================================================================


================================================================================
                                       INPUT FILE
================================================================================
NAME = sp_solv.inp
|  1> ! wb97x-v def2-tzvp def2/J RIJCOSX DEFGRID2 scfconv7 GCP(DFT/TZ) printgap
|  2> %output
|  3>     printlevel normal
|  4> end
|  5> %cpcm
|  6>     smd true
|  7>     smdsolvent "water"
|  8> end
|  9> * xyz 0 1
| 10> C -1.712790678154601 0.37413855926225226 -0.0396801261177216
| 11> C -0.5974031311870401 -0.6499363329117921 0.04934885849158523
| 12> S 1.0945188658241143 0.10026794848747435 -0.03114186594856034
| 13> H -2.6831015619951284 -0.1353076023897285 -0.012320674809213028
| 14> H -1.675161204111873 1.0726932078766391 0.8019721175109619
| 15> H -1.6524097652335628 0.9486870098550574 -0.9681675270323553
| 16> H -0.6290139923071073 -1.3429822733151369 -0.7966356840426005
| 17> H -0.6686982761349511 -1.241089072312563 0.9658404244942113
| 18> H 0.9680619663315572 0.8685283994497843 1.0673007559884053
| 19> *
| 20> 
| 21>                          ****END OF INPUT****
================================================================================

                       ****************************
                       * Single Point Calculation *
                       ****************************

---------------------------------
CARTESIAN COORDINATES (ANGSTROEM)
---------------------------------
  C     -1.712791    0.374139   -0.039680
  C     -0.597403   -0.649936    0.049349
  S      1.094519    0.100268   -0.031142
  H     -2.683102   -0.135308   -0.012321
  H     -1.675161    1.072693    0.801972
  H     -1.652410    0.948687   -0.968168
  H     -0.629014   -1.342982   -0.796636
  H     -0.668698   -1.241089    0.965840
  H      0.968062    0.868528    1.067301

----------------------------
CARTESIAN COORDINATES (A.U.)
----------------------------
  NO LB      ZA    FRAG     MASS         X           Y           Z
   0 C     6.0000    0    12.011   -3.236705    0.707019   -0.074985
   1 C     6.0000    0    12.011   -1.128928   -1.228202    0.093256
   2 S    16.0000    0    32.060    2.068341    0.189479   -0.058850
   3 H     1.0000    0     1.008   -5.070327   -0.255694   -0.023283
   4 H     1.0000    0     1.008   -3.165596    2.027096    1.515508
   5 H     1.0000    0     1.008   -3.122602    1.792759   -1.829571
   6 H     1.0000    0     1.008   -1.188664   -2.537869   -1.505423
   7 H     1.0000    0     1.008   -1.263657   -2.345318    1.825174
   8 H     1.0000    0     1.008    1.829372    1.641281    2.016906

--------------------------------
INTERNAL COORDINATES (ANGSTROEM)
--------------------------------
 C      0   0   0     0.000000000000     0.00000000     0.00000000
 C      1   0   0     1.516820663365     0.00000000     0.00000000
 S      2   1   0     1.852534821406   113.30552999     0.00000000
 H      1   2   3     1.096260526744   109.61195087   178.55182649
 H      1   2   3     1.094428194823   111.13167894   297.76741854
 H      1   2   3     1.093544983245   111.34322734    58.72578148
 H      2   1   3     1.094075759834   111.16421021   242.74966084
 H      2   1   3     1.092932454248   111.49546611   122.57020392
 H      3   2   1     1.346399517836    96.30641565    60.47329159

---------------------------
INTERNAL COORDINATES (A.U.)
---------------------------
 C      0   0   0     0.000000000000     0.00000000     0.00000000
 C      1   0   0     2.866375648033     0.00000000     0.00000000
 S      2   1   0     3.500783466010   113.30552999     0.00000000
 H      1   2   3     2.071632166975   109.61195087   178.55182649
 H      1   2   3     2.068169561457   111.13167894   297.76741854
 H      1   2   3     2.066500533457   111.34322734    58.72578148
 H      2   1   3     2.067503555849   111.16421021   242.74966084
 H      2   1   3     2.065343021403   111.49546611   122.57020392
 H      3   2   1     2.544326355554    96.30641565    60.47329159

---------------------
BASIS SET INFORMATION
---------------------
There are 3 groups of distinct atoms

 Group   1 Type C   : 11s6p2d1f contracted to 5s3p2d1f pattern {62111/411/11/1}
 Group   2 Type S   : 14s9p3d1f contracted to 5s5p2d1f pattern {73211/51111/21/1}
 Group   3 Type H   : 5s1p contracted to 3s1p pattern {311/1}

Atom   0C    basis set group =>   1
Atom   1C    basis set group =>   1
Atom   2S    basis set group =>   2
Atom   3H    basis set group =>   3
Atom   4H    basis set group =>   3
Atom   5H    basis set group =>   3
Atom   6H    basis set group =>   3
Atom   7H    basis set group =>   3
Atom   8H    basis set group =>   3
---------------------------------
AUXILIARY/J BASIS SET INFORMATION
---------------------------------
There are 3 groups of distinct atoms

 Group   1 Type C   : 12s5p4d2f1g contracted to 6s4p3d1f1g pattern {711111/2111/211/2/1}
 Group   2 Type S   : 14s5p5d2f1g contracted to 8s4p3d1f1g pattern {71111111/2111/311/2/1}
 Group   3 Type H   : 5s2p1d contracted to 3s1p1d pattern {311/2/1}

Atom   0C    basis set group =>   1
Atom   1C    basis set group =>   1
Atom   2S    basis set group =>   2
Atom   3H    basis set group =>   3
Atom   4H    basis set group =>   3
Atom   5H    basis set group =>   3
Atom   6H    basis set group =>   3
Atom   7H    basis set group =>   3
Atom   8H    basis set group =>   3

Checking for AutoStart:
The File: sp_solv.gbw exists
Trying to determine its content:
     ... Fine, the file contains calculation information
     ... Fine, the calculation information was read
     ... Fine, the file contains a basis set
     ... Fine, the basis set was read
     ... Fine, the file contains a geometry
     ... Fine, the geometry was read
     ... Fine, the file contains a set of orbitals
     ... Fine, the orbitals can be read
     => possible old guess file was deleted
     => GBW file was renamed to GES file
     => GES file is set as startup file
     => Guess is set to MORead
     ... now leaving AutoStart

------------------------------------------------------------------------------
                             ORCA STARTUP CALCULATIONS
                           -- RI-GTO INTEGRALS CHOSEN --
------------------------------------------------------------------------------
------------------------------------------------------------------------------
                   ___                                                        
                  /   \      - P O W E R E D   B Y -                         
                 /     \                                                     
                 |  |  |   _    _      __       _____    __    __             
                 |  |  |  | |  | |    /  \     |  _  \  |  |  /  |          
                  \  \/   | |  | |   /    \    | | | |  |  | /  /          
                 / \  \   | |__| |  /  /\  \   | |_| |  |  |/  /          
                |  |  |   |  __  | /  /__\  \  |    /   |      \           
                |  |  |   | |  | | |   __   |  |    \   |  |\   \          
                \     /   | |  | | |  |  |  |  | |\  \  |  | \   \       
                 \___/    |_|  |_| |__|  |__|  |_| \__\ |__|  \__/        
                                                                              
                      - O R C A' S   B I G   F R I E N D -                    
                                      &                                       
                       - I N T E G R A L  F E E D E R -                       
                                                                              
 v1 FN, 2020, v2 2021, v3 2022-2024                                           
------------------------------------------------------------------------------


----------------------
SHARK INTEGRAL PACKAGE
----------------------

Number of atoms                             ...      9
Number of basis functions                   ...    135
Number of shells                            ...     59
Maximum angular momentum                    ...      3
Integral batch strategy                     ... SHARK/LIBINT Hybrid
RI-J (if used) integral strategy            ... SPLIT-RIJ (Revised 2003 algorithm where possible)
Printlevel                                  ...      1
Contraction scheme used                     ... SEGMENTED contraction
Prescreening option                         ... SCHWARTZ
   Thresh                                   ... 3.000e-11
   Tcut                                     ... 1.000e-12
   Tpresel                                  ... 1.000e-12 
Coulomb Range Separation                    ... NOT USED
Exchange Range Separation                   ... Long Range
   Mu parameter                             ... 3.000e-01
   Scaling (regular/separated)              ... 1.670e-01 8.330e-01
Multipole approximations                    ... NOT USED
Finite Nucleus Model                        ... NOT USED
CABS basis                                  ... NOT available
Auxiliary Coulomb fitting basis             ... AVAILABLE
   # of basis functions in Aux-J            ...    215
   # of shells in Aux-J                     ...     77
   Maximum angular momentum in Aux-J        ...      4
Auxiliary J/K fitting basis                 ... NOT available
Auxiliary Correlation fitting basis         ... NOT available
Auxiliary 'external' fitting basis          ... NOT available

Checking pre-screening integrals            ... done (  0.0 sec) Dimension = 59
Check shell pair data                       ... done (  0.0 sec)
Shell pair information
Shell pair cut-off parameter TPreSel        ...   1.0e-12
Total number of shell pairs                 ...      1770
Shell pairs after pre-screening             ...      1739
Total number of primitive shell pairs       ...      5454
Primitive shell pairs kept                  ...      4447
          la=0 lb=0:    542 shell pairs
          la=1 lb=0:    550 shell pairs
          la=1 lb=1:    152 shell pairs
          la=2 lb=0:    198 shell pairs
          la=2 lb=1:    102 shell pairs
          la=2 lb=2:     21 shell pairs
          la=3 lb=0:     99 shell pairs
          la=3 lb=1:     51 shell pairs
          la=3 lb=2:     18 shell pairs
          la=3 lb=3:      6 shell pairs

Calculating one electron integrals          ... done (  0.0 sec)
Calculating RI/J V-Matrix + Cholesky decomp.... done (  0.0 sec)
Calculating Nuclear repulsion               ... done (  0.0 sec) ENN=    106.615233604572 Eh

Diagonalization of the overlap matrix:
Smallest eigenvalue                        ... 5.144e-04
Time for diagonalization                   ...    0.002 sec
Threshold for overlap eigenvalues          ... 1.000e-07
Number of eigenvalues below threshold      ... 0
Time for construction of square roots      ...    0.014 sec
Total time needed                          ...    0.023 sec

-------------------
DFT GRID GENERATION
-------------------

General Integration Accuracy     IntAcc      ... 4.388
Radial Grid Type                 RadialGrid  ... OptM3 with GC (2021)
Angular Grid (max. ang.)         AngularGrid ... 4 (Lebedev-302)
Angular grid pruning method      GridPruning ... 4 (adaptive)
Weight generation scheme         WeightScheme... mBecke (2022)
Basis function cutoff            BFCut       ... 1.0000e-11
Integration weight cutoff        WCut        ... 1.0000e-14
Partially contracted basis set               ... off
Rotationally invariant grid construction     ... off
Angular grids for H and He will be reduced by one unit

Total number of grid points                  ...    38968
Total number of batches                      ...      615
Average number of points per batch           ...       63
Average number of grid points per atom       ...     4330

--------------------
COSX GRID GENERATION
--------------------

GRIDX 1
-------
General Integration Accuracy     IntAcc      ... 3.816
Radial Grid Type                 RadialGrid  ... OptM3 with GC (2021)
Angular Grid (max. ang.)         AngularGrid ... 1 (Lebedev-50)
Angular grid pruning method      GridPruning ... 4 (adaptive)
Weight generation scheme         WeightScheme... mBecke (2022)
Basis function cutoff            BFCut       ... 1.0000e-11
Integration weight cutoff        WCut        ... 1.0000e-14
Partially contracted basis set               ... on
Rotationally invariant grid construction     ... off
Angular grids for H and He will be reduced by one unit

Total number of grid points                  ...     6055
Total number of batches                      ...       52
Average number of points per batch           ...      116
Average number of grid points per atom       ...      673
UseSFitting                                  ... on

GRIDX 2
-------
General Integration Accuracy     IntAcc      ... 4.020
Radial Grid Type                 RadialGrid  ... OptM3 with GC (2021)
Angular Grid (max. ang.)         AngularGrid ... 2 (Lebedev-110)
Angular grid pruning method      GridPruning ... 4 (adaptive)
Weight generation scheme         WeightScheme... mBecke (2022)
Basis function cutoff            BFCut       ... 1.0000e-11
Integration weight cutoff        WCut        ... 1.0000e-14
Partially contracted basis set               ... on
Rotationally invariant grid construction     ... off
Angular grids for H and He will be reduced by one unit

Total number of grid points                  ...    10317
Total number of batches                      ...       85
Average number of points per batch           ...      121
Average number of grid points per atom       ...     1146
UseSFitting                                  ... on

GRIDX 3
-------
General Integration Accuracy     IntAcc      ... 4.338
Radial Grid Type                 RadialGrid  ... OptM3 with GC (2021)
Angular Grid (max. ang.)         AngularGrid ... 3 (Lebedev-194)
Angular grid pruning method      GridPruning ... 4 (adaptive)
Weight generation scheme         WeightScheme... mBecke (2022)
Basis function cutoff            BFCut       ... 1.0000e-11
Integration weight cutoff        WCut        ... 1.0000e-14
Partially contracted basis set               ... on
Rotationally invariant grid construction     ... off
Angular grids for H and He will be reduced by one unit

Total number of grid points                  ...    23276
Total number of batches                      ...      186
Average number of points per batch           ...      125
Average number of grid points per atom       ...     2586
UseSFitting                                  ... on
Initializing property integral containers    ... done (  0.0 sec)

SHARK setup successfully completed in   3.6 seconds

Maximum memory used throughout the entire STARTUP-calculation: 19.5 MB
-------------------------------------------------------------------------------
                                 ORCA GUESS
                   Start orbitals & Density for SCF / CASSCF
-------------------------------------------------------------------------------

------------
SCF SETTINGS
------------
Hamiltonian:
 Density Functional     Method          .... DFT(GTOs)
 Exchange Functional    Exchange        .... WB97X-V
 Correlation Functional Correlation     .... WB97X-V
 Gradients option       PostSCFGGA      .... off
 Hybrid DFT is turned on
   Fraction HF Exchange ScalHFX         ....  0.167000
   Scaling of DF-GGA-X  ScalDFX         ....  0.000000
   Scaling of DF-GGA-C  ScalDFC         ....  1.000000
   Scaling of DF-LDA-C  ScalLDAC        ....  1.000000
   Perturbative correction              ....  0.000000
 Long-range corrected/Screened/Range-Separated Hybrid DFT is turned on
   Amount of maximum screened exact exchange              ....  0.833000
   Range separation parameter mu (erf(mu*r12)/r12)        ....  0.300000
   NL short-range parameter             ....  6.000000
   NL long-range parameter              ....  0.010000
 RI-approximation to the Coulomb term is turned on
   Number of AuxJ basis functions       .... 215
   RIJ-COSX (HFX calculated with COS-X)).... on


General Settings:
 Integral files         IntName         .... sp_solv
 Hartree-Fock type      HFTyp           .... RHF
 Total Charge           Charge          ....    0
 Multiplicity           Mult            ....    1
 Number of Electrons    NEL             ....   34
 Basis Dimension        Dim             ....  135
 Nuclear Repulsion      ENuc            ....    106.6152336046 Eh

Convergence Acceleration:
 AO-DIIS                CNVDIIS         .... on
   Start iteration      DIISMaxIt       ....    12
   Startup error        DIISStart       ....  0.200000
   # of expansion vecs  DIISMaxEq       ....     5
   Bias factor          DIISBfac        ....   1.050
   Max. coefficient     DIISMaxC        ....  10.000
 MO-DIIS                CNVKDIIS        .... off
 Trust-Rad. Augm. Hess. CNVTRAH         .... auto
   Auto Start mean grad. ratio tolernc. ....  1.125000
   Auto Start start iteration           ....     1
   Auto Start num. interpolation iter.  ....    10
   Max. Number of Micro iterations      ....    24
   Max. Number of Macro iterations      .... Maxiter - #DIIS iter
   Number of Davidson start vectors     ....     2
   Converg. threshold    (grad. norm)   ....   1.000e-04
   Grad. Scal. Fac. for Micro threshold ....   0.100
   Minimum threshold for Micro iter.    ....   1.000e-02
   NR start threshold (gradient norm)   ....   1.000e-04
   Initial trust radius                 ....   0.400
   Minimum AH scaling param. (alpha)    ....   1.000
   Maximum AH scaling param. (alpha)    .... 1000.000
   Quad. conv. algorithm                .... NR
   White noise on init. David. guess    .... on
   Maximum white noise                  ....   0.010
   Pseudo random numbers                .... off
   Inactive MOs                         .... canonical
   Orbital update algorithm             .... Taylor
   Preconditioner                       .... Diag
   Full preconditioner red. dimension   ....   250
 SOSCF                  CNVSOSCF        .... on
   Start iteration      SOSCFMaxIt      ....   150
   Startup grad/error   SOSCFStart      ....  0.003300
   Hessian update       SOSCFHessUp     .... L-BFGS
 Level Shifting         CNVShift        .... on
   Level shift para.    LevelShift      ....    0.2500
   Turn off err/grad.   ShiftErr        ....    0.0010
 Zerner damping         CNVZerner       .... off
 Static damping         CNVDamp         .... on
   Fraction old density DampFac         ....    0.7000
   Max. Damping (<1)    DampMax         ....    0.9800
   Min. Damping (>=0)   DampMin         ....    0.0000
   Turn off err/grad.   DampErr         ....    0.1000

SCF Procedure:
 Maximum # iterations   MaxIter         ....   125
 SCF integral mode      SCFMode         .... Direct
   Integral package                     .... SHARK and LIBINT hybrid scheme
 Reset frequency        DirectResetFreq ....    20
 Integral Threshold     Thresh          ....  3.000e-11 Eh
 Primitive CutOff       TCut            ....  1.000e-12 Eh

Convergence Tolerance:
 Convergence Check Mode ConvCheckMode   .... Total+1el-Energy
 Convergence forced     ConvForced      .... 0
 Energy Change          TolE            ....  1.000e-07 Eh
 1-El. energy change                    ....  1.000e-04 Eh
 Orbital Gradient       TolG            ....  1.000e-04
 Orbital Rotation angle TolX            ....  1.000e-04
 DIIS Error             TolErr          ....  1.000e-07

---------------------
INITIAL GUESS: MOREAD
---------------------
Guess MOs are being read from file: sp_solv.ges
Input Geometry matches current geometry (good)
Atom 0: N(Shells)= 11 and 9 - projection required
Input basis set needs projection
NBasis(read)= 95
NBasis(calc)= 135
Basis set overlap was calculated
Using GuessMode=FMatrix for the initial guess
C*T matrix was formed
Effective Fockian was calculated
Effective Fockian was diagonalized
Initial density was built
                      ------------------
                      INITIAL GUESS DONE (   0.0 sec)
                      ------------------
             **** ENERGY FILE WAS UPDATED (sp_solv.en.tmp) ****
Finished Guess after   0.6 sec
Maximum memory used throughout the entire GUESS-calculation: 11.1 MB

-------------------------------------------------------------------------------------------
                                      ORCA LEAN-SCF
                              memory conserving SCF solver
-------------------------------------------------------------------------------------------

--------------------
CPCM SOLVATION MODEL
--------------------
CPCM parameters:
  Epsilon                                         ...      78.3550
  Refrac                                          ...       1.3328
  Rsolv                                           ...       1.3000
  Surface type                                    ... GAUSSIAN VDW
  Discretization scheme                           ... Constant charge density
    Threshold for H atoms                         ...       5.0000 (charges/Ang^2)
    Threshold for non-H atoms                     ...       5.0000 (charges/Ang^2)
  Epsilon function type                           ...         CPCM
Solvent:                                          ... WATER
SMD-CDS solvent descriptors:
  Soln                                            ...       1.3328
  Soln25                                          ...       1.3323
  Sola                                            ...       0.0000
  Solb                                            ...       0.0000
  Solg                                            ...       0.0000
  Solc                                            ...       0.0000
  Solh                                            ...       0.0000
Radii:
  Scheme                                          ... Element-dependent radii
  Radius for C  used is    3.4960 Bohr (=   1.8500 Ang.)
  Radius for S  used is    4.7054 Bohr (=   2.4900 Ang.)
  Radius for H  used is    2.2677 Bohr (=   1.2000 Ang.)
Calculating surface                               ...        done! (  0.0s)
Cavity surface points                             ...          889
Cavity Volume                                     ...     640.0650
Cavity Surface-area                               ...     395.6114
Calculating surface distance matrix               ...        done! (  0.0s)
Performing Cholesky decomposition & store         ...        done! (  0.4s)
Overall time for CPCM initialization              ...                 0.4s

----------------------------------------D-I-I-S--------------------------------------------
Iteration    Energy (Eh)           Delta-E    RMSDP     MaxDP     DIISErr   Damp  Time(sec)
-------------------------------------------------------------------------------------------
               ***  Starting incremental Fock matrix formation  ***
    1    -478.1044022863968621     0.00e+00  9.34e-04  1.43e-02  3.56e-02  0.700   5.8
    2    -478.1067738736979891    -2.37e-03  8.29e-04  1.40e-02  2.65e-02  0.700   6.1
                               ***Turning on AO-DIIS***
    3    -478.1085755595588580    -1.80e-03  7.10e-04  1.25e-02  1.91e-02  0.700   7.2
    4    -478.1099089393239865    -1.33e-03  1.82e-03  3.26e-02  1.35e-02  0.000   6.6
                              *** Initializing SOSCF ***
---------------------------------------S-O-S-C-F--------------------------------------
Iteration    Energy (Eh)           Delta-E    RMSDP     MaxDP     MaxGrad    Time(sec)
--------------------------------------------------------------------------------------
    5    -478.1133459893047757    -3.44e-03  1.06e-04  1.97e-03  9.42e-04     6.1
               *** Restarting incremental Fock matrix formation ***
    6    -478.1133435003564500     2.49e-06  4.92e-05  9.49e-04  2.30e-04     4.7
    7    -478.1133461294535891    -2.63e-06  2.74e-05  5.17e-04  8.71e-05     5.8
    8    -478.1133465089588981    -3.80e-07  4.46e-06  1.19e-04  4.31e-05     7.7
    9    -478.1133465511080658    -4.21e-08  1.53e-06  2.06e-05  1.07e-05     6.2
                 **** Energy Check signals convergence ****

               *****************************************************
               *                     SUCCESS                       *
               *           SCF CONVERGED AFTER   9 CYCLES          *
               *****************************************************


------------------
NL GRID GENERATION
------------------

General Integration Accuracy     IntAcc      ... 4.004
Radial Grid Type                 RadialGrid  ... OptM3 with GC (2021)
Angular Grid (max. ang.)         AngularGrid ... 2 (Lebedev-110)
Angular grid pruning method      GridPruning ... 4 (adaptive)
Weight generation scheme         WeightScheme... mBecke (2022)
Basis function cutoff            BFCut       ... 1.0000e-10
Integration weight cutoff        WCut        ... 1.0000e-14
Partially contracted basis set               ... off
Rotationally invariant grid construction     ... off
Angular grids for H and He will be reduced by one unit

Total number of grid points                  ...    11399
Total number of batches                      ...      182
Average number of points per batch           ...       62
Average number of grid points per atom       ...     1267
Final grid set up in    0.1 sec

-------------------------------------------------------------------------------
                    post-SCF DFT-NL dispersion correction                      
-------------------------------------------------------------------------------

SCF Energy:     -478.113346551 
NL    Energy:      0.136249045 
SC+NL Energy:   -477.977097506 
NL done in  :              0.5 sec
-------------------------------------------------------------------------------
Recomputing exchange energy using gridx3       ... done (    4.786 sec)
Old exchange energy                            :    -10.716198694 Eh
New exchange energy                            :    -10.716199896 Eh
Exchange energy change after final integration :     -0.000001202 Eh
Total energy after final integration           :   -477.977098708 Eh

SMD CDS free energy correction energy :                 1.98020     Kcal/mol
Total Energy after SMD CDS correction =              -477.973943058 Eh
             **** ENERGY FILE WAS UPDATED (sp_solv.en.tmp) ****

----------------
TOTAL SCF ENERGY
----------------

Total Energy       :       -477.97394305770746 Eh          -13006.33222 eV

Components:
Nuclear Repulsion  :        106.61523360457214 Eh            2901.14800 eV
Electronic Energy  :       -584.72251632552047 Eh          -15911.10857 eV
One Electron Energy:       -867.87021087700589 Eh          -23615.94905 eV
Two Electron Energy:        283.14769455148536 Eh            7704.84048 eV
CPCM Dielectric    :         -0.00606383015962 Eh              -0.16501 eV
SMD CDS (Gcds)     :          0.00315564995182 Eh               0.08587 eV

Virial components:
Potential Energy   :       -954.82212506971587 Eh          -25982.03092 eV
Kinetic Energy     :        476.84818201200835 Eh           12975.69870 eV
Virial Ratio       :          2.00236083744925

DFT components:
N(Alpha)           :       17.000003397289 electrons
N(Beta)            :       17.000003397289 electrons
N(Total)           :       34.000006794579 electrons
E(X)               :      -26.596428548473 Eh       
E(C)               :       -1.524339315565 Eh       
NL Energy, E(C,NL) :        0.136249045224 Eh       
E(XC)              :      -27.984518818814 Eh       

CPCM Solvation Model Properties:
Surface-charge          :         -0.02422428182288
Corrected charge        :          0.00000000000000
Outlying charge corr.   :          0.00005248205875 Eh               0.00143 eV
Free-energy (cav+disp)  :          0.00315564995182 Eh               0.08587 eV

---------------
SCF CONVERGENCE
---------------

  Last Energy change         ...    4.2149e-08  Tolerance :   1.0000e-07
  Last MAX-Density change    ...    2.0610e-05  Tolerance :   1.0000e-05
  Last RMS-Density change    ...    1.5288e-06  Tolerance :   1.0000e-06
  Last DIIS Error            ...    9.4189e-04  Tolerance :   1.0000e-07
  Last Orbital Gradient      ...    1.0737e-05  Tolerance :   1.0000e-04
  Last Orbital Rotation      ...    1.3743e-05  Tolerance :   1.0000e-04


----------------
ORBITAL ENERGIES
----------------

  NO   OCC          E(Eh)            E(eV) 
   0   2.0000     -94.116154     -2561.0307 
   1   2.0000     -12.072277      -328.5034 
   2   2.0000     -12.032973      -327.4338 
   3   2.0000      -9.627581      -261.9798 
   4   2.0000      -7.605247      -206.9493 
   5   2.0000      -7.604091      -206.9178 
   6   2.0000      -7.603796      -206.9098 
   7   2.0000      -1.288934       -35.0737 
   8   2.0000      -1.191504       -32.4225 
   9   2.0000      -1.071929       -29.1687 
  10   2.0000      -0.880454       -23.9584 
  11   2.0000      -0.849531       -23.1169 
  12   2.0000      -0.839057       -22.8319 
  13   2.0000      -0.794468       -21.6186 
  14   2.0000      -0.769041       -20.9267 
  15   2.0000      -0.739754       -20.1297 
  16   2.0000      -0.641981       -17.4692 
  17   0.0000      -0.192538        -5.2392 
  18   0.0000      -0.096405        -2.6233 
  19   0.0000      -0.001427        -0.0388 
  20   0.0000       0.013451         0.3660 
  21   0.0000       0.034212         0.9309 
  22   0.0000       0.057128         1.5545 
  23   0.0000       0.064104         1.7444 
  24   0.0000       0.068735         1.8704 
  25   0.0000       0.135094         3.6761 
  26   0.0000       0.161423         4.3925 
  27   0.0000       0.170056         4.6275 
*Only the first 10 virtual orbitals were printed.

                    ********************************
                    * MULLIKEN POPULATION ANALYSIS *
                    ********************************

-----------------------
MULLIKEN ATOMIC CHARGES
-----------------------
   0 C :   -0.361035
   1 C :   -0.165384
   2 S :   -0.299175
   3 H :    0.128856
   4 H :    0.125630
   5 H :    0.124342
   6 H :    0.141187
   7 H :    0.140676
   8 H :    0.164901
Sum of atomic charges:   -0.0000000

--------------------------------
MULLIKEN REDUCED ORBITAL CHARGES
--------------------------------
  0 C s       :     3.233051  s :     3.233051
      pz      :     1.064249  p :     3.061255
      px      :     0.991290
      py      :     1.005715
      dz2     :     0.007834  d :     0.063179
      dxz     :     0.004410
      dyz     :     0.023446
      dx2y2   :     0.015968
      dxy     :     0.011521
      f0      :     0.000374  f :     0.003550
      f+1     :     0.000090
      f-1     :     0.001008
      f+2     :    -0.000014
      f-2     :     0.000579
      f+3     :     0.000657
      f-3     :     0.000857

  1 C s       :     3.180017  s :     3.180017
      pz      :     1.066153  p :     2.878187
      px      :     0.838560
      py      :     0.973473
      dz2     :     0.010172  d :     0.102235
      dxz     :     0.013308
      dyz     :     0.027913
      dx2y2   :     0.031225
      dxy     :     0.019617
      f0      :     0.000502  f :     0.004945
      f+1     :     0.000266
      f-1     :     0.000972
      f+2     :     0.000041
      f-2     :     0.000791
      f+3     :     0.001291
      f-3     :     0.001082

  2 S s       :     5.801173  s :     5.801173
      pz      :     3.475384  p :    10.377009
      px      :     3.354142
      py      :     3.547483
      dz2     :     0.021081  d :     0.110989
      dxz     :     0.012421
      dyz     :     0.034163
      dx2y2   :     0.024926
      dxy     :     0.018397
      f0      :     0.000757  f :     0.010004
      f+1     :     0.000904
      f-1     :     0.002623
      f+2     :     0.001257
      f-2     :     0.000962
      f+3     :     0.001468
      f-3     :     0.002032

  3 H s       :     0.850401  s :     0.850401
      pz      :     0.004185  p :     0.020742
      px      :     0.010985
      py      :     0.005572

  4 H s       :     0.853666  s :     0.853666
      pz      :     0.008959  p :     0.020704
      px      :     0.004012
      py      :     0.007733

  5 H s       :     0.854841  s :     0.854841
      pz      :     0.010177  p :     0.020816
      px      :     0.004011
      py      :     0.006629

  6 H s       :     0.837503  s :     0.837503
      pz      :     0.009334  p :     0.021310
      px      :     0.003871
      py      :     0.008105

  7 H s       :     0.837782  s :     0.837782
      pz      :     0.010442  p :     0.021542
      px      :     0.004032
      py      :     0.007068

  8 H s       :     0.811901  s :     0.811901
      pz      :     0.010960  p :     0.023198
      px      :     0.003818
      py      :     0.008420


------------------------
MULLIKEN OVERLAP CHARGES
------------------------
B(  0-C ,  1-C ) :   0.6584 B(  0-C ,  2-S ) :  -0.1225 B(  0-C ,  3-H ) :   0.7966 
B(  0-C ,  4-H ) :   0.8219 B(  0-C ,  5-H ) :   0.8167 B(  0-C ,  6-H ) :  -0.0609 
B(  0-C ,  7-H ) :  -0.0756 B(  1-C ,  2-S ) :   0.5895 B(  1-C ,  3-H ) :  -0.0663 
B(  1-C ,  4-H ) :  -0.0705 B(  1-C ,  5-H ) :  -0.0706 B(  1-C ,  6-H ) :   0.8057 
B(  1-C ,  7-H ) :   0.8556 B(  1-C ,  8-H ) :  -0.0671 B(  2-S ,  6-H ) :  -0.0536 
B(  2-S ,  7-H ) :  -0.0824 B(  2-S ,  8-H ) :   0.7055 B(  4-H ,  5-H ) :  -0.0554 
B(  6-H ,  7-H ) :  -0.0560 


                     *******************************
                     * LOEWDIN POPULATION ANALYSIS *
                     *******************************

----------------------
LOEWDIN ATOMIC CHARGES
----------------------
   0 C :   -0.342144
   1 C :   -0.488180
   2 S :    0.170993
   3 H :    0.124396
   4 H :    0.119375
   5 H :    0.118263
   6 H :    0.130151
   7 H :    0.124134
   8 H :    0.043012

-------------------------------
LOEWDIN REDUCED ORBITAL CHARGES
-------------------------------
  0 C s       :     2.838307  s :     2.838307
      pz      :     1.076217  p :     3.209487
      px      :     1.065833
      py      :     1.067438
      dz2     :     0.038919  d :     0.269134
      dxz     :     0.019890
      dyz     :     0.083931
      dx2y2   :     0.066710
      dxy     :     0.059684
      f0      :     0.002455  f :     0.025215
      f+1     :     0.002888
      f-1     :     0.003663
      f+2     :     0.002677
      f-2     :     0.003793
      f+3     :     0.004192
      f-3     :     0.005548

  1 C s       :     2.857974  s :     2.857974
      pz      :     1.082463  p :     3.182682
      px      :     1.034470
      py      :     1.065748
      dz2     :     0.049775  d :     0.413411
      dxz     :     0.052361
      dyz     :     0.098239
      dx2y2   :     0.118538
      dxy     :     0.094497
      f0      :     0.003338  f :     0.034113
      f+1     :     0.003340
      f-1     :     0.003881
      f+2     :     0.003536
      f-2     :     0.004841
      f+3     :     0.008260
      f-3     :     0.006916

  2 S s       :     5.385498  s :     5.385498
      pz      :     3.436208  p :    10.242854
      px      :     3.321458
      py      :     3.485188
      dz2     :     0.028665  d :     0.176146
      dxz     :     0.022018
      dyz     :     0.048572
      dx2y2   :     0.041555
      dxy     :     0.035335
      f0      :     0.002156  f :     0.024508
      f+1     :     0.002336
      f-1     :     0.004919
      f+2     :     0.003239
      f-2     :     0.002490
      f+3     :     0.004502
      f-3     :     0.004867

  3 H s       :     0.814966  s :     0.814966
      pz      :     0.013143  p :     0.060639
      px      :     0.029857
      py      :     0.017639

  4 H s       :     0.819782  s :     0.819782
      pz      :     0.026555  p :     0.060844
      px      :     0.012597
      py      :     0.021692

  5 H s       :     0.820750  s :     0.820750
      pz      :     0.029563  p :     0.060988
      px      :     0.012546
      py      :     0.018878

  6 H s       :     0.808071  s :     0.808071
      pz      :     0.027836  p :     0.061778
      px      :     0.011652
      py      :     0.022290

  7 H s       :     0.813741  s :     0.813741
      pz      :     0.030463  p :     0.062125
      px      :     0.011753
      py      :     0.019909

  8 H s       :     0.881558  s :     0.881558
      pz      :     0.037743  p :     0.075429
      px      :     0.011898
      py      :     0.025787


---------------------------------
LOEWDIN BOND ORDERS (THRESH 0.050000)
---------------------------------
B(  0-C ,  1-C ) :   1.3530 B(  0-C ,  2-S ) :   0.1414 B(  0-C ,  3-H ) :   0.8993 
B(  0-C ,  4-H ) :   0.9078 B(  0-C ,  5-H ) :   0.9092 B(  0-C ,  6-H ) :   0.0774 
B(  0-C ,  7-H ) :   0.0781 B(  1-C ,  2-S ) :   1.4428 B(  1-C ,  3-H ) :   0.0845 
B(  1-C ,  4-H ) :   0.0802 B(  1-C ,  5-H ) :   0.0799 B(  1-C ,  6-H ) :   0.8813 
B(  1-C ,  7-H ) :   0.8878 B(  1-C ,  8-H ) :   0.0637 B(  2-S ,  6-H ) :   0.0585 
B(  2-S ,  7-H ) :   0.0553 B(  2-S ,  8-H ) :   1.0365 

------------------------------------------
LOEWDIN REDUCED ORBITAL POPULATIONS PER MO
-------------------------------------------
THRESHOLD FOR PRINTING IS 0.1%%
                      0         1         2         3         4         5   
                 -94.11615 -12.07228 -12.03297  -9.62758  -7.60525  -7.60409
                   2.00000   2.00000   2.00000   2.00000   2.00000   2.00000
                  --------  --------  --------  --------  --------  --------
 0 C  s               0.0       0.0      99.5       0.0       0.0       0.0
 0 C  dxy             0.0       0.1       0.0       0.0       0.0       0.0
 1 C  s               0.0      99.5       0.0       0.0       0.0       0.0
 1 C  dxy             0.0       0.0       0.1       0.0       0.0       0.0
 2 S  s             100.0       0.0       0.0      99.7       0.0       0.0
 2 S  pz              0.0       0.0       0.0       0.0      11.0      68.2
 2 S  px              0.0       0.0       0.0       0.0      48.8      29.1
 2 S  py              0.0       0.0       0.0       0.0      40.2       2.6

                      6         7         8         9        10        11   
                  -7.60380  -1.28893  -1.19150  -1.07193  -0.88045  -0.84953
                   2.00000   2.00000   2.00000   2.00000   2.00000   2.00000
                  --------  --------  --------  --------  --------  --------
 0 C  s               0.0      14.9      17.6       9.1       0.0       0.1
 0 C  pz              0.0       0.0       0.0       0.0      18.9       1.0
 0 C  px              0.0       3.3       0.4       3.8       0.0      28.1
 0 C  py              0.0       1.9       0.1       5.9       0.6       5.8
 0 C  dz2             0.0       0.2       0.0       0.3       0.0       0.1
 0 C  dxz             0.0       0.0       0.0       0.0       0.5       0.0
 0 C  dx2y2           0.0       0.1       0.1       0.0       0.0       0.0
 0 C  dxy             0.0       0.6       0.0       1.0       0.0       0.5
 1 C  s               0.0      28.4       0.6      13.7       0.0       0.3
 1 C  pz              0.0       0.0       0.0       0.0      34.9       0.4
 1 C  px              0.0       0.3      18.5       0.1       1.9       1.4
 1 C  py              0.0       2.5       0.2       9.7       0.0      21.6
 1 C  dz2             0.0       0.5       0.0       0.8       0.0       0.2
 1 C  dyz             0.0       0.0       0.0       0.0       0.2       0.0
 1 C  dx2y2           0.0       0.3       0.4       0.2       0.0       0.4
 1 C  dxy             0.0       0.0       2.6       0.1       0.0       0.0
 1 C  f-3             0.0       0.1       0.0       0.0       0.0       0.0
 2 S  s               0.0      17.9      33.2       8.0       0.3       0.9
 2 S  pz             20.7       0.1       0.2       0.3       7.1       0.4
 2 S  px             22.1       2.5       0.4       3.6       0.3       8.7
 2 S  py             57.2       0.3       0.1       2.6       1.7       0.4
 2 S  dz2             0.0       0.2       0.0       0.3       0.1       0.2
 2 S  dxz             0.0       0.0       0.0       0.0       0.6       0.0
 2 S  dx2y2           0.0       0.3       0.1       0.2       0.0       0.8
 2 S  dxy             0.0       0.2       0.0       0.7       0.0       0.0
 3 H  s               0.0       2.8       4.6       4.3       0.1      16.1
 3 H  pz              0.0       0.0       0.0       0.0       0.2       0.0
 3 H  px              0.0       0.2       0.4       0.2       0.0       0.3
 3 H  py              0.0       0.0       0.1       0.2       0.0       0.1
 4 H  s               0.0       2.7       4.5       5.2       2.7       2.1
 4 H  pz              0.0       0.1       0.3       0.4       0.0       0.1
 4 H  px              0.0       0.0       0.0       0.0       0.0       0.3
 4 H  py              0.0       0.1       0.2       0.1       0.2       0.0
 5 H  s               0.0       2.7       4.4       5.1       6.5       0.1
 5 H  pz              0.0       0.2       0.3       0.4       0.1       0.0
 5 H  px              0.0       0.0       0.0       0.0       0.0       0.3
 5 H  py              0.0       0.1       0.1       0.1       0.2       0.0
 6 H  s               0.0       5.5       0.1       8.6       7.3       4.8
 6 H  pz              0.0       0.3       0.0       0.6       0.0       0.2
 6 H  py              0.0       0.3       0.0       0.2       0.4       0.0
 7 H  s               0.0       5.4       0.1       8.1      11.0       1.6
 7 H  pz              0.0       0.3       0.0       0.7       0.1       0.2
 7 H  py              0.0       0.2       0.0       0.1       0.4       0.1
 8 H  s               0.0       3.7       8.8       4.5       3.1       1.6
 8 H  pz              0.0       0.3       0.7       0.3       0.0       0.0
 8 H  py              0.0       0.2       0.3       0.1       0.0       0.0

                     12        13        14        15        16        17   
                  -0.83906  -0.79447  -0.76904  -0.73975  -0.64198  -0.19254
                   2.00000   2.00000   2.00000   2.00000   2.00000   0.00000
                  --------  --------  --------  --------  --------  --------
 0 C  s               0.3       0.1       0.0       0.0       0.3       0.1
 0 C  pz              2.5      15.2      15.5       0.7       0.0       0.0
 0 C  px              8.3       0.9       1.5       5.9       1.1       0.6
 0 C  py             20.0      12.5       5.4       1.0       0.3       0.3
 0 C  dz2             0.3       0.6       0.0       0.3       0.0       0.4
 0 C  dxz             0.0       0.1       0.3       0.0       0.0       0.0
 0 C  dyz             0.1       0.9       2.8       0.3       0.1       0.0
 0 C  dx2y2           0.0       0.6       1.0       1.4       0.0       2.4
 0 C  dxy             0.3       0.0       0.1       0.2       0.1       0.2
 0 C  f-3             0.0       0.1       0.0       0.1       0.0       0.3
 1 C  s               0.2       0.0       0.0       0.1       0.0       7.3
 1 C  pz              2.2       1.5      12.1       2.4       0.6       0.0
 1 C  px             19.4       0.2       1.4       8.1       0.3      18.3
 1 C  py              6.2       5.5       4.7       1.9       0.8       5.5
 1 C  dz2             0.0       0.5       0.1       0.1       0.1       1.2
 1 C  dxz             0.3       1.1       0.3       0.1       0.7       0.1
 1 C  dyz             0.0       0.3       3.0       0.9       0.5       0.1
 1 C  dx2y2           0.0       1.8       1.5       0.3       0.9       1.2
 1 C  dxy             0.1       0.0       0.1       0.5       1.2       1.1
 1 C  f-2             0.0       0.1       0.1       0.0       0.0       0.0
 1 C  f+3             0.0       0.0       0.0       0.1       0.2       0.1
 1 C  f-3             0.0       0.1       0.0       0.0       0.0       0.2
 2 S  s               0.1       2.6       0.1       6.4       0.0       2.5
 2 S  pz              3.0      16.2       0.6      15.1      29.0       1.0
 2 S  px              1.6       0.4       2.2      35.9      10.5      23.3
 2 S  py             12.2       3.1       4.1       0.3      49.5       9.3
 2 S  dz2             0.2       0.2       0.1       0.0       0.0       5.3
 2 S  dxz             0.0       0.0       0.3       0.0       0.1       0.0
 2 S  dyz             0.5       0.3       0.7       0.6       0.0       0.5
 2 S  dx2y2           0.0       0.2       0.2       0.0       0.1       6.2
 2 S  dxy             0.4       0.0       0.0       0.2       0.0       6.9
 2 S  f+1             0.0       0.0       0.0       0.0       0.0       0.5
 2 S  f+3             0.0       0.0       0.0       0.0       0.0       0.1
 2 S  f-3             0.0       0.0       0.0       0.1       0.0       0.7
 3 H  s               0.4       4.1       3.0       5.0       0.3       0.7
 3 H  pz              0.0       0.2       0.2       0.0       0.0       0.0
 3 H  px              0.1       0.2       0.1       0.0       0.0       0.1
 3 H  py              0.3       0.0       0.0       0.0       0.0       0.0
 4 H  s               8.7       0.3      14.8       0.0       0.1       0.1
 4 H  pz              0.3       0.1       0.1       0.0       0.0       0.0
 4 H  px              0.1       0.0       0.0       0.1       0.0       0.0
 4 H  py              0.0       0.3       0.1       0.0       0.0       0.0
 5 H  s               0.8      16.1       3.1       2.1       0.2       0.1
 5 H  pz              0.1       0.3       0.0       0.0       0.0       0.0
 5 H  px              0.1       0.0       0.0       0.1       0.0       0.0
 5 H  py              0.2       0.0       0.3       0.0       0.0       0.0
 6 H  s               0.1       0.4      13.4       0.2       0.0       0.2
 6 H  px              0.3       0.0       0.0       0.1       0.0       0.5
 6 H  py              0.1       0.0       0.1       0.1       0.0       0.2
 7 H  s               2.6       4.0       2.3       4.0       1.6       0.3
 7 H  px              0.3       0.0       0.0       0.1       0.0       0.6
 7 H  py              0.0       0.0       0.2       0.0       0.0       0.2
 8 H  s               6.5       8.2       3.4       4.2       0.0       0.6
 8 H  pz              0.2       0.0       0.0       0.0       0.3       0.0
 8 H  px              0.0       0.0       0.0       0.3       0.1       0.5
 8 H  py              0.0       0.0       0.0       0.0       0.5       0.0

                     18        19        20        21        22        23   
                  -0.09641  -0.00143   0.01345   0.03421   0.05713   0.06410
                   0.00000   0.00000   0.00000   0.00000   0.00000   0.00000
                  --------  --------  --------  --------  --------  --------
 0 C  s               0.0      17.1       1.2       0.0       4.2       0.0
 0 C  pz              0.2       0.0       0.1       5.6       0.2      17.1
 0 C  px              0.1       4.2       8.9       0.1       0.1       0.5
 0 C  py              0.2       2.9       3.0       0.0      17.8       0.0
 0 C  dz2             0.0       0.8       1.1       0.1       6.3       0.6
 0 C  dxz             0.0       0.0       0.1       1.9       0.0       3.2
 0 C  dyz             0.0       0.0       0.0       5.7       0.0       8.6
 0 C  dx2y2           0.3       0.1       0.9       0.0       2.3       0.0
 0 C  dxy             0.0       2.6      11.4       0.0       0.1       0.5
 0 C  f0              0.0       0.0       0.0       0.1       0.0       0.0
 0 C  f+1             0.0       0.0       0.2       0.0       0.0       0.0
 0 C  f-1             0.0       0.3       0.0       0.0       0.4       0.0
 0 C  f+2             0.0       0.0       0.0       0.2       0.0       0.1
 0 C  f-2             0.0       0.0       0.0       0.1       0.0       0.0
 0 C  f+3             0.0       0.1       0.2       0.0       0.0       0.0
 0 C  f-3             0.0       0.4       0.0       0.0       0.0       0.0
 1 C  s               0.1       1.0      13.6       0.0       0.6       0.1
 1 C  pz              0.1       0.0       0.0      17.2       0.0       2.4
 1 C  px              2.7       7.3       3.7       0.1       1.1       0.1
 1 C  py              0.9       8.0       2.2       0.1       4.7       0.4
 1 C  dz2             0.8       5.4       0.5       0.1       0.8       0.5
 1 C  dxz             0.7       0.0       0.1       0.0       0.0       5.4
 1 C  dyz             0.1       0.2       0.1      15.6       0.0       1.1
 1 C  dx2y2           0.0       0.2       1.6       0.0       3.1       0.1
 1 C  dxy             1.8      11.3       1.3       0.0       0.7       0.0
 1 C  f+1             0.1       0.2       0.0       0.0       0.0       0.0
 1 C  f-1             0.0       0.0       0.4       0.0       0.3       0.0
 1 C  f+2             0.1       0.0       0.0       0.3       0.0       0.0
 1 C  f-2             0.0       0.0       0.0       0.0       0.0       0.2
 1 C  f+3             0.0       0.2       0.0       0.0       0.0       0.0
 1 C  f-3             0.1       0.2       0.0       0.0       0.0       0.0
 2 S  s               9.7       0.0       0.4       0.0       0.1       0.1
 2 S  pz             16.9       0.0       0.8       1.0       0.2       0.6
 2 S  px              1.4       0.2       0.2       0.0       0.0       0.1
 2 S  py              6.1       1.1       0.4       0.0       1.6       0.0
 2 S  dz2             3.5       0.6       0.2       0.0       0.9       0.7
 2 S  dxz             0.5       0.0       0.0       6.8       0.0      11.4
 2 S  dyz            15.2       0.0       2.0       0.1       0.9       0.3
 2 S  dx2y2           0.4       5.1       0.1       0.0       1.4       0.0
 2 S  dxy             0.2       2.9       0.8       0.0       2.8       0.5
 2 S  f-1             1.0       0.0       0.1       0.0       0.0       0.0
 2 S  f+2             0.3       0.0       0.0       0.2       0.0       0.1
 2 S  f+3             0.0       0.2       0.0       0.0       0.1       0.0
 2 S  f-3             0.1       0.0       0.1       0.0       0.1       0.0
 3 H  s               0.1       5.7       6.9       0.2       0.8       0.8
 3 H  pz              0.0       0.0       0.0       0.1       0.0       1.4
 3 H  px              0.0       2.4       0.9       0.0       0.3       0.1
 3 H  py              0.0       0.0       1.3       0.0       0.5       0.1
 4 H  s               0.4       5.4       0.7       3.9      13.1      12.2
 4 H  pz              0.0       0.8       0.3       0.4       4.4       0.9
 4 H  px              0.0       0.1       0.8       0.0       0.0       0.3
 4 H  py              0.0       1.3       0.0       1.0       0.6       2.8
 5 H  s               0.0       5.1       1.7       3.3      15.2      14.0
 5 H  pz              0.0       1.1       0.5       0.4       5.1       1.8
 5 H  px              0.0       0.1       0.8       0.1       0.0       0.0
 5 H  py              0.0       1.0       0.0       0.7       0.3       1.8
 6 H  s               0.5       0.8      11.8      12.1       2.8       0.9
 6 H  pz              0.0       0.4       2.5       0.9       0.8       0.0
 6 H  px              0.3       0.6       0.1       0.0       0.0       0.2
 6 H  py              0.0       0.1       1.6       2.5       0.2       0.4
 7 H  s               0.2       0.5       9.3      14.1       2.9       4.6
 7 H  pz              0.0       0.3       2.5       1.6       0.9       0.6
 7 H  px              0.1       0.6       0.1       0.0       0.1       0.2
 7 H  py              0.0       0.2       0.7       2.6       0.2       0.3
 8 H  s              27.9       0.3       1.3       0.2       0.8       0.5
 8 H  pz              4.2       0.1       0.0       0.0       0.0       0.0
 8 H  px              0.0       0.1       0.0       0.2       0.0       0.9
 8 H  py              2.3       0.1       0.0       0.0       0.1       0.0

                     24        25        26        27        28        29   
                   0.06873   0.13509   0.16142   0.17006   0.17446   0.18545
                   0.00000   0.00000   0.00000   0.00000   0.00000   0.00000
                  --------  --------  --------  --------  --------  --------
 0 C  s               1.3       0.7       0.4       0.2       0.0       0.2
 0 C  pz              0.8       0.5       0.4       4.3       1.6       0.9
 0 C  px             11.7      12.7       1.5      11.7       6.1       0.3
 0 C  py              3.2       4.4       4.7       0.7       5.2       4.5
 0 C  dz2             5.7       2.5       1.1       0.4       0.5       0.3
 0 C  dxz             0.2       0.0       0.1       0.3       0.0       0.1
 0 C  dyz             1.2       0.2       0.1       1.2       1.4       1.3
 0 C  dx2y2           0.2       0.1       0.1       0.1       0.3       1.4
 0 C  dxy             4.2       0.1       2.2       2.2       3.0       0.1
 0 C  f+1             0.1       0.0       0.1       0.0       0.1       0.0
 1 C  s               2.2       0.9       0.1       0.6       0.1       0.2
 1 C  pz              0.0       0.7       6.5       1.9      15.3       4.4
 1 C  px              0.6       7.3       1.1       7.6       5.5      11.0
 1 C  py              4.6       0.1      20.6       0.2       3.3       4.8
 1 C  dz2             5.1       0.2       1.5       0.3       0.1       2.1
 1 C  dxz             0.4       0.3       1.1       0.9       0.6       0.0
 1 C  dyz             0.2       0.1       0.5       0.1       0.9       1.6
 1 C  dx2y2           0.5       0.6       0.1       0.4       0.0       1.5
 1 C  dxy             0.0       0.1       0.1       1.2       2.4       2.6
 1 C  f+1             0.0       0.0       0.1       0.1       0.0       0.1
 1 C  f+2             0.0       0.1       0.1       0.0       0.1       0.0
 1 C  f+3             0.1       0.2       0.0       0.2       0.0       0.2
 1 C  f-3             0.2       0.0       0.0       0.0       0.0       0.1
 2 S  s               0.2       7.1       0.0       1.3       0.0       0.6
 2 S  pz              0.0       0.1       0.4       0.0       0.8       8.6
 2 S  px              0.3       7.5       0.4       3.6       2.3       4.0
 2 S  py              2.1       1.0       0.2       0.5       1.7       8.5
 2 S  dz2             2.2       4.2      18.0      15.4       0.1       1.4
 2 S  dxz             0.3       0.0       8.0       2.7      20.6       1.3
 2 S  dyz             0.6      10.3       5.1      13.8       0.3       1.5
 2 S  dx2y2           0.6       0.1       8.8       3.3       9.6       0.7
 2 S  dxy             0.6      11.1       0.4      11.1       0.1      10.7
 3 H  s              22.8       2.7       0.5       3.1       0.5       1.7
 3 H  pz              0.1       0.0       0.0       0.2       0.1       0.0
 3 H  px              5.0       0.4       0.0       1.0       0.2       0.1
 3 H  py              1.6       0.4       0.2       0.0       0.2       0.1
 4 H  s               2.2       1.0       0.9       0.6       2.3       0.6
 4 H  pz              0.6       0.3       0.0       0.2       0.0       0.1
 4 H  px              0.5       0.0       0.3       0.1       0.2       0.0
 4 H  py              0.0       0.0       0.7       0.0       0.0       0.2
 5 H  s               0.1       0.6       0.4       1.7       0.7       2.6
 5 H  pz              0.0       0.0       0.1       0.1       0.0       0.0
 5 H  px              0.7       0.0       0.2       0.1       0.2       0.2
 5 H  py              0.7       0.2       0.0       0.1       0.5       0.1
 6 H  s               6.3       0.8       7.5       0.7       1.7       0.2
 6 H  pz              2.4       0.2       0.7       0.1       0.4       0.0
 6 H  px              0.0       0.0       0.0       0.0       0.2       0.6
 6 H  py              0.1       0.0       0.9       0.0       0.1       0.2
 7 H  s               4.5       0.2       0.1       0.3       6.3       6.3
 7 H  pz              2.1       0.0       0.0       0.1       0.8       0.1
 7 H  px              0.0       0.0       0.1       0.4       0.2       0.4
 7 H  py              0.0       0.0       0.1       0.2       0.3       0.0
 8 H  s               0.2      17.8       0.0       2.7       1.9       9.4
 8 H  pz              0.0       0.6       0.8       0.6       0.3       1.0
 8 H  px              0.0       0.4       0.9       0.8       0.8       0.1
 8 H  py              0.2       0.7       1.4       0.3       0.0       0.6

                     30        31        32        33        34        35   
                   0.20474   0.21559   0.22510   0.24347   0.28812   0.33366
                   0.00000   0.00000   0.00000   0.00000   0.00000   0.00000
                  --------  --------  --------  --------  --------  --------
 0 C  s               0.2       0.2       0.1       1.7       1.7       9.5
 0 C  pz              1.7      10.6      35.7       1.4       1.1       0.2
 0 C  px              0.5       4.0       0.5       0.4      17.0       3.7
 0 C  py              1.4       0.3       0.4      28.2       7.6       1.0
 0 C  dz2             0.6       1.3       0.0       4.5       0.0       0.3
 0 C  dxz             0.5       0.2       3.5       0.3       0.5       0.4
 0 C  dyz             0.0       2.4       3.4       0.6       0.0       0.0
 0 C  dx2y2           0.4       0.2       0.4       0.4       1.4       0.3
 0 C  dxy             0.1       0.1       0.0       0.2       0.6       2.7
 0 C  f+1             0.0       0.0       0.0       0.0       0.0       0.2
 0 C  f-1             0.0       0.0       0.0       0.1       0.5       0.4
 0 C  f-3             0.0       0.0       0.0       0.0       0.4       0.5
 1 C  s               1.7       0.0       0.1       0.7       4.2       5.8
 1 C  pz              0.3       1.0       2.1       0.2       0.1       1.0
 1 C  px              0.5       2.2       0.6       1.7       0.3       4.1
 1 C  py              0.2       1.8       2.8       9.2      12.9       3.3
 1 C  dz2             0.5       0.0       1.6       4.5       1.8       1.5
 1 C  dxz             0.0       1.0       0.9       0.0       0.0       0.0
 1 C  dyz             0.2       1.1       0.4       0.1       0.1       0.8
 1 C  dx2y2           0.2       0.2       0.2       1.0       0.1       0.0
 1 C  dxy             0.5       0.4       0.1       0.2       0.3       0.1
 1 C  f+1             0.0       0.0       0.0       0.2       0.0       0.0
 1 C  f-1             0.0       0.0       0.0       0.0       1.3       0.0
 1 C  f+2             0.0       0.0       0.1       0.0       0.0       0.0
 1 C  f+3             0.0       0.1       0.1       0.0       0.2       0.0
 1 C  f-3             0.0       0.0       0.0       0.5       0.5       0.0
 2 S  s               3.7       0.0       0.1       0.1       1.0       0.4
 2 S  pz             21.4      19.3      10.6       0.2       1.0       5.2
 2 S  px             45.1       4.3       1.6       0.1       3.6       2.7
 2 S  py              1.1      27.3      11.6       0.0       9.1       0.9
 2 S  dz2             0.4       0.2       0.6      14.7       5.8       0.7
 2 S  dxz             4.6       6.3       2.0       0.3       0.1       0.0
 2 S  dyz             3.9       0.0       1.0       0.1       3.0       1.3
 2 S  dx2y2           1.9       0.7       2.6      18.1       1.7       0.5
 2 S  dxy             0.2       2.2       1.9       0.6       0.3       9.4
 2 S  f+1             0.0       0.0       0.0       0.0       0.1       0.0
 2 S  f-3             0.0       0.0       0.0       0.0       0.0       0.3
 3 H  s               2.3       0.6       0.4       0.5       0.6      12.4
 3 H  pz              0.0       0.3       0.9       0.1       0.1       0.0
 3 H  px              0.0       0.2       0.1       0.5       0.0       1.0
 3 H  py              0.1       0.0       0.0       0.0       0.5       0.8
 4 H  s               0.5       1.8       4.3       2.5       2.0       3.3
 4 H  pz              0.1       0.6       0.2       0.0       0.3       0.5
 4 H  px              0.1       0.0       0.0       0.0       0.0       0.5
 4 H  py              0.0       0.0       0.0       0.6       0.3       0.9
 5 H  s               0.4       4.0       2.9       0.4       2.1       3.6
 5 H  pz              0.0       0.0       1.3       0.3       0.1       0.6
 5 H  px              0.0       0.0       0.3       0.1       0.1       0.2
 5 H  py              0.1       0.0       0.1       0.5       0.1       0.6
 6 H  s               1.3       1.4       1.7       0.2       5.8       6.7
 6 H  pz              0.1       0.0       0.6       0.1       0.9       0.5
 6 H  px              0.0       0.3       0.3       0.0       0.0       0.0
 6 H  py              0.1       0.1       0.1       1.2       0.1       0.2
 7 H  s               0.1       1.3       0.1       0.2       6.1       1.7
 7 H  pz              0.0       0.4       0.0       0.2       1.5       0.8
 7 H  px              0.1       0.0       0.3       0.0       0.0       0.0
 7 H  py              0.1       0.6       0.6       0.7       0.1       0.0
 8 H  s               1.5       0.6       0.6       0.2       0.4       7.6
 8 H  pz              0.7       0.0       0.0       0.3       0.0       0.1
 8 H  px              0.0       0.0       0.1       0.1       0.1       0.2
 8 H  py              0.2       0.0       0.0       1.1       0.1       0.1

                     36        37        38        39        40        41   
                   0.34820   0.37462   0.38151   0.38495   0.38900   0.39334
                   0.00000   0.00000   0.00000   0.00000   0.00000   0.00000
                  --------  --------  --------  --------  --------  --------
 0 C  s               2.1       0.6       0.4       1.2       4.9      14.4
 0 C  pz              2.2       1.1       3.0       5.3       0.1       7.7
 0 C  px              2.3       2.9       1.5       1.3       0.6       8.7
 0 C  py              1.2       5.3       5.5       0.1      10.1       1.7
 0 C  dz2             2.4       0.8       3.4       0.0       1.1       0.1
 0 C  dxz             5.5       1.8       6.6       1.1       1.0       1.2
 0 C  dyz             0.8       0.4       1.0       0.4       0.0       0.7
 0 C  dx2y2           0.3       5.2       2.8       0.1       0.3       0.0
 0 C  dxy             1.5       0.1       0.5       0.0       0.1       0.2
 0 C  f0              0.0       0.0       0.0       0.1       0.0       0.1
 0 C  f-1             0.0       0.2       0.0       0.0       0.1       0.0
 0 C  f+2             0.0       0.0       0.0       0.0       0.0       0.1
 0 C  f-2             0.0       0.0       0.0       0.2       0.0       0.0
 0 C  f+3             0.2       0.2       0.1       0.0       0.1       0.0
 0 C  f-3             0.1       0.2       0.0       0.0       0.1       0.0
 1 C  s               4.9       6.5       1.9       1.5       3.9       0.2
 1 C  pz              6.1       1.2       9.1      12.0       4.2       7.5
 1 C  px              2.5      16.1       1.4       1.7       2.7       3.6
 1 C  py              4.3       1.8       7.3       0.2       5.9       0.3
 1 C  dz2             0.2       2.5       1.3       0.2       0.1       0.0
 1 C  dxz             2.3       0.5       2.5       0.1       0.3       0.1
 1 C  dyz             0.5       0.8       0.2       4.2       0.1       0.6
 1 C  dx2y2           1.4       2.1       4.8       0.1       0.4       0.2
 1 C  dxy             0.1       0.4       0.0       0.1       0.6       0.1
 1 C  f0              0.0       0.0       0.0       0.1       0.0       0.2
 1 C  f-1             0.0       0.0       0.0       0.0       0.2       0.0
 1 C  f+2             0.1       0.0       0.0       0.2       0.1       0.1
 1 C  f-2             0.0       0.0       0.1       0.1       0.0       0.0
 1 C  f+3             0.1       0.0       0.0       0.0       0.1       0.0
 2 S  s               3.4       4.1       0.0       0.0       0.2       0.1
 2 S  pz              4.9       1.6       5.6       0.0       0.2       3.5
 2 S  px              0.3       0.1       0.5       0.2       0.5       0.6
 2 S  py              6.1       4.9       2.7       2.4       8.1       1.3
 2 S  dz2             0.2       0.1       0.8       0.1       0.1       0.1
 2 S  dxz             1.4       2.7       7.5       0.9       1.7       1.2
 2 S  dyz             5.7       0.5       0.1       2.7       0.0       0.8
 2 S  dx2y2           0.1       8.2       1.3       0.3       1.9       0.0
 2 S  dxy             8.8       0.5       2.5       0.3       0.5       0.3
 2 S  f0              0.0       0.0       0.0       0.1       0.0       0.0
 2 S  f+1             0.0       0.0       0.0       0.0       0.0       0.1
 2 S  f-1             0.3       0.0       0.0       0.0       0.0       0.0
 2 S  f+2             0.1       0.0       0.0       0.0       0.0       0.0
 2 S  f+3             0.0       0.0       0.0       0.0       0.2       0.0
 2 S  f-3             0.0       0.1       0.0       0.0       0.0       0.0
 3 H  s               4.0      12.8       0.6       1.7       7.4       8.0
 3 H  pz              0.5       0.2       0.6       0.4       0.1       0.1
 3 H  px              0.3       1.5       0.0       0.0       0.0       0.5
 3 H  py              0.1       0.0       0.0       0.1       0.3       0.2
 4 H  s               4.4       0.3       7.0       2.5      11.0       0.3
 4 H  pz              0.4       0.3       0.3       0.1       0.7       0.0
 4 H  px              1.6       0.2       0.0       0.0       0.2       0.3
 4 H  py              0.0       0.1       0.8       0.0       0.1       0.0
 5 H  s               0.1       4.3       4.9       0.6       9.1      24.0
 5 H  pz              0.2       0.2       0.4       0.0       0.2       1.2
 5 H  px              0.0       0.0       1.5       0.0       0.1       0.1
 5 H  py              0.4       0.2       0.2       0.2       0.1       0.3
 6 H  s               2.9       3.4       1.5      16.6      13.9       0.3
 6 H  pz              0.3       0.5       0.8       0.2       0.7       0.1
 6 H  px              0.2       0.0       0.2       0.0       0.2       0.1
 6 H  py              0.3       0.0       0.5       0.0       0.1       0.2
 7 H  s               0.7       0.5       5.4      35.2       2.5       2.3
 7 H  pz              0.2       0.9       0.1       1.1       0.0       0.2
 7 H  px              0.1       0.2       0.0       0.2       0.0       0.0
 7 H  py              0.2       0.2       0.4       0.1       0.2       0.1
 8 H  s               9.7       0.1       0.1       2.6       2.1       5.2
 8 H  pz              0.5       0.1       0.0       0.4       0.0       0.0
 8 H  px              0.1       0.0       0.0       0.2       0.0       0.0
 8 H  py              0.2       0.0       0.0       0.0       0.0       0.1

                     42        43        44        45        46        47   
                   0.40573   0.41730   0.47170   0.54081   0.55456   0.63809
                   0.00000   0.00000   0.00000   0.00000   0.00000   0.00000
                  --------  --------  --------  --------  --------  --------
 0 C  s               6.3       0.2       7.1      29.5       4.4       1.6
 0 C  pz              6.9       2.0       0.0       0.1       0.2       0.0
 0 C  px              7.0       0.2       0.4       1.0       0.3       5.1
 0 C  py              0.2       2.2       0.9       0.7       0.3       3.2
 0 C  dz2             0.2       1.2       0.2       0.2       0.2       4.6
 0 C  dxz             3.9       0.1       0.0       0.0       0.0       0.6
 0 C  dyz             1.3       1.5       0.0       0.0       0.1       0.3
 0 C  dx2y2           0.2       0.1       0.1       0.9       3.0      25.8
 0 C  dxy             0.2       0.2       0.0       1.3       0.6       0.3
 0 C  f+1             0.0       0.0       0.0       0.7       0.2       0.0
 0 C  f-1             0.1       0.3       0.8       2.5       0.3       0.2
 0 C  f+2             0.2       0.1       0.0       0.1       0.1       0.0
 0 C  f-3             0.0       0.0       1.5       0.2       0.0       0.1
 1 C  s               0.4       0.6      28.9       6.4       8.5       0.6
 1 C  pz              4.5       1.0       0.2       0.3       0.7       0.5
 1 C  px              6.6       2.3       3.2       0.7       1.6       5.4
 1 C  py              0.4       2.6       2.6       1.1       0.2       0.9
 1 C  dz2             1.0       0.2       0.5       0.7       0.1       1.0
 1 C  dxz             0.6       0.1       0.0       0.0       0.4       0.9
 1 C  dyz             2.2       0.2       0.0       0.0       0.1       0.1
 1 C  dx2y2           0.1       0.3       0.3       0.6       2.1       7.8
 1 C  dxy             0.2       0.0       0.4       1.5       0.6       0.1
 1 C  f+1             0.0       0.0       0.0       0.2       0.4       0.8
 1 C  f-1             0.1       0.2       1.2       0.2       1.3       0.0
 1 C  f+2             0.0       0.0       0.0       0.0       0.2       0.0
[...]
 1 C  f+2             0.3       0.1       0.3       0.7      19.9       0.0
 1 C  f-2            14.1       0.8       0.0       0.0       0.0       0.1
 1 C  f+3             0.8      14.5       7.3       0.6       0.0       5.3
 1 C  f-3             0.1       1.9      23.4       1.3       0.2       1.9
 2 S  s               0.0       0.0       0.3       0.0       0.0       0.1
 2 S  px              0.0       0.1       0.4       0.0       0.0       0.3
 2 S  py              0.0       0.6       0.2       0.0       0.0       0.0
 2 S  dx2y2           0.0       0.1       0.2       0.0       0.0       0.2
 2 S  dxy             0.0       0.3       0.1       0.1       0.0       0.0
 2 S  f-2             0.0       0.0       0.0       0.0       0.1       0.0
 2 S  f+3             0.0       0.4       0.3       0.1       0.0       0.3
 2 S  f-3             0.0       0.2       0.1       0.1       0.0       0.0
 3 H  s               0.0       0.8       2.2       0.7       0.0      16.2
 3 H  pz              0.1       0.0       0.0       0.0       0.6       0.0
 3 H  px              0.0       1.1       1.0       0.8       0.0       4.4
 3 H  py              0.0       1.1       0.7       0.1       0.0       1.4
 4 H  s               0.8       0.6       0.1       5.8       4.7       1.2
 4 H  pz              1.3       0.0       0.1       0.7       1.8       0.1
 4 H  px              0.0       0.2       0.4       0.0       0.1       0.3
 4 H  py              0.5       0.2       0.1       0.9       0.0       0.5
 5 H  s               0.5       0.9       0.1       3.8       6.8       1.7
 5 H  pz              1.4       0.2       0.1       0.4       2.3       0.2
 5 H  px              0.1       0.1       0.4       0.0       0.2       0.3
 5 H  py              0.1       0.3       0.1       0.6       0.0       0.7
 6 H  s               1.0       0.8       0.2       6.8       4.2       0.0
 6 H  pz              1.7       0.4       0.3       0.7       1.9       0.0
 6 H  px              0.1       0.0       0.0       0.1       0.1       0.1
 6 H  py              0.7       0.0       0.2       1.4       0.0       0.0
 7 H  s               0.8       0.8       0.1       5.0       6.4       0.1
 7 H  pz              2.2       0.0       0.3       0.6       2.2       0.2
 7 H  px              0.1       0.0       0.0       0.0       0.2       0.1
 7 H  py              0.4       0.2       0.1       1.2       0.0       0.1
 8 H  s               0.0       0.1       0.1       0.0       0.0       0.0

                    126       127       128       129       130       131   
                   4.19096   4.30958   4.52376   7.88480   7.95840   8.27516
                   0.00000   0.00000   0.00000   0.00000   0.00000   0.00000
                  --------  --------  --------  --------  --------  --------
 0 C  s               0.0       6.5      18.4       0.0       0.0       0.0
 0 C  pz              2.4       0.0       0.0       0.0       0.0       0.0
 0 C  px              0.0       1.1       4.7       0.0       0.0       0.0
 0 C  py              0.0       1.3       2.5       0.0       0.0       0.0
 0 C  dz2             0.1       2.6       2.4       0.0       0.0       0.0
 0 C  dxz             0.6       0.0       0.0       0.0       0.0       0.0
 0 C  dyz            15.5       0.0       0.0       0.0       0.0       0.0
 0 C  dx2y2           0.2       1.0       0.1       0.0       0.0       0.0
 0 C  dxy             0.1       2.9       8.0       0.0       0.0       0.0
 0 C  f0              4.9       0.3       0.3       0.0       0.0       0.0
 0 C  f+1             0.4       1.8       0.8       0.0       0.0       0.0
 0 C  f-1             0.1      13.9       7.7       0.0       0.0       0.0
 0 C  f+2             5.2       0.1       0.0       0.0       0.0       0.0
 0 C  f-2             6.7       0.0       0.1       0.0       0.0       0.0
 0 C  f+3             0.1       1.1       1.5       0.0       0.0       0.0
 0 C  f-3             0.0       2.6       7.3       0.0       0.0       0.0
 1 C  s               0.0      10.8      10.8       0.0       0.0       0.3
 1 C  pz              2.9       0.0       0.0       0.0       0.0       0.0
 1 C  px              0.0       0.4       4.6       0.0       0.0       0.2
 1 C  py              0.0       1.0       4.0       0.0       0.0       0.0
 1 C  dz2             0.2       1.8       2.6       0.0       0.0       0.0
 1 C  dxz             0.6       0.0       0.1       0.0       0.0       0.0
 1 C  dyz            15.8       0.0       0.1       0.0       0.0       0.0
 1 C  dx2y2           0.2       1.5       0.2       0.0       0.0       0.0
 1 C  dxy             0.0       0.4      10.5       0.0       0.0       0.0
 1 C  f0              4.4       0.4       0.1       0.0       0.0       0.0
 1 C  f+1             0.1       0.0       1.3       0.0       0.0       0.0
 1 C  f-1             0.0      19.4       2.8       0.0       0.0       0.0
 1 C  f+2             5.0       0.1       0.0       0.0       0.0       0.0
 1 C  f-2             6.7       0.1       0.1       0.0       0.0       0.0
 1 C  f+3             0.1       1.8       2.5       0.0       0.0       0.0
 1 C  f-3             0.0       1.7       2.6       0.0       0.0       0.1
 2 S  s               0.0       0.0       0.0       0.0       0.0       0.5
 2 S  pz              0.0       0.0       0.0      39.1      60.7       0.0
 2 S  px              0.0       0.0       0.0      10.1       6.4      82.1
 2 S  py              0.0       0.0       0.0      50.7      32.6      16.4
 3 H  s               0.1       2.4       0.8       0.0       0.0       0.0
 3 H  pz              0.1       0.0       0.0       0.0       0.0       0.0
 3 H  px              0.0       0.2       0.0       0.0       0.0       0.0
 4 H  s               4.5       4.1       1.1       0.0       0.0       0.0
 4 H  pz              1.3       0.5       0.0       0.0       0.0       0.0
 4 H  py              1.1       0.6       0.0       0.0       0.0       0.0
 5 H  s               4.1       3.9       1.1       0.0       0.0       0.0
 5 H  pz              1.5       0.6       0.0       0.0       0.0       0.0
 5 H  px              0.1       0.0       0.0       0.0       0.0       0.0
 5 H  py              0.6       0.4       0.0       0.0       0.0       0.0
 6 H  s               4.5       5.0       0.2       0.0       0.0       0.0
 6 H  pz              1.4       0.4       0.0       0.0       0.0       0.0
 6 H  py              1.1       0.8       0.0       0.0       0.0       0.0
 7 H  s               4.4       4.9       0.2       0.0       0.0       0.0
 7 H  pz              1.6       0.5       0.0       0.0       0.0       0.0
 7 H  py              0.7       0.6       0.0       0.0       0.0       0.0

                    132       133       134   
                  17.98250  20.63040  20.73840
                   0.00000   0.00000   0.00000
                  --------  --------  --------
 0 C  s               0.0      24.0      74.6
 1 C  s               1.2      73.8      24.0
 1 C  px              0.3       0.0       0.1
 1 C  py              0.0       0.2       0.0
 2 S  s              97.3       0.7       0.2
 2 S  pz              0.1       0.0       0.0
 2 S  px              0.3       0.0       0.0
 3 H  s               0.0       0.1       0.1
 4 H  s               0.0       0.1       0.2
 5 H  s               0.0       0.1       0.2
 6 H  s               0.0       0.2       0.0
 7 H  s               0.0       0.2       0.0
 8 H  s               0.2       0.0       0.0


                      *****************************
                      * MAYER POPULATION ANALYSIS *
                      *****************************

  NA   - Mulliken gross atomic population
  ZA   - Total nuclear charge
  QA   - Mulliken gross atomic charge
  VA   - Mayer's total valence
  BVA  - Mayer's bonded valence
  FA   - Mayer's free valence

  ATOM       NA         ZA         QA         VA         BVA        FA
  0 C      6.3610     6.0000    -0.3610     3.8929     3.8929    -0.0000
  1 C      6.1654     6.0000    -0.1654     3.9096     3.9096    -0.0000
  2 S     16.2992    16.0000    -0.2992     2.0281     2.0281    -0.0000
  3 H      0.8711     1.0000     0.1289     0.9708     0.9708    -0.0000
  4 H      0.8744     1.0000     0.1256     0.9754     0.9754    -0.0000
  5 H      0.8757     1.0000     0.1243     0.9769     0.9769    -0.0000
  6 H      0.8588     1.0000     0.1412     0.9619     0.9619     0.0000
  7 H      0.8593     1.0000     0.1407     0.9634     0.9634    -0.0000
  8 H      0.8351     1.0000     0.1649     0.9689     0.9689     0.0000

  Mayer bond orders larger than 0.100000
B(  0-C ,  1-C ) :   0.9832 B(  0-C ,  3-H ) :   0.9654 B(  0-C ,  4-H ) :   0.9732 
B(  0-C ,  5-H ) :   0.9736 B(  1-C ,  2-S ) :   1.0170 B(  1-C ,  6-H ) :   0.9556 
B(  1-C ,  7-H ) :   0.9661 B(  2-S ,  8-H ) :   0.9662 

-------
TIMINGS
-------

Total SCF time: 0 days 0 hours 1 min 3 sec 

Total time                  ....      63.215 sec
Sum of individual times     ....      48.467 sec  ( 76.7%)

SCF preparation             ....       0.558 sec  (  0.9%)
Fock matrix formation       ....      46.162 sec  ( 73.0%)
  Startup                   ....       0.056 sec  (  0.1% of F)
  Split-RI-J                ....       0.808 sec  (  1.8% of F)
  Chain of spheres X        ....      19.345 sec  ( 41.9% of F)
  XC integration            ....      24.167 sec  ( 52.4% of F)
    XC Preparation          ....       0.000 sec  (  0.0% of XC)
    Basis function eval.    ....       1.086 sec  (  4.5% of XC)
    Density eval.           ....       0.674 sec  (  2.8% of XC)
    XC-Functional eval.     ....       1.133 sec  (  4.7% of XC)
    XC-Potential eval.      ....       1.083 sec  (  4.5% of XC)
  CPCM terms                ....       1.866 sec  (  4.0% of F)
Diagonalization             ....       0.000 sec  (  0.0%)
Density matrix formation    ....       0.179 sec  (  0.3%)
Total Energy calculation    ....       0.052 sec  (  0.1%)
Population analysis         ....       0.063 sec  (  0.1%)
Orbital Transformation      ....       0.049 sec  (  0.1%)
Orbital Orthonormalization  ....       0.000 sec  (  0.0%)
DIIS solution               ....       1.198 sec  (  1.9%)
  MO trafo                  ....       0.000 sec  (  0.0 % of DIIS)
  Orb grad                  ....       0.000 sec  (  0.0 % of DIIS)
  Energy W gradient         ....       0.000 sec  (  0.0 % of DIIS)
  DIIS error                ....       0.002 sec  (  0.2 % of DIIS)
  DIIS work                 ....       1.162 sec  ( 97.0 % of DIIS)
  Form Q                    ....       0.000 sec  (  0.0 % of DIIS)
  Form QpQm                 ....       0.000 sec  (  0.0 % of DIIS)
  Exp/Cayley                ....       0.000 sec  (  0.0 % of DIIS)
  Orb update                ....       0.000 sec  (  0.0 % of DIIS)
  Wake-sleep                ....       0.013 sec  (  1.1 % of DIIS)
SOSCF solution              ....       0.139 sec  (  0.2%)
  MO trafo                  ....       0.051 sec  ( 36.6 % of SOSCF)
  Orb grad                  ....       0.002 sec  (  1.8 % of SOSCF)
  Rot update                ....       0.056 sec  ( 40.6 % of SOSCF)
  Step                      ....       0.029 sec  ( 21.0 % of SOSCF)
Grid generation             ....       0.067 sec  (  0.1%)
Finished LeanSCF after  63.5 sec

Maximum memory used throughout the entire LEANSCF-calculation: 14.2 MB
------------------   -----------------
gCP correction             0.006086366
------------------   -----------------

-------------------------   --------------------
FINAL SINGLE POINT ENERGY      -477.967856691307
-------------------------   --------------------


------------------------------------------------------------------------------
                              ORCA PROPERTY CALCULATIONS
------------------------------------------------------------------------------

GBWName                                 ... sp_solv.gbw
Number of atoms                         ...      9
Number of basis functions               ...    135
Max core memory                         ...   1024 MB

Electric properties:
Dipole moment                           ... YES
Quadrupole moment                       ...  NO
Static polarizability (Dipole/Dipole)   ...  NO
Static polarizability (Dipole/Quad.)    ...  NO
Static polarizability (Quad./Quad.)     ...  NO
Static polarizability (Velocity)        ...  NO

Atomic electric properties:
Dipole moment                           ...  NO
Quadrupole moment                       ...  NO
Static polarizability                   ...  NO

Choice of electric origin               ... Center of mass
Position of electric origin             ...     0.028940     0.002247     0.005602

General magnetic properties:
Magnetizability                         ...  NO

EPR properties:
g-Tensor (aka g-matrix)                 ...  NO
Zero-Field splitting spin-orbit         ...  NO
Zero-field splitting spin-spin          ...  NO
Hyperfine couplings                     ...  NO (   0 nuclei)
Quadrupole couplings                    ...  NO (   0 nuclei)
Contact density                         ...  NO (   0 nuclei)

NMR properties:
Chemical shifts                         ...  NO (   0 nuclei)
Spin-rotation constants                 ...  NO (   0 nuclei)
Spin-spin couplings                     ...  NO (   0 nuclei,    0 pairs)

Choice of magnetic origin               ... GIAO
Position of magnetic origin             ...     0.000000     0.000000     0.000000

Properties with geometric perturbations:
SCF Hessian                             ...  NO
IR spectrum                             ...  NO
VCD spectrum                            ...  NO
X-ray spectroscopy properties:
SCF XES/XAS/RIXS spectra                ...  NO


-------------
DIPOLE MOMENT
-------------

Method             : SCF
Type of density    : Electron Density
Multiplicity       :   1
Irrep              :   0
Energy             :  -477.9739430577074586 Eh
Relativity type    : 
Basis              : AO
                                X                 Y                 Z
Electronic contribution:      5.229216162      -0.254393613      -0.621866474
Nuclear contribution   :     -6.065789895       0.150425277       0.976881459
                        -----------------------------------------
Total Dipole Moment    :     -0.836573733      -0.103968336       0.355014985
                        -----------------------------------------
Magnitude (a.u.)       :      0.914713434
Magnitude (Debye)      :      2.325016776



--------------------
Rotational spectrum 
--------------------
 
Rotational constants in cm-1:             0.952918             0.173886             0.159267 
Rotational constants in MHz :         28567.777846          5212.982118          4774.719075 

Dipole components along the rotational axes: 
x,y,z [a.u.] :    -0.834319     0.100633     0.361227 
x,y,z [Debye]:    -2.120671     0.255788     0.918167 

 

Dipole moment calculation done in   0.0 sec 

Maximum memory used throughout the entire PROP-calculation: 8.1 MB

--------------------------------
SUGGESTED CITATIONS FOR THIS RUN
--------------------------------

Below you find a list of papers that are relevant to this ORCA run
We neither can nor want to force you to cite these papers, but we appreciate if you do
You receive ORCA, which is the product of decades of hard work by many enthusiastic individuals, for free
The only thing we kindly ask in return is that you cite our papers,
We deeply appreciate it, if you show your appreciation for ORCA by not just citing the generic ORCA reference.

Please note that relegating all ORCA citations to the supporting information does *not* help us.
SI sections are not indexed - citations you put there will not count into any citation statistics
But we need these citations in order to attract the funding resources that allow us to do what we are doing

Therefore, if you are a happy ORCA user, please consider citing a few of the papers listed below in the main body of your paper

In addition to the list printed below, the program has created the file sp_solv.bibtex that contains the list in bibtex format
You can import this file easily into all common literature databanks and citation aid programs


List of essential papers. We consider these as the minimum necessary citations

  1. Neese,F.
     Software update: the ORCA program system, version 5.0
     WIRES Comput. Molec. Sci., 2022 12(1)e1606
     doi.org/10.1002/wcms.1606

List of papers to cite with high priority. The work reported in these papers was absolutely
necessary for this run to complete.
Our perspective: the developers of density functionals and basis sets usually get cited in chemistry papers
Good! But without the algorithms to do something with them, the functionals or basis sets would not do anything.
Hence, in our opinion, the algorithm design and method developments papers are equally worthy of getting cited

  1. Neese,F.
     An improvement of the resolution of the identity approximation for the formation of the Coulomb matrix
     J. Comp. Chem., 2003 24(14)1740-1747
     doi.org/10.1002/jcc.10318
  2. Neese,F.; Wennmohs,F.; Hansen,A.; Becker,U.
     Efficient, approximate and parallel Hartree-Fock and hybrid DFT calculations. A 'chain-of-spheres' algorithm for the Hartree-Fock exchange
     Chem. Phys., 2009 356(1-3)98-109
     doi.org/10.1016/j.chemphys.2008.10.036
  3. Garcia-Rates,M.; Neese,F.
     Effect of the Solute Cavity on the Solvation Energy and its Derivatives within the Framework of the Gaussian Charge Scheme
     J. Comput. Chem., 2020 41 922-939
     doi.org/10.1002/jcc.26139
  4. Helmich-Paris,B.; de Souza,B.; Neese,F.; Izsák,R.
     An improved chain of spheres for exchange algorithm
     J. Chem. Phys., 2021 155 104109
     doi.org/doi: 10.1063/5.0058766.
  5. Neese,F.
     The SHARK Integral Generation and Digestion System
     J. Comp. Chem., 2022  1-16
     doi.org/10.1002/jcc.26942

List of suggested additional citations. These are papers that are important in the 'surrounding' of 
of this run, or papers that preceded the highly important papers. If you like your results we are grateful for a citation.

  1. Izsak,R.; Neese,F.
     An overlap fitted chain of spheres exchange method
     J. Chem. Phys., 2011 135 144105
     doi.org/10.1063/1.3646921
  2. Izsak,R.; Hansen,A.; Neese,F.
     The resolution of identity and chain of spheres approximations for the LPNO-CCSD singles Fock term
     Molec. Phys., 2012 110 2413-2417
     doi.org/10.1080/00268976.2012.687466
  3. Neese,F.
     The ORCA program system
     WIRES Comput. Molec. Sci., 2012 2(1)73-78
     doi.org/10.1002/wcms.81
  4. Izsak,R.; Neese,F.; Klopper,W.
     Robust fitting techniques in the chain of spheres approximation to the Fock exchange: The role of the complementary space
     J. Chem. Phys., 2013 139 
     doi.org/10.1063/1.4819264
  5. Neese,F.
     Software update: the ORCA program system, version 4.0
     WIRES Comput. Molec. Sci., 2018 8(1)1-6
     doi.org/10.1002/wcms.1327
  6. Neese,F.; Wennmohs,F.; Becker,U.; Riplinger,C.
     The ORCA quantum chemistry program package
     J. Chem. Phys., 2020 152 Art. No. L224108
     doi.org/10.1063/5.0004608

List of optional additional citations

  1. Neese,F.
     Approximate second-order SCF convergence for spin unrestricted wavefunctions
     Chem. Phys. Lett., 2000 325(1-3)93-98
     doi.org/10.1016/s0009-2614(00)00662-x

Timings for individual modules:

Sum of individual times          ...       67.911 sec (=   1.132 min)
Startup calculation              ...        3.637 sec (=   0.061 min)   5.4 %
SCF iterations                   ...       64.173 sec (=   1.070 min)  94.5 %
Property calculations            ...        0.102 sec (=   0.002 min)   0.1 %
                             ****ORCA TERMINATED NORMALLY****
TOTAL RUN TIME: 0 days 0 hours 1 minutes 9 seconds 176 msec
