      -----------------------------------------------------------      
     |                   =====================                   |     
     |                           x T B                           |     
     |                   =====================                   |     
     |                         S. Grimme                         |     
     |          Mulliken Center for Theoretical Chemistry        |     
     |                    University of Bonn                     |     
      -----------------------------------------------------------      

   * xtb version 6.7.1 (edcfbbe) compiled by 'albert@albert-system' on 2024-07-22

   xtb is free software: you can redistribute it and/or modify it under
   the terms of the GNU Lesser General Public License as published by
   the Free Software Foundation, either version 3 of the License, or
   (at your option) any later version.
   
   xtb is distributed in the hope that it will be useful,
   but WITHOUT ANY WARRANTY; without even the implied warranty of
   MERCHANTABILITY or FITNESS FOR A PARTICULAR PURPOSE.  See the
   GNU Lesser General Public License for more details.
   
   Cite this work as:
   * C. Bannwarth, E. Caldeweyher, S. Ehlert, A. Hansen, P. Pracht,
     J. Seibert, S. Spicher, S. Grimme, WIREs Comput. Mol. Sci., 2020, 11,
     e01493. DOI: 10.1002/wcms.1493
   
   for GFN2-xTB:
   * C. Bannwarth, S. Ehlert and S. Grimme., J. Chem. Theory Comput., 2019,
     15, 1652-1671. DOI: 10.1021/acs.jctc.8b01176
   for GFN1-xTB:
   * S. Grimme, C. Bannwarth, P. Shushkov, J. Chem. Theory Comput., 2017,
     13, 1989-2009. DOI: 10.1021/acs.jctc.7b00118
   for GFN0-xTB:
   * P. Pracht, E. Caldeweyher, S. Ehlert, S. Grimme, ChemRxiv, 2019, preprint.
     DOI: 10.26434/chemrxiv.8326202.v1
   for GFN-FF:
   * S. Spicher and S. Grimme, Angew. Chem. Int. Ed., 2020, 59, 15665-15673.
     DOI: 10.1002/anie.202004239
   
   for ALPB and GBSA implicit solvation:
   * S. Ehlert, M. Stahn, S. Spicher, S. Grimme, J. Chem. Theory Comput.,
     2021, 17, 4250-4261. DOI: 10.1021/acs.jctc.1c00471
   
   for ddCOSMO and CPCM-X implicit solvation:
   * M. Stahn, S. Ehlert, S. Grimme, J. Phys. Chem. A,
     2023, XX, XXXX-XXXX. DOI: 10.1021/acs.jpca.3c04382
   
   for DFT-D4:
   * E. Caldeweyher, C. Bannwarth and S. Grimme, J. Chem. Phys., 2017,
     147, 034112. DOI: 10.1063/1.4993215
   * E. Caldeweyher, S. Ehlert, A. Hansen, H. Neugebauer, S. Spicher,
     C. Bannwarth and S. Grimme, J. Chem. Phys., 2019, 150, 154122.
     DOI: 10.1063/1.5090222
   * E. Caldeweyher, J.-M. Mewes, S. Ehlert and S. Grimme, Phys. Chem. Chem. Phys.
     2020, 22, 8499-8512. DOI: 10.1039/D0CP00502A
   
   for sTDA-xTB:
   * S. Grimme and C. Bannwarth, J. Chem. Phys., 2016, 145, 054103.
     DOI: 10.1063/1.4959605
   
   in the mass-spec context:
   * V. Asgeirsson, C. Bauer and S. Grimme, Chem. Sci., 2017, 8, 4879.
     DOI: 10.1039/c7sc00601b
   * J. Koopman and S. Grimme, ACS Omega 2019, 4, 12, 15120-15133.
     DOI: 10.1021/acsomega.9b02011
   
   for metadynamics refer to:
   * S. Grimme, J. Chem. Theory Comput., 2019, 155, 2847-2862
     DOI: 10.1021/acs.jctc.9b00143
   
   for SPH calculations refer to:
   * S. Spicher and S. Grimme, J. Chem. Theory Comput., 2021, 17, 1701-1714
     DOI: 10.1021/acs.jctc.0c01306
   
   for ONIOM refer to:
   * C. Plett, A. Katbashev, S. Ehlert, S. Grimme, M. Bursch,
     Phys. Chem. Chem. Phys., 2023, 25, 17860-17868. DOI: 10.1039/D3CP02178E
   
   for DIPRO refer to:
   * J. Kohn, N. Gildemeister, S. Grimme, D. Fazzi, A. Hansen,
     J. Chem. Phys., 2023, just accepted.
   
   for PTB refer to:
   * S. Grimme, M. Mueller, A. Hansen, J. Chem. Phys., 2023, 158, 124111.
     DOI: 10.1063/5.0137838
   
   with help from (in alphabetical order)
   P. Atkinson, C. Bannwarth, F. Bohle, G. Brandenburg, E. Caldeweyher
   M. Checinski, S. Dohm, S. Ehlert, S. Ehrlich, I. Gerasimov, C. Hölzer
   A. Katbashev, J. Kohn, J. Koopman, C. Lavigne, S. Lehtola, F. März, M. Müller,
   F. Musil, H. Neugebauer, J. Pisarek, C. Plett, P. Pracht, F. Pultar,
   J. Seibert, P. Shushkov, S. Spicher, M. Stahn, M. Steiner, T. Strunk,
   J. Stückrath, T. Rose, and J. Unsleber
   
 * started run on 2025/04/09 at 05:21:20.813     
   ID    Z sym.   atoms
    1    6 C      1, 2, 7, 8, 10, 15, 16, 18, 19
    2    8 O      3, 6, 14, 17
    3   15 P      4, 12
    4   16 S      5, 9, 11, 13
    5    1 H      20-41

           -------------------------------------------------
          |                Calculation Setup                |
           -------------------------------------------------

          program call               : /srv/scratch/z5358697/.xtb/bin/xtb gas.coord --gfn2 --sp --chrg 0 --norestart --parallel 1
          hostname                   : k163
          coordinate file            : gas.coord
          omp threads                :                     1


           -------------------------------------------------
          |                 G F N 2 - x T B                 |
           -------------------------------------------------

        Reference                      10.1021/acs.jctc.8b01176
      * Hamiltonian:
        H0-scaling (s, p, d)           1.850000    2.230000    2.230000
        zeta-weighting                 0.500000
      * Dispersion:
        s8                             2.700000
        a1                             0.520000
        a2                             5.000000
        s9                             5.000000
      * Repulsion:
        kExp                           1.500000    1.000000
        rExp                           1.000000
      * Coulomb:
        alpha                          2.000000
        third order                    shell-resolved
        anisotropic                    true
        a3                             3.000000
        a5                             4.000000
        cn-shift                       1.200000
        cn-exp                         4.000000
        max-rad                        5.000000


          ...................................................
          :                      SETUP                      :
          :.................................................:
          :  # basis functions                 134          :
          :  # atomic orbitals                 128          :
          :  # shells                           66          :
          :  # electrons                       116          :
          :  max. iterations                   250          :
          :  Hamiltonian                  GFN2-xTB          :
          :  restarted?                      false          :
          :  GBSA solvation                  false          :
          :  PC potential                    false          :
          :  electronic temp.          300.0000000     K    :
          :  accuracy                    1.0000000          :
          :  -> integral cutoff          0.2500000E+02      :
          :  -> integral neglect         0.1000000E-07      :
          :  -> SCF convergence          0.1000000E-05 Eh   :
          :  -> wf. convergence          0.1000000E-03 e    :
          :  Broyden damping             0.4000000          :
          :  net charge                          0          :
          :  unpaired electrons                  0          :
          ...................................................

 iter      E             dE          RMSdq      gap      omega  full diag
   1    -65.3827563 -0.653828E+02  0.646E+00    4.27       0.0  T
   2    -65.5473256 -0.164569E+00  0.403E+00    3.23       1.0  T
   3    -65.5661392 -0.188137E-01  0.136E+00    3.06       1.0  T
   4    -65.5693926 -0.325335E-02  0.582E-01    2.75       1.0  T
   5    -65.5704532 -0.106059E-02  0.269E-01    2.88       1.0  T
   6    -65.5707192 -0.266016E-03  0.126E-01    2.85       1.0  T
   7    -65.5707734 -0.542553E-04  0.519E-02    2.87       1.0  T
   8    -65.5707834 -0.100081E-04  0.219E-02    2.87       1.0  T
   9    -65.5707843 -0.848735E-06  0.551E-03    2.87       2.8  T
  10    -65.5707844 -0.849432E-07  0.267E-03    2.87       5.8  T
  11    -65.5707844 -0.851246E-08  0.733E-04    2.87      21.3  T
  12    -65.5707844 -0.154128E-08  0.377E-04    2.87      41.4  T

   *** convergence criteria satisfied after 12 iterations ***

         #    Occupation            Energy/Eh            Energy/eV
      -------------------------------------------------------------
         1        2.0000           -0.7611421             -20.7117
       ...           ...                  ...                  ...
        52        2.0000           -0.4435096             -12.0685
        53        2.0000           -0.4117101             -11.2032
        54        2.0000           -0.4046694             -11.0116
        55        2.0000           -0.3774986             -10.2723
        56        2.0000           -0.3745425             -10.1918
        57        2.0000           -0.3734337             -10.1616
        58        2.0000           -0.3710959             -10.0980 (HOMO)
        59                         -0.2655307              -7.2255 (LUMO)
        60                         -0.2353936              -6.4054
        61                         -0.2170026              -5.9049
        62                         -0.1903083              -5.1786
        63                         -0.1770707              -4.8183
       ...                                ...                  ...
       128                          1.3047856              35.5050
      -------------------------------------------------------------
                  HL-Gap            0.1055652 Eh            2.8726 eV
             Fermi-level           -0.3183133 Eh           -8.6617 eV

 SCC (total)                   0 d,  0 h,  0 min,  0.060 sec
 SCC setup                      ...        0 min,  0.000 sec (  0.440%)
 Dispersion                     ...        0 min,  0.000 sec (  0.508%)
 classical contributions        ...        0 min,  0.000 sec (  0.096%)
 integral evaluation            ...        0 min,  0.013 sec ( 21.423%)
 iterations                     ...        0 min,  0.025 sec ( 40.614%)
 molecular gradient             ...        0 min,  0.022 sec ( 36.524%)
 printout                       ...        0 min,  0.000 sec (  0.371%)

         :::::::::::::::::::::::::::::::::::::::::::::::::::::
         ::                     SUMMARY                     ::
         :::::::::::::::::::::::::::::::::::::::::::::::::::::
         :: total energy             -65.008768410777 Eh    ::
         :: gradient norm              0.034439741405 Eh/a0 ::
         :: HOMO-LUMO gap              2.872575093696 eV    ::
         ::.................................................::
         :: SCC energy               -65.569429219803 Eh    ::
         :: -> isotropic ES            0.108051076106 Eh    ::
         :: -> anisotropic ES         -0.010169104685 Eh    ::
         :: -> anisotropic XC          0.031133796284 Eh    ::
         :: -> dispersion             -0.053711796673 Eh    ::
         :: repulsion energy           0.560660809027 Eh    ::
         :: add. restraining           0.000000000000 Eh    ::
         :: total charge              -0.000000000000 e     ::
         :::::::::::::::::::::::::::::::::::::::::::::::::::::

           -------------------------------------------------
          |                Property Printout                |
           -------------------------------------------------

    * Orbital Energies and Occupations

         #    Occupation            Energy/Eh            Energy/eV
      -------------------------------------------------------------
         1        2.0000           -0.7611421             -20.7117
       ...           ...                  ...                  ...
        46        2.0000           -0.4713401             -12.8258
        47        2.0000           -0.4674650             -12.7204
        48        2.0000           -0.4651058             -12.6562
        49        2.0000           -0.4597304             -12.5099
        50        2.0000           -0.4575111             -12.4495
        51        2.0000           -0.4532620             -12.3339
        52        2.0000           -0.4435096             -12.0685
        53        2.0000           -0.4117101             -11.2032
        54        2.0000           -0.4046694             -11.0116
        55        2.0000           -0.3774986             -10.2723
        56        2.0000           -0.3745425             -10.1918
        57        2.0000           -0.3734337             -10.1616
        58        2.0000           -0.3710959             -10.0980 (HOMO)
        59                         -0.2655307              -7.2255 (LUMO)
        60                         -0.2353936              -6.4054
        61                         -0.2170026              -5.9049
        62                         -0.1903083              -5.1786
        63                         -0.1770707              -4.8183
        64                         -0.1570199              -4.2727
        65                         -0.1492289              -4.0607
        66                         -0.1450694              -3.9475
        67                         -0.1280962              -3.4857
        68                         -0.1190508              -3.2395
        69                         -0.0425859              -1.1588
       ...                                ...                  ...
       128                          1.3047856              35.5050
      -------------------------------------------------------------
                  HL-Gap            0.1055652 Eh            2.8726 eV
             Fermi-level           -0.3183133 Eh           -8.6617 eV

     #   Z          covCN         q      C6AA      α(0)
     1   6 C        3.751    -0.121    22.877     6.821
     2   6 C        3.843     0.081    19.208     6.235
     3   8 O        1.653    -0.248    18.129     5.748
     4  15 P        3.854     0.385   144.272    21.576
     5  16 S        0.926    -0.376   155.480    21.090
     6   8 O        1.656    -0.277    18.621     5.825
     7   6 C        3.857     0.086    19.118     6.218
     8   6 C        3.751    -0.113    22.733     6.800
     9  16 S        1.990    -0.142   147.011    20.407
    10   6 C        3.816     0.039    19.909     6.350
    11  16 S        2.005    -0.126   146.350    20.361
    12  15 P        3.872     0.383   144.336    21.581
    13  16 S        0.926    -0.411   157.131    21.202
    14   8 O        1.655    -0.246    18.085     5.741
    15   6 C        3.863     0.088    19.083     6.212
    16   6 C        3.752    -0.116    22.781     6.807
    17   8 O        1.655    -0.254    18.225     5.763
    18   6 C        3.878     0.084    19.140     6.220
    19   6 C        3.751    -0.115    22.756     6.803
    20   1 H        0.925     0.061     2.192     2.315
    21   1 H        0.925     0.065     2.137     2.286
    22   1 H        0.925     0.068     2.111     2.272
    23   1 H        0.924     0.066     2.125     2.280
    24   1 H        0.924     0.054     2.268     2.355
    25   1 H        0.924     0.066     2.132     2.284
    26   1 H        0.924     0.063     2.167     2.302
    27   1 H        0.925     0.063     2.169     2.303
    28   1 H        0.925     0.061     2.187     2.312
    29   1 H        0.925     0.051     2.303     2.373
    30   1 H        0.925     0.085     1.924     2.169
    31   1 H        0.925     0.088     1.897     2.154
    32   1 H        0.924     0.051     2.304     2.374
    33   1 H        0.924     0.058     2.217     2.328
    34   1 H        0.925     0.066     2.134     2.284
    35   1 H        0.925     0.057     2.232     2.336
    36   1 H        0.925     0.063     2.170     2.303
    37   1 H        0.924     0.064     2.157     2.297
    38   1 H        0.924     0.065     2.143     2.289
    39   1 H        0.925     0.060     2.202     2.320
    40   1 H        0.925     0.061     2.192     2.315
    41   1 H        0.925     0.063     2.165     2.301

 Mol. C6AA /au·bohr⁶  :      26556.037192
 Mol. C8AA /au·bohr⁸  :     862984.220735
 Mol. α(0) /au        :        258.315540


Wiberg/Mayer (AO) data.
largest (>0.10) Wiberg bond orders for each atom

 ---------------------------------------------------------------------------
     #   Z sym  total        # sym  WBO       # sym  WBO       # sym  WBO
 ---------------------------------------------------------------------------
     1   6 C    3.989 --     2 C    1.021    22 H    0.983    20 H    0.979
                            21 H    0.975
     2   6 C    3.915 --     1 C    1.021    23 H    0.971    24 H    0.969
                             3 O    0.891
     3   8 O    2.398 --     4 P    1.318     2 C    0.891
     4  15 P    5.278 --     5 S    1.594     3 O    1.318     6 O    1.248
                             9 S    0.986
     5  16 S    1.910 --     4 P    1.594     9 S    0.132
     6   8 O    2.364 --     4 P    1.248     7 C    0.900
     7   6 C    3.909 --     8 C    1.022    26 H    0.969    25 H    0.965
                             6 O    0.900
     8   6 C    3.992 --     7 C    1.022    29 H    0.985    28 H    0.980
                            27 H    0.976
     9  16 S    2.295 --     4 P    0.986    10 C    0.982     5 S    0.132
    10   6 C    3.961 --    11 S    0.984     9 S    0.982    30 H    0.964
                            31 H    0.960
    11  16 S    2.273 --    12 P    0.984    10 C    0.984    13 S    0.104
    12  15 P    5.275 --    13 S    1.573    17 O    1.301    14 O    1.295
                            11 S    0.984
    13  16 S    1.867 --    12 P    1.573    11 S    0.104
    14   8 O    2.410 --    12 P    1.295    15 C    0.904
    15   6 C    3.910 --    16 C    1.019    33 H    0.968    32 H    0.968
                            14 O    0.904
    16   6 C    3.989 --    15 C    1.019    36 H    0.984    34 H    0.982
                            35 H    0.981
    17   8 O    2.390 --    12 P    1.301    18 C    0.894
    18   6 C    3.908 --    19 C    1.023    38 H    0.970    37 H    0.969
                            17 O    0.894
    19   6 C    3.991 --    18 C    1.023    40 H    0.984    39 H    0.980
                            41 H    0.976
    20   1 H    0.995 --     1 C    0.979
    21   1 H    0.996 --     1 C    0.975
    22   1 H    0.995 --     1 C    0.983
    23   1 H    0.995 --     2 C    0.971
    24   1 H    0.997 --     2 C    0.969
    25   1 H    0.996 --     7 C    0.965
    26   1 H    0.996 --     7 C    0.969
    27   1 H    0.996 --     8 C    0.976
    28   1 H    0.995 --     8 C    0.980
    29   1 H    0.997 --     8 C    0.985
    30   1 H    0.992 --    10 C    0.964
    31   1 H    0.990 --    10 C    0.960
    32   1 H    0.997 --    15 C    0.968
    33   1 H    0.997 --    15 C    0.968
    34   1 H    0.995 --    16 C    0.982
    35   1 H    0.995 --    16 C    0.981
    36   1 H    0.996 --    16 C    0.984
    37   1 H    0.996 --    18 C    0.969
    38   1 H    0.995 --    18 C    0.970
    39   1 H    0.995 --    19 C    0.980
    40   1 H    0.996 --    19 C    0.984
    41   1 H    0.996 --    19 C    0.976
 ---------------------------------------------------------------------------

Topologies differ in total number of bonds
Writing topology from bond orders to xtbtopo.mol

molecular dipole:
                 x           y           z       tot (Debye)
 q only:        0.110      -1.643       2.202
   full:        0.120      -1.821       2.178       7.222
molecular quadrupole (traceless):
                xx          xy          yy          xz          yz          zz
 q only:       -1.455      17.334       1.565      20.866      -1.687      -0.111
  q+dip:        0.176      20.441      -0.434      25.019       2.660       0.259
   full:        0.415      21.152      -0.293      25.927       1.709      -0.121


           -------------------------------------------------
          | TOTAL ENERGY              -65.008768410777 Eh   |
          | GRADIENT NORM               0.034439741405 Eh/α |
          | HOMO-LUMO GAP               2.872575093696 eV   |
           -------------------------------------------------

------------------------------------------------------------------------
 * finished run on 2025/04/09 at 05:21:20.931     
------------------------------------------------------------------------
 total:
 * wall-time:     0 d,  0 h,  0 min,  0.117 sec
 *  cpu-time:     0 d,  0 h,  0 min,  0.068 sec
 * ratio c/w:     0.581 speedup
 SCF:
 * wall-time:     0 d,  0 h,  0 min,  0.061 sec
 *  cpu-time:     0 d,  0 h,  0 min,  0.055 sec
 * ratio c/w:     0.913 speedup

