41
 energy: -2932.483249340614 gnorm: 0.001085234804 xtb: 6.7.1 (edcfbbe)
C            4.58602025654026       -2.56812658342968       -0.18847169014140
C            4.80660663577041       -1.09286121319604        0.03408478108889
O            3.60108639926548       -0.42298679370098        0.54267283746088
P            2.37047444977264        0.00618729039725       -0.40513071335145
S            2.78909369860555        0.44771427233856       -2.25519930675603
O            1.68377966574138        1.14649868810052        0.49099982808369
C            1.93037627430773        2.57643225303292        0.26727525372541
C            0.93613269006588        3.33065248203562        1.11342596702886
S            1.02492221373565       -1.59779741913724       -0.10024922808157
C           -0.21337829934618       -1.26390696624992       -1.41898176649569
S           -1.02995995222637        0.38377532400244       -1.47793881386989
P           -2.31133361554760        0.38160945968428        0.19548150187134
S           -3.61731142426964        1.81775195708619        0.03139855311439
O           -1.28207718087087        0.45870225429759        1.42444152351966
C           -1.71083750037507        0.89306264544518        2.76363839500981
C           -2.59556866503905       -0.12405707947612        3.44239563914399
O           -2.87434534248612       -1.11882331540613        0.36751705320135
C           -4.14667951706875       -1.55722624223916       -0.22217372192154
C           -4.04723107177664       -1.77607256230500       -1.71182433131511
H            3.87958961258984       -2.75319887002267       -1.00258423135254
H            5.54420489065356       -3.02386881690142       -0.45910012935926
H            4.21941606823607       -3.05290112201659        0.72099619328696
H            5.12135091834127       -0.58284193606305       -0.88111173647600
H            5.54643024194242       -0.91093332376936        0.81631306355758
H            2.96408631360942        2.79543341769434        0.55390853400710
H            1.79786205891725        2.78723321345344       -0.79819018031385
H           -0.08917588957280        3.10594470449136        0.80412613175000
H            1.05272922774114        3.08487452595794        2.17309930526708
H            1.10696282210898        4.40436106393190        0.98737486270917
H           -0.96734434504644       -2.04855740567887       -1.31191807221602
H            0.26959618553550       -1.36276690630727       -2.39548448127992
H           -0.76754562266053        1.02371904137050        3.29748371483991
H           -2.20280716528542        1.86583308434034        2.66531921106434
H           -2.10843909487370       -1.10235486083392        3.48255384156649
H           -2.78375129314269        0.21058194150403        4.46785390704070
H           -3.55999339656148       -0.22636403548355        2.93649606897449
H           -4.36249739500941       -2.48850577223086        0.30579725255822
H           -4.91197690885775       -0.81726413910562        0.03170951916407
H           -3.86193325414344       -0.84010167072449       -2.24614331609543
H           -3.25543937582861       -2.49077721679958       -1.95489813782736
H           -4.99966870029672       -2.18540464318665       -2.06449592974421
41
 energy: -2932.483250534687 gnorm: 0.001673634423 xtb: 6.7.1 (edcfbbe)
C            4.58531528687802       -2.56860489551334       -0.18930617993168
C            4.80580738684285       -1.09347323695841        0.03366602296085
O            3.59930634167860       -0.42415170354356        0.54138067235995
P            2.36953090595985        0.00651673049774       -0.40666151201028
S            2.79222303176387        0.45204801198078       -2.25483424467588
O            1.68397110207083        1.14670167655670        0.49038019175050
C            1.93199823737321        2.57663847579809        0.26775923497326
C            0.93798529353305        3.33092277842716        1.11371192357610
S            1.02672440677884       -1.60070354410154       -0.09808620574002
C           -0.20906648934577       -1.26109916703782       -1.41826494392951
S           -1.03020516910456        0.38512514938387       -1.47715309832556
P           -2.31335277035749        0.38175929446265        0.19530217281448
S           -3.62127841437097        1.81676871991250        0.03312773941731
O           -1.28426669566366        0.45849577813255        1.42399862679418
C           -1.71209499467183        0.89389142006542        2.76315078436789
C           -2.59580092256461       -0.12316626452978        3.44340108420526
O           -2.87497013767249       -1.11933198789816        0.36625268373687
C           -4.14777501465238       -1.55831041930468       -0.22271518426521
C           -4.04887642635673       -1.77856150759294       -1.71207911642720
H            3.88016649204362       -2.75291433061164       -1.00465268865498
H            5.54350055604205       -3.02530908503555       -0.45839659867595
H            4.21664031644070       -3.05310813931488        0.71960313186249
H            5.12156206725054       -0.58310430683140       -0.88097558059928
H            5.54506873449801       -0.91185581569776        0.81634289851147
H            2.96559639809699        2.79485879143111        0.55509765018157
H            1.79995621532867        2.78810984299602       -0.79734962511626
H           -0.08724068972903        3.10644186973145        0.80404814547789
H            1.05423035837231        3.08476010066169        2.17308538597785
H            1.10977016908704        4.40440460765557        0.98783759256441
H           -0.96293243472595       -2.04607288859916       -1.31274028830356
H            0.27363968557515       -1.35881119065391       -2.39503517181561
H           -0.76829997461958        1.02551810712098        3.29614748749050
H           -2.20480477240922        1.86627526742632        2.66422068202200
H           -2.10862826129311       -1.10176142565962        3.48270446298116
H           -2.78191603588210        0.21163710507753        4.46922536081366
H           -3.56145930631726       -0.22502362748696        2.93949601258279
H           -4.36322324175823       -2.48877996133862        0.30635379233336
H           -4.91302180887858       -0.81852207411993        0.03088997330602
H           -3.86588916534365       -0.84310074592654       -2.24790957928027
H           -3.25596159308234       -2.49192417144568       -1.95480063163767
H           -5.00051524220588       -2.19046684310720       -2.06368299997068
41
 energy: -2932.483263833446 gnorm: 0.000654000352 xtb: 6.7.1 (edcfbbe)
C            4.58515235269367       -2.56897757203671       -0.18985797449903
C            4.80770868808418       -1.09432467309482        0.03421862694372
O            3.60192247145206       -0.42417011817255        0.54248850469226
P            2.37275347621046        0.00802158545679       -0.40535722699662
S            2.79318903139375        0.45277444910977       -2.25406048057277
O            1.68665818580769        1.14758168402768        0.49181797547023
C            1.93450442911461        2.57755463748282        0.26904451398356
C            0.94027472381073        3.33164150181924        1.11453231003874
S            1.02634759928464       -1.59670980060651       -0.10109673344426
C           -0.21047200609697       -1.25908162241346       -1.42066517487520
S           -1.03251995881006        0.38749560709234       -1.47799247979838
P           -2.31508529935572        0.38067604147975        0.19525563043208
S           -3.62391977174791        1.81495374228750        0.03248983970514
O           -1.28650353045600        0.45753267435306        1.42389459098076
C           -1.71357026581333        0.89477385500833        2.76265974096320
C           -2.59610487151669       -0.12200956815326        3.44487574104088
O           -2.87586761678260       -1.12084827055429        0.36512724263900
C           -4.14925728250397       -1.56004063908167       -0.22312949620800
C           -4.05101091767715       -1.78200627870870       -1.71218136281581
H            3.88102650836017       -2.75162714346996       -1.00646198127644
H            5.54280131252699       -3.02759607655503       -0.45761205980868
H            4.21387119321800       -3.05319764635594        0.71823662582552
H            5.12379804550589       -0.58358633342095       -0.88010479959151
H            5.54706662830940       -0.91385779772020        0.81689118332417
H            2.96792443290032        2.79552092046039        0.55691966608286
H            1.80287594490791        2.78894063495355       -0.79592714748528
H           -0.08475277987212        3.10699394146975        0.80439135182309
H            1.05614486524606        3.08534512527648        2.17372965130262
H            1.11256681144582        4.40495884264646        0.98862902642239
H           -0.96316026443511       -2.04527781910534       -1.31656112055090
H            0.27364902320987       -1.35436865557228       -2.39694221711101
H           -0.76937758256518        1.02784023941713        3.29477681161391
H           -2.20718447837692        1.86662830462547        2.66263518912118
H           -2.10896648694102       -1.10084331493286        3.48327243584045
H           -2.77982562824343        0.21302168758340        4.47109279518838
H           -3.56307606800442       -0.22350869558903        2.94321909990139
H           -4.36464289592963       -2.48962321653795        0.30715263230359
H           -4.91419751054766       -0.82000709171264        0.03001143384404
H           -3.87081643493173       -0.84706252028397       -2.24976807259389
H           -3.25673095079081       -2.49382276869035       -1.95452948354623
H           -5.00179352518954       -2.19691347863344       -2.06247086688879
41
 energy: -2932.483271307035 gnorm: 0.000892797821 xtb: 6.7.1 (edcfbbe)
C            4.58405811044186       -2.57001439279426       -0.19143293335446
C            4.80891660634267       -1.09600444262345        0.03457238571027
O            3.60367908988349       -0.42476516455474        0.54291065786367
P            2.37522216516032        0.00951917717414       -0.40461415149837
S            2.79689719412331        0.45538410261134       -2.25276216577204
O            1.68981548036997        1.14893268624177        0.49311290065692
C            1.93905553106871        2.57898856403625        0.27135308556595
C            0.94452738469303        3.33327276331570        1.11640890673510
S            1.02542627783866       -1.59204234574808       -0.10369181241749
C           -0.20985685969530       -1.25596976359525       -1.42453709534251
S           -1.03479302630311        0.38966283148805       -1.47701230211887
P           -2.31887985938832        0.37993279001953        0.19449138311796
S           -3.63001468944871        1.81207253507523        0.03351767769385
O           -1.29056077119657        0.45724835573794        1.42289283988362
C           -1.71628181131887        0.89673709353472        2.76136046785956
C           -2.59636745654728       -0.11969254808504        3.44724964552401
O           -2.87733294889829       -1.12266924754226        0.36264230698554
C           -4.15141029644190       -1.56318574358776       -0.22367296327414
C           -4.05399531517887       -1.78844834069927       -1.71220747104501
H            3.88209164643762       -2.75062157079963       -1.01038365393572
H            5.54159270928216       -3.03051819405138       -0.45625766571366
H            4.20885864632598       -3.05400207816485        0.71510484759856
H            5.12615414004236       -0.58456427293332       -0.87897291725012
H            5.54792144158758       -0.91732218016384        0.81811551815755
H            2.97245177426315        2.79594711489855        0.56025690125374
H            1.80863563875445        2.79085305313760       -0.79379991397815
H           -0.08038175236743        3.10919626874535        0.80540522092437
H            1.05950452148277        3.08665969603875        2.17577096669938
H            1.11702964544976        4.40665024707504        0.99098731125435
H           -0.96151671016039       -2.04355518510356       -1.32389809397970
H            0.27627003212061       -1.34634401433651       -2.40026142636861
H           -0.77167054548813        1.03250226806062        3.29183672069181
H           -2.21149352409851        1.86757356571219        2.65990022998378
H           -2.10924577546497       -1.09837082601241        3.48422977355825
H           -2.77638143353663        0.21540815742443        4.47410765620717
H           -3.56501614905702       -0.22147827560567        2.94902431130759
H           -4.36638304485184       -2.49181334752165        0.30874237856989
H           -4.91584773821266       -0.82211867412328        0.02849705317258
H           -3.87861859213312       -0.85399991916844       -2.25243221769327
H           -3.25703849491239       -2.49772754321781       -1.95372828695863
H           -5.00365043823150       -2.20837455623627       -2.05998326615641
41
 energy: -2932.483273686945 gnorm: 0.001623551507 xtb: 6.7.1 (edcfbbe)
C            4.58129613356432       -2.57218183004866       -0.19456351113696
C            4.80919745759610       -1.09922915203704        0.03526165646429
O            3.60465596785461       -0.42618377857452        0.54327666805655
P            2.37776854615927        0.01226518181074       -0.40403792406181
S            2.80139651682225        0.45929119863678       -2.25156974104795
O            1.69425502781977        1.15184148265507        0.49490533834434
C            1.94715719933294        2.58186991846741        0.27577591000063
C            0.95229315650316        3.33657748735017        1.12023408157513
S            1.02355645765142       -1.58647311667461       -0.10792139941872
C           -0.20936636305715       -1.24628191569945       -1.42925444695435
S           -1.04066672006817        0.39699275269920       -1.48087766469921
P           -2.32263539346433        0.37601367588441        0.19297268545436
S           -3.63599231380918        1.80555871743205        0.03014388173043
O           -1.29614521463058        0.45574418387445        1.42241991202558
C           -1.72094705366609        0.90042393650123        2.75938595420066
C           -2.59687024628358       -0.11563135134771        3.45111603498387
O           -2.87876559429524       -1.12769197560168        0.35917415757203
C           -4.15417398223130       -1.56947661630388       -0.22389004193346
C           -4.05859420048565       -1.80050663074723       -1.71165704470606
H            3.88346714585977       -2.74937975107680       -1.01784072227814
H            5.53904341082909       -3.03514585980135       -0.45427977528805
H            4.19949820446561       -3.05631626803034        0.70906197179993
H            5.12907242494755       -0.58630403912019       -0.87655128362154
H            5.54728780252598       -0.92400152419040        0.82064195467421
H            2.98057650424953        2.79621354138353        0.56684376383534
H            1.81923618140664        2.79526201757793       -0.78958333023888
H           -0.07246043740583        3.11373714166118        0.80769595212946
H            1.06569862782690        3.08907689710506        2.17976347396275
H            1.12549649047258        4.41004846031102        0.99594875948503
H           -0.95825809340018       -2.03745449577615       -1.33575300887888
H            0.28046625973096       -1.32975027540010       -2.40381099609613
H           -0.77591700779898        1.04140814682230        3.28749479801197
H           -2.21914598734012        1.86931151904439        2.65435420410532
H           -2.10913110444576       -1.09379659613530        3.48654204178435
H           -2.77134965796231        0.22017331003103        4.47870891859608
H           -3.56802567438309       -0.21863632039221        2.95814699310759
H           -4.36919055160243       -2.49616589581921        0.31226477123621
H           -4.91773008780505       -0.82653189210640        0.02620495550463
H           -3.89111672375112       -0.86714283203367       -2.25654785275695
H           -3.25731395625133       -2.50561149006259       -1.95171104653689
H           -5.00630926114673       -2.22870150735192       -2.05526407801140
41
 energy: -2932.483281101769 gnorm: 0.000755992453 xtb: 6.7.1 (edcfbbe)
C            4.58008120023699       -2.57262705707931       -0.19522377412586
C            4.80786724997049       -1.09979883027108        0.03561267828326
O            3.60342668788789       -0.42649231734479        0.54335585535422
P            2.37713565455549        0.01277629094366       -0.40448881816055
S            2.79973206444521        0.45946644374138       -2.25232864290725
O            1.69367027088677        1.15239521616733        0.49467341384669
C            1.94785244536673        2.58229818145496        0.27671453523353
C            0.95334632833338        3.33722887588248        1.12129329094657
S            1.02325420241826       -1.58712035889170       -0.10821820550562
C           -0.20807963419659       -1.24632799906078       -1.43076160637662
S           -1.04064750376243        0.39590355487012       -1.47972689015204
P           -2.32431481344659        0.37783264015016        0.19279399113653
S           -3.64027905518258        1.80591992451970        0.03195358488041
O           -1.29673080067812        0.45773073814684        1.42164472456526
C           -1.72135506498481        0.90169072530903        2.75886241207854
C           -2.59645195004238       -0.11515045862455        3.45048436042999
O           -2.87801944266625       -1.12678789174926        0.35863100604732
C           -4.15314280174012       -1.57009241627792       -0.22353832985091
C           -4.05808033909174       -1.80212856547386       -1.71124540331951
H            3.88284194408290       -2.74946480768933       -1.01901391679889
H            5.53806444833039       -3.03514834291000       -0.45485019236220
H            4.19800774483769       -3.05750153736341        0.70790578695362
H            5.12853955330504       -0.58644511740262       -0.87566270315387
H            5.54560426145039       -0.92546944762555        0.82139874399990
H            2.98129246803463        2.79547988103574        0.56843090596228
H            1.82053686414140        2.79672980289802       -0.78842487537017
H           -0.07145717253661        3.11479708756066        0.80863642573050
H            1.06665753700272        3.08928852246559        2.18061024678853
H            1.12724234227115        4.41061762021494        0.99736985504738
H           -0.95659392473157       -2.03794918798630       -1.33825278465721
H            0.28233586737716       -1.32924941244393       -2.40506575609713
H           -0.77616675273502        1.04326123880881        3.28666839834562
H           -2.22034191628039        1.87019731709502        2.65392441389236
H           -2.10764440073401       -1.09295734631193        3.48640719337493
H           -2.77141147299360        0.22100516414086        4.47786156645405
H           -3.56755626176486       -0.21911310039802        2.95751156157443
H           -4.36737709470572       -2.49637565787444        0.31340213417379
H           -4.91742682811272       -0.82797395048838        0.02620771162366
H           -3.89087922586151       -0.86926792258573       -2.25681532908626
H           -3.25672633391689       -2.50705734731627       -1.95094747149014
H           -5.00550548109390       -2.23085858087317       -2.05449320829368
41
 energy: -2932.483285089279 gnorm: 0.000606615869 xtb: 6.7.1 (edcfbbe)
C            4.57751053395804       -2.57313842915262       -0.19659441694991
C            4.80529213110101       -1.10051844045546        0.03582852903083
O            3.60064922342324       -0.42720832473553        0.54291568843130
P            2.37489360880434        0.01250708975581       -0.40566367441537
S            2.80071746833741        0.46257649213873       -2.25186988479676
O            1.69186350514321        1.15231670331376        0.49391164622935
C            1.94856144659339        2.58207103624898        0.27815703713595
C            0.95510801291396        3.33783598260865        1.12322616059557
S            1.01979965889616       -1.58576136619084       -0.10657511959073
C           -0.20840208336603       -1.24532837093664       -1.43203733225447
S           -1.03959154643919        0.39682779040997       -1.47985385397759
P           -2.32488774549618        0.37866466690472        0.19138288704418
S           -3.64242566164568        1.80505252006827        0.03176083550176
O           -1.29658189464531        0.46035528354117        1.42015582741276
C           -1.72198974635803        0.90373155149946        2.75743026919494
C           -2.59565260874298       -0.11423680885478        3.44912218886552
O           -2.87638202957045       -1.12662497714239        0.35847681744070
C           -4.15116322993586       -1.57171451906375       -0.22234166699863
C           -4.05631542489227       -1.80510495822006       -1.70994131374412
H            3.88084945669569       -2.74947243693370       -1.02091831404696
H            5.53584258601134       -3.03487683526717       -0.45633979810181
H            4.19535770908147       -3.05926059240060        0.70584031952152
H            5.12732773445592       -0.58652407400177       -0.87459423804895
H            5.54228305474688       -0.92743514995597        0.82252568660296
H            2.98215151509394        2.79335420871535        0.57070155853837
H            1.82193372354976        2.79837355604984       -0.78664689640357
H           -0.06997654073959        3.11668185635309        0.81057355541409
H            1.06823040960826        3.08926459910707        2.18233137850674
H            1.13031186617252        4.41106749124981        0.99983726670870
H           -0.95702996381718       -2.03709525529472       -1.34180281441528
H            0.28377868512329       -1.32724275548436       -2.40560655042746
H           -0.77697569767180        1.04648010138071        3.28535584547094
H           -2.22225601831761        1.87160101074360        2.65257611576826
H           -2.10483410206423       -1.09112846346934        3.48639478629003
H           -2.77243588799452        0.22252435085995        4.47597231530841
H           -3.56606345360240       -0.22049156225249        2.95524769994997
H           -4.36425389851287       -2.49751818989945        0.31571868508198
H           -4.91610997862720       -0.83024464908736        0.02699400907048
H           -3.88875022656765       -0.87287116270693       -2.25626227133523
H           -3.25531451727754       -2.51043892768134       -1.94925493360615
H           -5.00379388433612       -2.23369988347121       -2.05270303024181
41
 energy: -2932.483285089279 gnorm: 0.000606615869 xtb: 6.7.1 (edcfbbe)
C            4.57751053395804       -2.57313842915262       -0.19659441694991
C            4.80529213110101       -1.10051844045546        0.03582852903083
O            3.60064922342324       -0.42720832473553        0.54291568843130
P            2.37489360880434        0.01250708975581       -0.40566367441537
S            2.80071746833741        0.46257649213873       -2.25186988479676
O            1.69186350514321        1.15231670331376        0.49391164622935
C            1.94856144659339        2.58207103624898        0.27815703713595
C            0.95510801291396        3.33783598260865        1.12322616059557
S            1.01979965889616       -1.58576136619084       -0.10657511959073
C           -0.20840208336603       -1.24532837093664       -1.43203733225447
S           -1.03959154643919        0.39682779040997       -1.47985385397759
P           -2.32488774549618        0.37866466690472        0.19138288704418
S           -3.64242566164568        1.80505252006827        0.03176083550176
O           -1.29658189464531        0.46035528354117        1.42015582741276
C           -1.72198974635803        0.90373155149946        2.75743026919494
C           -2.59565260874298       -0.11423680885478        3.44912218886552
O           -2.87638202957045       -1.12662497714239        0.35847681744070
C           -4.15116322993586       -1.57171451906375       -0.22234166699863
C           -4.05631542489227       -1.80510495822006       -1.70994131374412
H            3.88084945669569       -2.74947243693370       -1.02091831404696
H            5.53584258601134       -3.03487683526717       -0.45633979810181
H            4.19535770908147       -3.05926059240060        0.70584031952152
H            5.12732773445592       -0.58652407400177       -0.87459423804895
H            5.54228305474688       -0.92743514995597        0.82252568660296
H            2.98215151509394        2.79335420871535        0.57070155853837
H            1.82193372354976        2.79837355604984       -0.78664689640357
H           -0.06997654073959        3.11668185635309        0.81057355541409
H            1.06823040960826        3.08926459910707        2.18233137850674
H            1.13031186617252        4.41106749124981        0.99983726670870
H           -0.95702996381718       -2.03709525529472       -1.34180281441528
H            0.28377868512329       -1.32724275548436       -2.40560655042746
H           -0.77697569767180        1.04648010138071        3.28535584547094
H           -2.22225601831761        1.87160101074360        2.65257611576826
H           -2.10483410206423       -1.09112846346934        3.48639478629003
H           -2.77243588799452        0.22252435085995        4.47597231530841
H           -3.56606345360240       -0.22049156225249        2.95524769994997
H           -4.36425389851287       -2.49751818989945        0.31571868508198
H           -4.91610997862720       -0.83024464908736        0.02699400907048
H           -3.88875022656765       -0.87287116270693       -2.25626227133523
H           -3.25531451727754       -2.51043892768134       -1.94925493360615
H           -5.00379388433612       -2.23369988347121       -2.05270303024181
