      -----------------------------------------------------------      
     |                   =====================                   |     
     |                           x T B                           |     
     |                   =====================                   |     
     |                         S. Grimme                         |     
     |          Mulliken Center for Theoretical Chemistry        |     
     |                    University of Bonn                     |     
      -----------------------------------------------------------      

   * xtb version 6.7.1 (edcfbbe) compiled by 'albert@albert-system' on 2024-07-22

   xtb is free software: you can redistribute it and/or modify it under
   the terms of the GNU Lesser General Public License as published by
   the Free Software Foundation, either version 3 of the License, or
   (at your option) any later version.
   
   xtb is distributed in the hope that it will be useful,
   but WITHOUT ANY WARRANTY; without even the implied warranty of
   MERCHANTABILITY or FITNESS FOR A PARTICULAR PURPOSE.  See the
   GNU Lesser General Public License for more details.
   
   Cite this work as:
   * C. Bannwarth, E. Caldeweyher, S. Ehlert, A. Hansen, P. Pracht,
     J. Seibert, S. Spicher, S. Grimme, WIREs Comput. Mol. Sci., 2020, 11,
     e01493. DOI: 10.1002/wcms.1493
   
   for GFN2-xTB:
   * C. Bannwarth, S. Ehlert and S. Grimme., J. Chem. Theory Comput., 2019,
     15, 1652-1671. DOI: 10.1021/acs.jctc.8b01176
   for GFN1-xTB:
   * S. Grimme, C. Bannwarth, P. Shushkov, J. Chem. Theory Comput., 2017,
     13, 1989-2009. DOI: 10.1021/acs.jctc.7b00118
   for GFN0-xTB:
   * P. Pracht, E. Caldeweyher, S. Ehlert, S. Grimme, ChemRxiv, 2019, preprint.
     DOI: 10.26434/chemrxiv.8326202.v1
   for GFN-FF:
   * S. Spicher and S. Grimme, Angew. Chem. Int. Ed., 2020, 59, 15665-15673.
     DOI: 10.1002/anie.202004239
   
   for ALPB and GBSA implicit solvation:
   * S. Ehlert, M. Stahn, S. Spicher, S. Grimme, J. Chem. Theory Comput.,
     2021, 17, 4250-4261. DOI: 10.1021/acs.jctc.1c00471
   
   for ddCOSMO and CPCM-X implicit solvation:
   * M. Stahn, S. Ehlert, S. Grimme, J. Phys. Chem. A,
     2023, XX, XXXX-XXXX. DOI: 10.1021/acs.jpca.3c04382
   
   for DFT-D4:
   * E. Caldeweyher, C. Bannwarth and S. Grimme, J. Chem. Phys., 2017,
     147, 034112. DOI: 10.1063/1.4993215
   * E. Caldeweyher, S. Ehlert, A. Hansen, H. Neugebauer, S. Spicher,
     C. Bannwarth and S. Grimme, J. Chem. Phys., 2019, 150, 154122.
     DOI: 10.1063/1.5090222
   * E. Caldeweyher, J.-M. Mewes, S. Ehlert and S. Grimme, Phys. Chem. Chem. Phys.
     2020, 22, 8499-8512. DOI: 10.1039/D0CP00502A
   
   for sTDA-xTB:
   * S. Grimme and C. Bannwarth, J. Chem. Phys., 2016, 145, 054103.
     DOI: 10.1063/1.4959605
   
   in the mass-spec context:
   * V. Asgeirsson, C. Bauer and S. Grimme, Chem. Sci., 2017, 8, 4879.
     DOI: 10.1039/c7sc00601b
   * J. Koopman and S. Grimme, ACS Omega 2019, 4, 12, 15120-15133.
     DOI: 10.1021/acsomega.9b02011
   
   for metadynamics refer to:
   * S. Grimme, J. Chem. Theory Comput., 2019, 155, 2847-2862
     DOI: 10.1021/acs.jctc.9b00143
   
   for SPH calculations refer to:
   * S. Spicher and S. Grimme, J. Chem. Theory Comput., 2021, 17, 1701-1714
     DOI: 10.1021/acs.jctc.0c01306
   
   for ONIOM refer to:
   * C. Plett, A. Katbashev, S. Ehlert, S. Grimme, M. Bursch,
     Phys. Chem. Chem. Phys., 2023, 25, 17860-17868. DOI: 10.1039/D3CP02178E
   
   for DIPRO refer to:
   * J. Kohn, N. Gildemeister, S. Grimme, D. Fazzi, A. Hansen,
     J. Chem. Phys., 2023, just accepted.
   
   for PTB refer to:
   * S. Grimme, M. Mueller, A. Hansen, J. Chem. Phys., 2023, 158, 124111.
     DOI: 10.1063/5.0137838
   
   with help from (in alphabetical order)
   P. Atkinson, C. Bannwarth, F. Bohle, G. Brandenburg, E. Caldeweyher
   M. Checinski, S. Dohm, S. Ehlert, S. Ehrlich, I. Gerasimov, C. Hölzer
   A. Katbashev, J. Kohn, J. Koopman, C. Lavigne, S. Lehtola, F. März, M. Müller,
   F. Musil, H. Neugebauer, J. Pisarek, C. Plett, P. Pracht, F. Pultar,
   J. Seibert, P. Shushkov, S. Spicher, M. Stahn, M. Steiner, T. Strunk,
   J. Stückrath, T. Rose, and J. Unsleber
   
 * started run on 2025/04/09 at 14:00:11.527     
   ID    Z sym.   atoms
    1    6 C      1, 2, 7, 8, 10, 15, 16, 18, 19
    2    8 O      3, 6, 14, 17
    3   15 P      4, 12
    4   16 S      5, 9, 11, 13
    5    1 H      20-41

           -------------------------------------------------
          |                Calculation Setup                |
           -------------------------------------------------

          program call               : /srv/scratch/z5358697/.xtb/bin/xtb xtb_rrho.coord --gfn2 --bhess vtight --chrg 0 --enso --norestart -I rrho-xcontrol-inp --parallel 1 --alpb water
          hostname                   : k163
          coordinate file            : xtb_rrho.coord
          omp threads                :                     1


           -------------------------------------------------
          |                 G F N 2 - x T B                 |
           -------------------------------------------------

        Reference                      10.1021/acs.jctc.8b01176
      * Hamiltonian:
        H0-scaling (s, p, d)           1.850000    2.230000    2.230000
        zeta-weighting                 0.500000
      * Dispersion:
        s8                             2.700000
        a1                             0.520000
        a2                             5.000000
        s9                             5.000000
      * Repulsion:
        kExp                           1.500000    1.000000
        rExp                           1.000000
      * Coulomb:
        alpha                          2.000000
        third order                    shell-resolved
        anisotropic                    true
        a3                             3.000000
        a5                             4.000000
        cn-shift                       1.200000
        cn-exp                         4.000000
        max-rad                        5.000000

      * Solvation model:               ALPB
        Solvent                        water
        Parameter file                 internal GFN2-xTB/ALPB
        Dielectric constant                8.0200E+01
        Reference state                gsolv [1 M gas/solution]
        Free energy shift                  1.0808E-03 Eh       6.7819E-01 kcal/mol
        Temperature                        2.9815E+02 K
        Density                            1.0000E+00 kg/L
        Solvent mass                       1.8000E+01 g/mol
        Interaction kernel             P16
        Born radius scaling (c1)           1.4744E+00
        Born radii integrator          GBOBC
        Born offset                        0.0000E+00 a0       0.0000E+00 AA
        H-bond correction              true
        Ion screening                  false
        Surface tension                    1.0000E-05 Eh       1.5569E+01 dyn/cm
        Grid points                               974 per atom

          ...................................................
          :                      SETUP                      :
          :.................................................:
          :  # basis functions                 134          :
          :  # atomic orbitals                 128          :
          :  # shells                           66          :
          :  # electrons                       116          :
          :  max. iterations                   250          :
          :  Hamiltonian                  GFN2-xTB          :
          :  restarted?                      false          :
          :  GBSA solvation                   true          :
          :  PC potential                    false          :
          :  electronic temp.          300.0000000     K    :
          :  accuracy                    1.0000000          :
          :  -> integral cutoff          0.2500000E+02      :
          :  -> integral neglect         0.1000000E-07      :
          :  -> SCF convergence          0.1000000E-05 Eh   :
          :  -> wf. convergence          0.1000000E-03 e    :
          :  Broyden damping             0.4000000          :
          :  net charge                          0          :
          :  unpaired electrons                  0          :
          ...................................................

 iter      E             dE          RMSdq      gap      omega  full diag
   1    -65.4104212 -0.654104E+02  0.667E+00    4.23       0.0  T
   2    -65.5344323 -0.124011E+00  0.377E+00    3.58       1.0  T
   3    -65.5529398 -0.185075E-01  0.105E+00    3.14       1.0  T
   4    -65.5567664 -0.382662E-02  0.481E-01    3.06       1.0  T
   5    -65.5575292 -0.762770E-03  0.259E-01    3.14       1.0  T
   6    -65.5577423 -0.213139E-03  0.116E-01    3.14       1.0  T
   7    -65.5577879 -0.455276E-04  0.428E-02    3.16       1.0  T
   8    -65.5577924 -0.451520E-05  0.176E-02    3.16       1.0  T
   9    -65.5577932 -0.822089E-06  0.570E-03    3.16       2.7  T
  10    -65.5577932 -0.134957E-07  0.280E-03    3.17       5.6  T
  11    -65.5577933 -0.460739E-07  0.888E-04    3.16      17.6  T
  12    -65.5577933 -0.195917E-08  0.373E-04    3.17      41.8  T

   *** convergence criteria satisfied after 12 iterations ***

         #    Occupation            Energy/Eh            Energy/eV
      -------------------------------------------------------------
         1        2.0000           -0.7618770             -20.7317
       ...           ...                  ...                  ...
        52        2.0000           -0.4463271             -12.1452
        53        2.0000           -0.4192011             -11.4070
        54        2.0000           -0.4143582             -11.2753
        55        2.0000           -0.3956461             -10.7661
        56        2.0000           -0.3944731             -10.7342
        57        2.0000           -0.3928037             -10.6887
        58        2.0000           -0.3917706             -10.6606 (HOMO)
        59                         -0.2754582              -7.4956 (LUMO)
        60                         -0.2425086              -6.5990
        61                         -0.2286582              -6.2221
        62                         -0.2017917              -5.4910
        63                         -0.1811689              -4.9299
       ...                                ...                  ...
       128                          1.2317198              33.5168
      -------------------------------------------------------------
                  HL-Gap            0.1163124 Eh            3.1650 eV
             Fermi-level           -0.3336144 Eh           -9.0781 eV

 SCC (total)                   0 d,  0 h,  0 min,  0.085 sec
 SCC setup                      ...        0 min,  0.002 sec (  2.763%)
 Dispersion                     ...        0 min,  0.000 sec (  0.311%)
 classical contributions        ...        0 min,  0.000 sec (  0.059%)
 integral evaluation            ...        0 min,  0.043 sec ( 50.891%)
 iterations                     ...        0 min,  0.021 sec ( 24.263%)
 molecular gradient             ...        0 min,  0.018 sec ( 21.482%)
 printout                       ...        0 min,  0.000 sec (  0.217%)

         :::::::::::::::::::::::::::::::::::::::::::::::::::::
         ::                     SUMMARY                     ::
         :::::::::::::::::::::::::::::::::::::::::::::::::::::
         :: total energy             -65.018551744847 Eh    ::
         :: total w/o Gsasa/hb       -65.019984468478 Eh    ::
         :: gradient norm              0.052385468652 Eh/a0 ::
         :: HOMO-LUMO gap              3.165020982281 eV    ::
         ::.................................................::
         :: SCC energy               -65.556930206914 Eh    ::
         :: -> isotropic ES            0.127950751496 Eh    ::
         :: -> anisotropic ES         -0.013944058095 Eh    ::
         :: -> anisotropic XC          0.031493276590 Eh    ::
         :: -> dispersion             -0.050225124973 Eh    ::
         :: -> Gsolv                  -0.022774038395 Eh    ::
         ::    -> Gelec               -0.024206762027 Eh    ::
         ::    -> Gsasa                0.004493879321 Eh    ::
         ::    -> Ghb                 -0.004141915388 Eh    ::
         ::    -> Gshift               0.001080759698 Eh    ::
         :: repulsion energy           0.538378462068 Eh    ::
         :: add. restraining           0.000000000000 Eh    ::
         :: total charge              -0.000000000000 e     ::
         :::::::::::::::::::::::::::::::::::::::::::::::::::::

metadynamics with 1 initial structures loaded
           -------------------------------------------------
          |           Optimal kpush determination           |
           -------------------------------------------------
      ----------------------------------------------------------- 
     |                   =====================                   |
     |                        A N C O P T                        |
     |                   =====================                   |
     |               Approximate Normal Coordinate               |
     |                Rational Function Optimizer                |
      ----------------------------------------------------------- 
target rmsd / Å         0.100000
unbiased initial rmsd   0.211111
 
iter. min.        max.        rmsd       kpush
      ----------------------------------------------------------- 
     |                   =====================                   |
     |                        A N C O P T                        |
     |                   =====================                   |
     |               Approximate Normal Coordinate               |
     |                Rational Function Optimizer                |
      ----------------------------------------------------------- 
 1    0.000000    1.863636    0.016467   -0.931818
      ----------------------------------------------------------- 
     |                   =====================                   |
     |                        A N C O P T                        |
     |                   =====================                   |
     |               Approximate Normal Coordinate               |
     |                Rational Function Optimizer                |
      ----------------------------------------------------------- 
 2    0.000000    0.931818    0.023277   -0.465909
      ----------------------------------------------------------- 
     |                   =====================                   |
     |                        A N C O P T                        |
     |                   =====================                   |
     |               Approximate Normal Coordinate               |
     |                Rational Function Optimizer                |
      ----------------------------------------------------------- 
 3    0.000000    0.465909    0.033624   -0.232955
      ----------------------------------------------------------- 
     |                   =====================                   |
     |                        A N C O P T                        |
     |                   =====================                   |
     |               Approximate Normal Coordinate               |
     |                Rational Function Optimizer                |
      ----------------------------------------------------------- 
 4    0.000000    0.232955    0.048927   -0.116477
      ----------------------------------------------------------- 
     |                   =====================                   |
     |                        A N C O P T                        |
     |                   =====================                   |
     |               Approximate Normal Coordinate               |
     |                Rational Function Optimizer                |
      ----------------------------------------------------------- 
 5    0.000000    0.116477    0.069937   -0.058239
      ----------------------------------------------------------- 
     |                   =====================                   |
     |                        A N C O P T                        |
     |                   =====================                   |
     |               Approximate Normal Coordinate               |
     |                Rational Function Optimizer                |
      ----------------------------------------------------------- 
 6    0.000000    0.058239    0.095434   -0.029119
      ----------------------------------------------------------- 
     |                   =====================                   |
     |                        A N C O P T                        |
     |                   =====================                   |
     |               Approximate Normal Coordinate               |
     |                Rational Function Optimizer                |
      ----------------------------------------------------------- 
 7    0.000000    0.029119    0.122404   -0.014560
      ----------------------------------------------------------- 
     |                   =====================                   |
     |                        A N C O P T                        |
     |                   =====================                   |
     |               Approximate Normal Coordinate               |
     |                Rational Function Optimizer                |
      ----------------------------------------------------------- 
 8    0.014560    0.029119    0.106663   -0.021839
      ----------------------------------------------------------- 
     |                   =====================                   |
     |                        A N C O P T                        |
     |                   =====================                   |
     |               Approximate Normal Coordinate               |
     |                Rational Function Optimizer                |
      ----------------------------------------------------------- 
 9    0.021839    0.029119    0.100583   -0.025479
final kpush: -0.025479
           -------------------------------------------------
          |            Biased Numerical Hessian             |
           -------------------------------------------------
kpush                :  -0.02548
alpha                :   1.00000
step length          :   0.00500
SCC accuracy         :   0.30000
Hessian scale factor :   1.00000
frozen atoms in %    :   0.00000    0
RMS gradient         :   0.00007
estimated CPU  time      0.15 min
estimated wall time      0.15 min

writing file <hessian>.

 projected vibrational frequencies (cm⁻¹)
eigval :       -0.00    -0.00     0.00     0.00     0.00     0.00
eigval :       46.89    49.45    53.48    64.83    63.14    65.30
eigval :       65.57    64.40    72.41    73.42    75.40    93.17
eigval :      101.04   118.98    97.36   135.47   132.37   150.61
eigval :      148.47   162.23   206.32   212.65   238.14   210.83
eigval :      217.45   225.39   256.75   238.15   278.40   305.95
eigval :      336.98   332.18   342.38   384.41   419.36   425.93
eigval :      447.23   476.31   489.53   616.04   623.97   655.22
eigval :      689.24   728.94   746.31   766.10   782.50   790.14
eigval :      819.79   822.61   822.92   825.67   909.29   915.72
eigval :      929.50   941.23  1038.10  1040.14  1051.79  1054.08
eigval :     1068.42  1094.25  1094.51  1095.36  1099.57  1130.91
eigval :     1132.06  1132.98  1134.80  1152.78  1235.63  1238.59
eigval :     1239.14  1242.70  1311.06  1312.99  1313.92  1314.28
eigval :     1344.35  1391.38  1390.91  1391.54  1395.75  1436.30
eigval :     1438.48  1444.31  1455.74  1457.95  1458.34  1460.56
eigval :     1464.57  1474.31  1476.09  1476.22  1476.53  2917.50
eigval :     2919.03  2920.72  2926.43  2943.44  2972.20  2978.04
eigval :     2978.80  2980.11  3011.20  3017.42  3019.72  3022.39
eigval :     3044.71  3046.85  3047.74  3051.89  3054.15  3054.95
eigval :     3055.44  3060.10  3060.82
           -------------------------------------------------
          |                Property Printout                |
           -------------------------------------------------

    * Orbital Energies and Occupations

         #    Occupation            Energy/Eh            Energy/eV
      -------------------------------------------------------------
         1        2.0000           -0.7671548             -20.8753
       ...           ...                  ...                  ...
        46        2.0000           -0.4689123             -12.7598
        47        2.0000           -0.4622699             -12.5790
        48        2.0000           -0.4586080             -12.4794
        49        2.0000           -0.4577841             -12.4569
        50        2.0000           -0.4539712             -12.3532
        51        2.0000           -0.4529597             -12.3257
        52        2.0000           -0.4457790             -12.1303
        53        2.0000           -0.4199177             -11.4265
        54        2.0000           -0.4123532             -11.2207
        55        2.0000           -0.3945604             -10.7365
        56        2.0000           -0.3933837             -10.7045
        57        2.0000           -0.3920095             -10.6671
        58        2.0000           -0.3913952             -10.6504 (HOMO)
        59                         -0.2737555              -7.4493 (LUMO)
        60                         -0.2448473              -6.6626
        61                         -0.2303369              -6.2678
        62                         -0.1979354              -5.3861
        63                         -0.1752375              -4.7685
        64                         -0.1718272              -4.6757
        65                         -0.1623563              -4.4179
        66                         -0.1542948              -4.1986
        67                         -0.1376728              -3.7463
        68                         -0.1292550              -3.5172
        69                         -0.0461144              -1.2548
       ...                                ...                  ...
       128                          1.2623323              34.3498
      -------------------------------------------------------------
                  HL-Gap            0.1176396 Eh            3.2011 eV
             Fermi-level           -0.3325754 Eh           -9.0498 eV

     #   Z          covCN         q      C6AA      α(0)
     1   6 C        3.751    -0.128    23.019     6.842
     2   6 C        3.859     0.073    19.323     6.252
     3   8 O        1.655    -0.256    18.255     5.768
     4  15 P        3.857     0.386   144.222    21.573
     5  16 S        0.927    -0.473   160.100    21.401
     6   8 O        1.655    -0.267    18.439     5.797
     7   6 C        3.873     0.082    19.181     6.227
     8   6 C        3.751    -0.127    23.006     6.840
     9  16 S        1.997    -0.147   147.259    20.424
    10   6 C        3.806     0.031    20.051     6.374
    11  16 S        1.980    -0.123   146.222    20.352
    12  15 P        3.874     0.369   144.860    21.620
    13  16 S        0.926    -0.470   159.938    21.391
    14   8 O        1.655    -0.265    18.403     5.791
    15   6 C        3.863     0.089    19.067     6.210
    16   6 C        3.751    -0.126    22.974     6.836
    17   8 O        1.655    -0.259    18.317     5.777
    18   6 C        3.861     0.083    19.167     6.226
    19   6 C        3.751    -0.133    23.127     6.858
    20   1 H        0.925     0.085     1.927     2.171
    21   1 H        0.925     0.068     2.112     2.273
    22   1 H        0.925     0.053     2.280     2.361
    23   1 H        0.924     0.065     2.143     2.289
    24   1 H        0.924     0.095     1.828     2.115
    25   1 H        0.924     0.061     2.193     2.316
    26   1 H        0.924     0.085     1.933     2.174
    27   1 H        0.925     0.084     1.938     2.177
    28   1 H        0.925     0.073     2.053     2.241
    29   1 H        0.925     0.056     2.248     2.345
    30   1 H        0.925     0.118     1.627     1.995
    31   1 H        0.925     0.117     1.639     2.002
    32   1 H        0.924     0.074     2.040     2.233
    33   1 H        0.924     0.057     2.239     2.340
    34   1 H        0.925     0.083     1.947     2.182
    35   1 H        0.925     0.057     2.235     2.338
    36   1 H        0.925     0.073     2.049     2.239
    37   1 H        0.924     0.061     2.185     2.312
    38   1 H        0.924     0.065     2.142     2.289
    39   1 H        0.925     0.076     2.023     2.224
    40   1 H        0.925     0.070     2.086     2.258
    41   1 H        0.925     0.085     1.925     2.170

 Mol. C6AA /au·bohr⁶  :      26403.900082
 Mol. C8AA /au·bohr⁸  :     862638.738773
 Mol. α(0) /au        :        257.602162


Wiberg/Mayer (AO) data.
largest (>0.10) Wiberg bond orders for each atom

 ---------------------------------------------------------------------------
     #   Z sym  total        # sym  WBO       # sym  WBO       # sym  WBO
 ---------------------------------------------------------------------------
     1   6 C    3.987 --     2 C    1.022    21 H    0.982    22 H    0.977
                            20 H    0.976
     2   6 C    3.889 --     1 C    1.022    23 H    0.966    24 H    0.963
                             3 O    0.888
     3   8 O    2.409 --     4 P    1.308     2 C    0.888
     4  15 P    5.295 --     5 S    1.543     6 O    1.314     3 O    1.308
                             9 S    0.986
     5  16 S    1.832 --     4 P    1.543
     6   8 O    2.388 --     4 P    1.314     7 C    0.877
     7   6 C    3.890 --     8 C    1.023    25 H    0.967    26 H    0.966
                             6 O    0.877
     8   6 C    3.987 --     7 C    1.023    28 H    0.982    29 H    0.978
                            27 H    0.976
     9  16 S    2.275 --     4 P    0.986    10 C    0.982
    10   6 C    3.945 --    11 S    0.983     9 S    0.982    30 H    0.954
                            31 H    0.953
    11  16 S    2.297 --    12 P    1.003    10 C    0.983    13 S    0.134
    12  15 P    5.301 --    13 S    1.516    17 O    1.328    14 O    1.316
                            11 S    1.003
    13  16 S    1.838 --    12 P    1.516    11 S    0.134
    14   8 O    2.394 --    12 P    1.316    15 C    0.882
    15   6 C    3.893 --    16 C    1.022    32 H    0.968    33 H    0.966
                            14 O    0.882
    16   6 C    3.986 --    15 C    1.022    36 H    0.982    35 H    0.978
                            34 H    0.976
    17   8 O    2.405 --    12 P    1.328    18 C    0.882
    18   6 C    3.889 --    19 C    1.018    38 H    0.971    37 H    0.968
                            17 O    0.882
    19   6 C    3.981 --    18 C    1.018    40 H    0.983    39 H    0.982
                            41 H    0.975
    20   1 H    0.992 --     1 C    0.976
    21   1 H    0.995 --     1 C    0.982
    22   1 H    0.997 --     1 C    0.977
    23   1 H    0.996 --     2 C    0.966
    24   1 H    0.991 --     2 C    0.963
    25   1 H    0.996 --     7 C    0.967
    26   1 H    0.992 --     7 C    0.966
    27   1 H    0.992 --     8 C    0.976
    28   1 H    0.995 --     8 C    0.982
    29   1 H    0.997 --     8 C    0.978
    30   1 H    0.986 --    10 C    0.954
    31   1 H    0.984 --    10 C    0.953
    32   1 H    0.994 --    15 C    0.968
    33   1 H    0.997 --    15 C    0.966
    34   1 H    0.992 --    16 C    0.976
    35   1 H    0.997 --    16 C    0.978
    36   1 H    0.995 --    16 C    0.982
    37   1 H    0.996 --    18 C    0.968
    38   1 H    0.996 --    18 C    0.971
    39   1 H    0.994 --    19 C    0.982
    40   1 H    0.995 --    19 C    0.983
    41   1 H    0.991 --    19 C    0.975
 ---------------------------------------------------------------------------

Topologies differ in total number of bonds
Writing topology from bond orders to xtbtopo.mol

molecular dipole:
                 x           y           z       tot (Debye)
 q only:       -0.134      -2.465       1.080
   full:       -0.208      -2.468       1.353       7.174
molecular quadrupole (traceless):
                xx          xy          yy          xz          yz          zz
 q only:       15.556     -12.656     -10.526     -20.552       5.088      -5.030
  q+dip:       13.007     -16.267      -9.687     -21.418       5.809      -3.319
   full:       13.736     -15.846      -9.818     -21.666       5.851      -3.918

           -------------------------------------------------
          |                Geometry Summary                 |
           -------------------------------------------------

      molecular mass/u    :      384.4756129
   center of mass at/Å    :       -0.0075925       0.0145206       0.0003968
  moments of inertia/u·Å² :        0.1300343E+04   0.3658284E+04   0.3772113E+04
rotational constants/cm⁻¹ :        0.1296399E-01   0.4608070E-02   0.4469015E-02

 * 38 selected distances

     #   Z          #   Z                                           value/Å
     1   6 C        2   6 C                                       1.5155964
     2   6 C        3   8 O                                       1.4378365
     3   8 O        4  15 P                                       1.5961310
     4  15 P        5  16 S                                       1.9574607
     4  15 P        6   8 O                                       1.5852446
     6   8 O        7   6 C                                       1.4425573
     7   6 C        8   6 C                                       1.5145920
     4  15 P        9  16 S                                       2.1128407 (max)
    11  16 S       12  15 P                                       2.1069382
    12  15 P       13  16 S                                       1.9638639
    12  15 P       14   8 O                                       1.5842044
    14   8 O       15   6 C                                       1.4395909
    15   6 C       16   6 C                                       1.5141634
    12  15 P       17   8 O                                       1.5888235
    17   8 O       18   6 C                                       1.4441048
    18   6 C       19   6 C                                       1.5161457
     1   6 C       20   1 H                                       1.0855394
     1   6 C       21   1 H                                       1.0868725
     1   6 C       22   1 H                                       1.0895156
     2   6 C       23   1 H                                       1.0949713
     2   6 C       24   1 H                                       1.0910600
     7   6 C       25   1 H                                       1.0953057
     7   6 C       26   1 H                                       1.0910337
     8   6 C       27   1 H                                       1.0858847
     8   6 C       28   1 H                                       1.0868242
     8   6 C       29   1 H                                       1.0888335
    10   6 C       30   1 H                                       1.0868010
    10   6 C       31   1 H                                       1.0894440
    15   6 C       32   1 H                                       1.0916971
    15   6 C       33   1 H                                       1.0956646
    16   6 C       34   1 H                                       1.0857172
    16   6 C       35   1 H                                       1.0890928
    16   6 C       36   1 H                                       1.0866461
    18   6 C       37   1 H                                       1.0951002
    18   6 C       38   1 H                                       1.0933424
    19   6 C       39   1 H                                       1.0861297
    19   6 C       40   1 H                                       1.0862733
    19   6 C       41   1 H                                       1.0852912 (min)

 * 5 distinct bonds (by element types)

   Z      Z             #   av. dist./Å        max./Å        min./Å
   1 H    6 C          22     1.0894109     1.0956646     1.0852912
   6 C    6 C           4     1.5151244     1.5161457     1.5141634
   6 C    8 O           4     1.4410224     1.4441048     1.4378365
   8 O   15 P           4     1.5886009     1.5961310     1.5842044
  15 P   16 S           4     2.0352759     2.1128407     1.9574607

           -------------------------------------------------
          |               Frequency Printout                |
           -------------------------------------------------
 projected vibrational frequencies (cm⁻¹)
eigval :       -0.00    -0.00     0.00     0.00     0.00     0.00
eigval :       46.89    49.45    53.48    64.83    63.14    65.30
eigval :       65.57    64.40    72.41    73.42    75.40    93.17
eigval :      101.04   118.98    97.36   135.47   132.37   150.61
eigval :      148.47   162.23   206.32   212.65   238.14   210.83
eigval :      217.45   225.39   256.75   238.15   278.40   305.95
eigval :      336.98   332.18   342.38   384.41   419.36   425.93
eigval :      447.23   476.31   489.53   616.04   623.97   655.22
eigval :      689.24   728.94   746.31   766.10   782.50   790.14
eigval :      819.79   822.61   822.92   825.67   909.29   915.72
eigval :      929.50   941.23  1038.10  1040.14  1051.79  1054.08
eigval :     1068.42  1094.25  1094.51  1095.36  1099.57  1130.91
eigval :     1132.06  1132.98  1134.80  1152.78  1235.63  1238.59
eigval :     1239.14  1242.70  1311.06  1312.99  1313.92  1314.28
eigval :     1344.35  1391.38  1390.91  1391.54  1395.75  1436.30
eigval :     1438.48  1444.31  1455.74  1457.95  1458.34  1460.56
eigval :     1464.57  1474.31  1476.09  1476.22  1476.53  2917.50
eigval :     2919.03  2920.72  2926.43  2943.44  2972.20  2978.04
eigval :     2978.80  2980.11  3011.20  3017.42  3019.72  3022.39
eigval :     3044.71  3046.85  3047.74  3051.89  3054.15  3054.95
eigval :     3055.44  3060.10  3060.82
 reduced masses (amu)
   1: 18.73   2: 20.91   3: 20.97   4: 19.89   5: 21.22   6: 16.26   7: 25.89   8: 19.30
   9: 20.31  10: 21.78  11: 19.27  12: 17.72  13: 14.20  14: 12.60  15: 14.46  16: 12.06
  17: 13.13  18: 15.69  19: 15.70  20: 19.79  21: 10.09  22: 17.56  23: 14.51  24: 18.67
  25: 14.19  26: 14.05  27: 18.36  28: 13.73  29: 18.28  30:  9.23  31:  5.78  32:  5.56
  33: 12.97  34:  6.35  35: 15.77  36: 15.67  37: 15.98  38: 15.21  39: 18.58  40: 18.69
  41: 19.30  42: 18.27  43: 16.00  44: 21.78  45: 18.28  46: 25.23  47: 26.45  48: 18.08
  49: 16.31  50: 20.29  51: 20.13  52: 23.31  53: 20.08  54:  6.08  55:  2.81  56:  2.85
  57:  2.66  58:  2.17  59: 12.60  60: 13.03  61: 11.20  62: 12.02  63:  8.46  64:  8.44
  65:  9.71  66:  9.60  67:  1.70  68:  7.88  69:  7.84  70:  7.64  71:  7.76  72:  4.83
  73:  5.20  74:  5.26  75:  5.26  76:  2.30  77:  2.24  78:  2.31  79:  2.31  80:  2.26
  81:  3.03  82:  3.14  83:  3.00  84:  3.04  85:  1.76  86:  3.13  87:  3.12  88:  3.10
  89:  3.09  90:  1.93  91:  1.94  92:  1.92  93:  1.52  94:  1.87  95:  1.50  96:  1.51
  97:  1.49  98:  1.56  99:  1.55 100:  1.56 101:  1.56 102:  1.75 103:  1.74 104:  1.85
 105:  1.74 106:  1.61 107:  1.71 108:  1.65 109:  1.73 110:  1.73 111:  1.88 112:  1.76
 113:  1.75 114:  1.76 115:  1.68 116:  1.62 117:  1.61 118:  1.92 119:  1.79 120:  1.53
 121:  1.70 122:  1.73 123:  1.82
 IR intensities (km·mol⁻¹)
   1:  0.52   2:  0.08   3:  0.41   4:  0.10   5:  0.41   6:  0.75   7:  2.20   8:  0.53
   9:  3.22  10:  3.79  11:  1.76  12:  0.52  13:  6.72  14:  4.98  15:  4.61  16:  0.56
  17:  0.41  18:  1.43  19:  4.61  20:  4.50  21:  1.20  22:  8.37  23:  2.99  24:  5.91
  25: 12.83  26: 25.74  27: 19.16  28:  4.01  29:  8.06  30: 10.50  31:  2.60  32:  4.01
  33: 13.84  34:  5.36  35:  2.16  36:  6.15  37: 16.90  38:  4.03  39: 20.00  40: 11.57
  41: 34.14  42: 20.72  43: 40.69  44:194.70  45: 93.42  46:180.48  47: 96.62  48:  6.87
  49: 40.82  50:201.47  51:231.97  52:289.96  53:286.99  54: 13.78  55:  2.05  56:  2.04
  57:  4.87  58:  4.96  59:281.17  60:344.79  61: 85.68  62:146.03  63:198.88  64:187.34
  65: 82.48  66:116.70  67:  8.34  68:  7.42  69:  6.85  70:  9.26  71: 13.25  72: 15.61
  73: 25.19  74: 11.86  75: 18.25  76: 47.43  77:  3.63  78:  3.02  79:  4.01  80:  6.73
  81:  6.93  82:  5.16  83:  2.39  84:  3.18  85: 13.32  86: 27.90  87:  9.96  88:  8.85
  89: 12.76  90:  7.15  91:  5.59  92:  3.24  93:  5.45  94:  1.12  95:  7.39  96:  6.12
  97:  9.13  98:  4.52  99:  1.10 100:  5.95 101:  1.23 102: 26.71 103: 30.65 104: 23.51
 105: 24.68 106: 27.77 107: 19.00 108:  5.86 109: 10.03 110:  6.49 111:  5.74 112: 51.03
 113: 43.58 114: 43.40 115: 25.97 116: 15.64 117: 15.25 118: 27.19 119: 12.59 120: 11.76
 121:  9.41 122: 10.30 123: 10.04
 Raman intensities (Ä⁴*amu⁻¹)
   1:  0.00   2:  0.00   3:  0.00   4:  0.00   5:  0.00   6:  0.00   7:  0.00   8:  0.00
   9:  0.00  10:  0.00  11:  0.00  12:  0.00  13:  0.00  14:  0.00  15:  0.00  16:  0.00
  17:  0.00  18:  0.00  19:  0.00  20:  0.00  21:  0.00  22:  0.00  23:  0.00  24:  0.00
  25:  0.00  26:  0.00  27:  0.00  28:  0.00  29:  0.00  30:  0.00  31:  0.00  32:  0.00
  33:  0.00  34:  0.00  35:  0.00  36:  0.00  37:  0.00  38:  0.00  39:  0.00  40:  0.00
  41:  0.00  42:  0.00  43:  0.00  44:  0.00  45:  0.00  46:  0.00  47:  0.00  48:  0.00
  49:  0.00  50:  0.00  51:  0.00  52:  0.00  53:  0.00  54:  0.00  55:  0.00  56:  0.00
  57:  0.00  58:  0.00  59:  0.00  60:  0.00  61:  0.00  62:  0.00  63:  0.00  64:  0.00
  65:  0.00  66:  0.00  67:  0.00  68:  0.00  69:  0.00  70:  0.00  71:  0.00  72:  0.00
  73:  0.00  74:  0.00  75:  0.00  76:  0.00  77:  0.00  78:  0.00  79:  0.00  80:  0.00
  81:  0.00  82:  0.00  83:  0.00  84:  0.00  85:  0.00  86:  0.00  87:  0.00  88:  0.00
  89:  0.00  90:  0.00  91:  0.00  92:  0.00  93:  0.00  94:  0.00  95:  0.00  96:  0.00
  97:  0.00  98:  0.00  99:  0.00 100:  0.00 101:  0.00 102:  0.00 103:  0.00 104:  0.00
 105:  0.00 106:  0.00 107:  0.00 108:  0.00 109:  0.00 110:  0.00 111:  0.00 112:  0.00
 113:  0.00 114:  0.00 115:  0.00 116:  0.00 117:  0.00 118:  0.00 119:  0.00 120:  0.00
 121:  0.00 122:  0.00 123:  0.00
 output can be read by thermo (or use thermo option).
 writing <g98.out> molden fake output.
 recommended (thermochemical) frequency scaling factor: 1.0
           -------------------------------------------------
          |             Thermodynamic Functions             |
           -------------------------------------------------

Molecule has no symmetry elements
It seems to be the C1 point group
c1  symmetry found (for desy threshold:  0.10E+00) used in thermo

          ...................................................
          :                      SETUP                      :
          :.................................................:
          :  # frequencies                         117      :
          :  # imaginary freq.                       0      :
          :  linear?                             false      :
          :  only rotor calc.                    false      :
          :  symmetry                               c1      :
          :  rotational number                       1      :
          :  scaling factor                  1.0000000      :
          :  rotor cutoff                    0.0000000 cm⁻¹ :
          :  imag. cutoff                 -100.0000000 cm⁻¹ :
          :.................................................:

    mode    ω/cm⁻¹     T·S(HO)/kcal·mol⁻¹    T·S(FR)/kcal·mol⁻¹   T·S(vib)
   ------------------------------------------------------------------------
       1     46.89    -1.47424 (100.00%)    -1.07557 (  0.00%)    -1.47424
       2     49.45    -1.44287 (100.00%)    -1.05982 (  0.00%)    -1.44287
       3     53.48    -1.39659 (100.00%)    -1.03656 (  0.00%)    -1.39659
       4     64.83    -1.28334 (100.00%)    -0.97956 (  0.00%)    -1.28334
       5     63.14    -1.29890 (100.00%)    -0.98740 (  0.00%)    -1.29890
       6     65.30    -1.27917 (100.00%)    -0.97745 (  0.00%)    -1.27917
       7     65.57    -1.27669 (100.00%)    -0.97620 (  0.00%)    -1.27669
       8     64.40    -1.28729 (100.00%)    -0.98154 (  0.00%)    -1.28729
       9     72.41    -1.21845 (100.00%)    -0.94682 (  0.00%)    -1.21845
      10     73.42    -1.21037 (100.00%)    -0.94274 (  0.00%)    -1.21037
      11     75.40    -1.19478 (100.00%)    -0.93485 (  0.00%)    -1.19478
      12     93.17    -1.07106 (100.00%)    -0.87215 (  0.00%)    -1.07106
      13    101.04    -1.02389 (100.00%)    -0.84813 (  0.00%)    -1.02389
      14    118.98    -0.92928 (100.00%)    -0.79971 (  0.00%)    -0.92928
      15     97.36    -1.04549 (100.00%)    -0.85913 (  0.00%)    -1.04549
      16    135.47    -0.85478 (100.00%)    -0.76128 (  0.00%)    -0.85478
      17    132.37    -0.86799 (100.00%)    -0.76811 (  0.00%)    -0.86799
      18    150.61    -0.79441 (100.00%)    -0.72988 (  0.00%)    -0.79441
      19    148.47    -0.80253 (100.00%)    -0.73411 (  0.00%)    -0.80253
      20    162.23    -0.75242 (100.00%)    -0.70786 (  0.00%)    -0.75242
      21    206.32    -0.61896 (100.00%)    -0.63665 (  0.00%)    -0.61896
      22    212.65    -0.60250 (100.00%)    -0.62770 (  0.00%)    -0.60250
      23    238.14    -0.54165 (100.00%)    -0.59415 (  0.00%)    -0.54165
      24    210.83    -0.60717 (100.00%)    -0.63024 (  0.00%)    -0.60717
      25    217.45    -0.59040 (100.00%)    -0.62108 (  0.00%)    -0.59040
      26    225.39    -0.57107 (100.00%)    -0.61046 (  0.00%)    -0.57107
      27    256.75    -0.50201 (100.00%)    -0.57186 (  0.00%)    -0.50201
      28    238.15    -0.54163 (100.00%)    -0.59414 (  0.00%)    -0.54163
      29    278.40    -0.46018 (100.00%)    -0.54788 (  0.00%)    -0.46018
   ------------------------------------------------------------------------

   temp. (K)  partition function   enthalpy   heat capacity  entropy
                                   cal/mol     cal/K/mol   cal/K/mol   J/K/mol
 298.15  VIB  0.127E+13            15636.929     88.440    107.830
         ROT  0.102E+08              888.752      2.981     35.057
         INT  0.130E+20            16525.681     91.421    142.887
         TR   0.729E+28             1481.254      4.968     43.712
         TOT                       18006.9351    96.3889   186.5999   780.7339

       T/K    H(0)-H(T)+PV         H(T)/Eh          T*S/Eh         G(T)/Eh
   ------------------------------------------------------------------------
    298.15    0.286959E-01    0.341508E+00    0.886596E-01    0.252848E+00
   ------------------------------------------------------------------------

         :::::::::::::::::::::::::::::::::::::::::::::::::::::
         ::                  THERMODYNAMIC                  ::
         :::::::::::::::::::::::::::::::::::::::::::::::::::::
         :: total free energy         -64.798296106304 Eh   ::
         ::.................................................::
         :: total energy              -65.051144246025 Eh   ::
         :: zero point energy           0.312811890972 Eh   ::
         :: G(RRHO) w/o ZPVE           -0.059963751251 Eh   ::
         :: G(RRHO) contrib.            0.252848139721 Eh   ::
         :::::::::::::::::::::::::::::::::::::::::::::::::::::

optimized geometry written to: xtbopt.coord


           -------------------------------------------------
          | TOTAL ENERGY              -65.051144246025 Eh   |
          | TOTAL ENTHALPY            -64.709636477382 Eh   |
          | TOTAL FREE ENERGY         -64.798296106304 Eh   |
          | GRADIENT NORM               0.000072177835 Eh/α |
          | HOMO-LUMO GAP               3.201136667679 eV   |
           -------------------------------------------------

------------------------------------------------------------------------
 * finished run on 2025/04/09 at 14:00:29.380     
------------------------------------------------------------------------
 total:
 * wall-time:     0 d,  0 h,  0 min, 17.853 sec
 *  cpu-time:     0 d,  0 h,  0 min, 17.615 sec
 * ratio c/w:     0.987 speedup
 SCF:
 * wall-time:     0 d,  0 h,  0 min,  0.086 sec
 *  cpu-time:     0 d,  0 h,  0 min,  0.049 sec
 * ratio c/w:     0.575 speedup
 analytical hessian:
 * wall-time:     0 d,  0 h,  0 min,  9.032 sec
 *  cpu-time:     0 d,  0 h,  0 min,  8.996 sec
 * ratio c/w:     0.996 speedup

