
                                 *****************
                                 * O   R   C   A *
                                 *****************

                                            #,                                       
                                            ###                                      
                                            ####                                     
                                            #####                                    
                                            ######                                   
                                           ########,                                 
                                     ,,################,,,,,                         
                               ,,#################################,,                 
                          ,,##########################################,,             
                       ,#########################################, ''#####,          
                    ,#############################################,,   '####,        
                  ,##################################################,,,,####,       
                ,###########''''           ''''###############################       
              ,#####''   ,,,,##########,,,,          '''####'''          '####       
            ,##' ,,,,###########################,,,                        '##       
           ' ,,###''''                  '''############,,,                           
         ,,##''                                '''############,,,,        ,,,,,,###''
      ,#''                                            '''#######################'''  
     '                                                          ''''####''''         
             ,#######,   #######,   ,#######,      ##                                
            ,#'     '#,  ##    ##  ,#'     '#,    #''#        ,####,   ,####,        
            ##       ##  ##   ,#'  ##            #'  '#       #'       #'  '#        
            ##       ##  #######   ##           ,######,      #####,   #    #        
            '#,     ,#'  ##    ##  '#,     ,#' ,#      #,     #,   #   #,  ,#        
             '#######'   ##     ##  '#######'  #'      '#     '####' # '####'        



                #########################################################
                #                        -***-                          #
                #          Department of theory and spectroscopy        #
                #                                                       #
                #                      Frank Neese                      #
                #                                                       #
                #     Directorship, Architecture, Infrastructure        #
                #                    SHARK, DRIVERS                     #
                #        Core code/Algorithms in most modules           #
                #                                                       #
                #        Max Planck Institute fuer Kohlenforschung      #
                #                Kaiser Wilhelm Platz 1                 #
                #                 D-45470 Muelheim/Ruhr                 #
                #                      Germany                          #
                #                                                       #
                #                  All rights reserved                  #
                #                        -***-                          #
                #########################################################


                         Program Version 6.0.0  -   RELEASE  -


 With contributions from (in alphabetic order):
   Daniel Aravena         : Magnetic Suceptibility
   Michael Atanasov       : Ab Initio Ligand Field Theory (pilot matlab implementation)
   Alexander A. Auer      : GIAO ZORA, VPT2 properties, NMR spectrum
   Ute Becker             : All parallelization in ORCA, NUMFREQ, NUMCALC
   Giovanni Bistoni       : ED, misc. LED, open-shell LED, HFLD
   Martin Brehm           : Molecular dynamics
   Dmytro Bykov           : pre 5.0 version of the SCF Hessian
   Marcos Casanova-Páez   : Triplet and SCS-CIS(D). UHF-(DLPNO)-IP/EA/STEOM-CCSD. UHF-CVS-IP/STEOM-CCSD
   Vijay G. Chilkuri      : MRCI spin determinant printing, contributions to CSF-ICE
   Pauline Colinet        : FMM embedding
   Dipayan Datta          : RHF DLPNO-CCSD density
   Achintya Kumar Dutta   : EOM-CC, STEOM-CC
   Nicolas Foglia         : Exact transition moments, OPA infrastructure, MCD improvements
   Dmitry Ganyushin       : Spin-Orbit,Spin-Spin,Magnetic field MRCI
   Miquel Garcia          : C-PCM and meta-GGA Hessian, CCSD/C-PCM, Gaussian charge scheme
   Tiago L. C. Gouveia    : GS-ROHF, GS-ROCIS
   Yang Guo               : DLPNO-NEVPT2, F12-NEVPT2, CIM, IAO-localization
   Andreas Hansen         : Spin unrestricted coupled pair/coupled cluster methods
   Ingolf Harden          : AUTO-CI MPn and infrastructure 
   Benjamin Helmich-Paris : MC-RPA, TRAH-(SCF,CASSCF), AVAS, COSX integrals, SCF dyn. polar.
   Lee Huntington         : MR-EOM, pCC
   Robert Izsak           : Overlap fitted RIJCOSX, COSX-SCS-MP3, EOM
   Riya Kayal             : Wick's Theorem for AUTO-CI, AUTO-CI UHF-CCSDT
   Emily Kempfer          : AUTO-CI, RHF CISDT and CCSDT
   Christian Kollmar      : KDIIS, OOCD, Brueckner-CCSD(T), CCSD density, CASPT2, CASPT2-K, improved NEVPT2
   Axel Koslowski         : Symmetry handling
   Simone Kossmann        : Meta GGA functionals, TD-DFT gradient, OOMP2, (MP2 Hessian; deprecated post 5.0)
   Lucas Lang             : DCDCAS
   Marvin Lechner         : AUTO-CI (C++ implementation), FIC-MRCC
   Spencer Leger          : CASSCF response
   Dagmar Lenk            : GEPOL surface, SMD, ORCA-2-JSON
   Dimitrios Liakos       : Extrapolation schemes; Compound Job, initial MDCI parallelization
   Dimitrios Manganas     : Further ROCIS development; embedding schemes. LFT, Crystal Embedding
   Dimitrios Pantazis     : SARC Basis sets
   Anastasios Papadopoulos: AUTO-CI, single reference methods and gradients
   Taras Petrenko         : pre 6.0 DFT Hessian and TD-DFT gradient, (ASA, deprecated), ECA, 1-Electron XAS/XES, NRVS
   Peter Pinski           : DLPNO-MP2, DLPNO-MP2 Gradient
   Christoph Reimann      : Effective Core Potentials
   Marius Retegan         : Local ZFS, SOC
   Christoph Riplinger    : Optimizer, TS searches, QM/MM, DLPNO-CCSD(T), (RO)-DLPNO pert. Triples
   Michael Roemelt        : Original ROCIS implementation
   Masaaki Saitow         : Open-shell DLPNO-CCSD energy and density
   Barbara Sandhoefer     : DKH picture change effects
   Kantharuban Sivalingam : CASSCF convergence/infrastructure, NEVPT2 and variants, FIC-MRCI
   Bernardo de Souza      : ESD, SOC TD-DFT
   Georgi Stoychev        : AutoAux, RI-MP2 NMR, DLPNO-MP2 response, X2C
   Van Anh Tran           : RI-MP2 g-tensors
   Willem Van den Heuvel  : Paramagnetic NMR
   Zikuan Wang            : NOTCH, Electric field optimization 
   Frank Wennmohs         : Technical directorship and infrastructure
   Hang Xu                : AUTO-CI-Response properties 


 We gratefully acknowledge several colleagues who have allowed us to
 interface, adapt or use parts of their codes:
   Stefan Grimme, W. Hujo, H. Kruse, P. Pracht,  : VdW corrections, initial TS optimization,
                  C. Bannwarth, S. Ehlert,         DFT functionals, gCP, sTDA/sTD-DF
                  L. Wittmann, M. Mueller
   Ed Valeev, F. Pavosevic, A. Kumar             : LibInt (2-el integral package), F12 methods
   Garnet Chan, S. Sharma, J. Yang, R. Olivares  : DMRG
   Ulf Ekstrom                                   : XCFun DFT Library
   Mihaly Kallay                                 : mrcc  (arbitrary order and MRCC methods)
   Frank Weinhold                                : gennbo (NPA and NBO analysis)
   Simon Mueller                                 : openCOSMO-RS
   Christopher J. Cramer and Donald G. Truhlar   : smd solvation model
   Lars Goerigk                                  : TD-DFT with DH, B97 family of functionals
   V. Asgeirsson, H. Jonsson                     : NEB implementation
   FAccTs GmbH                                   : IRC, NEB, NEB-TS, DLPNO-Multilevel, CI-OPT
                                                   MM, QMMM, 2- and 3-layer-ONIOM, Crystal-QMMM,
                                                   LR-CPCM, SF, NACMEs, symmetry and pop. for TD-DFT,
                                                   nearIR, NL-DFT gradient (VV10), updates on ESD,
                                                   ML-optimized integration grids, MBIS, APM,
                                                   GOAT, DOCKER, SOLVATOR, interface openCOSMO-RS
   S Lehtola, MJT Oliveira, MAL Marques          : LibXC Library
   Liviu Ungur et al                             : ANISO software


 Your calculation uses the libint2 library for the computation of 2-el integrals
 For citations please refer to: http://libint.valeyev.net

 Your ORCA version has been built with support for libXC version: 6.2.2
 For citations please refer to: https://libxc.gitlab.io

 This ORCA versions uses:
   CBLAS   interface :  Fast vector & matrix operations
   LAPACKE interface :  Fast linear algebra routines
   SCALAPACK package :  Parallel linear algebra routines
   Shared memory     :  Shared parallel matrices
   BLAS/LAPACK       :  OpenBLAS 0.3.27  USE64BITINT DYNAMIC_ARCH NO_AFFINITY SapphireRapids SINGLE_THREADED
        Core in use  :  SapphireRapids
   Copyright (c) 2011-2014, The OpenBLAS Project


Your calculation utilizes the geometrical counterpoise correction gCP
Please cite in your paper:
H.Kruse, S. Grimme J.Chem.Phys., 136, (2012), 154101 
   

Your calculation utilizes the DFT-NL dispersion correction.
Cite in your paper:
Vydrov, O. A.; Van Voorhis, T. J. Chem. Phys. 2010, 133, 244103
Hujo, W.; Grimme, S. J. Chem. Theory Comput. 2011, 7, 3866 
   

================================================================================

----- Orbital basis set information -----
Your calculation utilizes the basis: def2-TZVP
   F. Weigend and R. Ahlrichs, Phys. Chem. Chem. Phys. 7, 3297 (2005).

----- AuxJ basis set information -----
Your calculation utilizes the auxiliary basis: def2/J
   F. Weigend, Phys. Chem. Chem. Phys. 8, 1057 (2006).

================================================================================
                                        WARNINGS
                       Please study these warnings very carefully!
================================================================================


================================================================================
                                       INPUT FILE
================================================================================
NAME = sp_gas.inp
|  1> ! wb97x-v def2-tzvp def2/J RIJCOSX DEFGRID2 scfconv7 GCP(DFT/TZ) printgap
|  2> %output
|  3>     printlevel normal
|  4> end
|  5> * xyz 0 1
|  6> C 0.6055616455964098 -1.8391062711047642e-05 -9.945122439076638e-05
|  7> O -0.608081374519693 3.933432120064046e-05 3.151499908251072e-05
|  8> H 1.1851431771034748 -0.9419969334273437 7.529195843949568e-05
|  9> H 1.185241687365979 0.9418999294768451 7.578356087197776e-05
| 10> *
| 11> 
| 12>                          ****END OF INPUT****
================================================================================

                       ****************************
                       * Single Point Calculation *
                       ****************************

---------------------------------
CARTESIAN COORDINATES (ANGSTROEM)
---------------------------------
  C      0.605562   -0.000018   -0.000099
  O     -0.608081    0.000039    0.000032
  H      1.185143   -0.941997    0.000075
  H      1.185242    0.941900    0.000076

----------------------------
CARTESIAN COORDINATES (A.U.)
----------------------------
  NO LB      ZA    FRAG     MASS         X           Y           Z
   0 C     6.0000    0    12.011    1.144346   -0.000035   -0.000188
   1 O     8.0000    0    15.999   -1.149107    0.000074    0.000060
   2 H     1.0000    0     1.008    2.239596   -1.780116    0.000142
   3 H     1.0000    0     1.008    2.239782    1.779933    0.000143

--------------------------------
INTERNAL COORDINATES (ANGSTROEM)
--------------------------------
 C      0   0   0     0.000000000000     0.00000000     0.00000000
 O      1   0   0     1.213643028555     0.00000000     0.00000000
 H      1   2   0     1.106001065314   121.60592083     0.00000000
 H      1   2   3     1.106001403300   121.60645172   180.02889738

---------------------------
INTERNAL COORDINATES (A.U.)
---------------------------
 C      0   0   0     0.000000000000     0.00000000     0.00000000
 O      1   0   0     2.293452948312     0.00000000     0.00000000
 H      1   2   0     2.090039117268   121.60592083     0.00000000
 H      1   2   3     2.090039755969   121.60645172   180.02889738

---------------------
BASIS SET INFORMATION
---------------------
There are 3 groups of distinct atoms

 Group   1 Type C   : 11s6p2d1f contracted to 5s3p2d1f pattern {62111/411/11/1}
 Group   2 Type O   : 11s6p2d1f contracted to 5s3p2d1f pattern {62111/411/11/1}
 Group   3 Type H   : 5s1p contracted to 3s1p pattern {311/1}

Atom   0C    basis set group =>   1
Atom   1O    basis set group =>   2
Atom   2H    basis set group =>   3
Atom   3H    basis set group =>   3
---------------------------------
AUXILIARY/J BASIS SET INFORMATION
---------------------------------
There are 3 groups of distinct atoms

 Group   1 Type C   : 12s5p4d2f1g contracted to 6s4p3d1f1g pattern {711111/2111/211/2/1}
 Group   2 Type O   : 12s5p4d2f1g contracted to 6s4p3d1f1g pattern {711111/2111/211/2/1}
 Group   3 Type H   : 5s2p1d contracted to 3s1p1d pattern {311/2/1}

Atom   0C    basis set group =>   1
Atom   1O    basis set group =>   2
Atom   2H    basis set group =>   3
Atom   3H    basis set group =>   3

Checking for AutoStart:
The File: sp_gas.gbw exists
Trying to determine its content:
     ... Fine, the file contains calculation information
     ... Fine, the calculation information was read
     ... Fine, the file contains a basis set
     ... Fine, the basis set was read
     ... Fine, the file contains a geometry
     ... Fine, the geometry was read
     ... Fine, the file contains a set of orbitals
     ... Fine, the orbitals can be read
     => possible old guess file was deleted
     => GBW file was renamed to GES file
     => GES file is set as startup file
     => Guess is set to MORead
     ... now leaving AutoStart

------------------------------------------------------------------------------
                             ORCA STARTUP CALCULATIONS
                           -- RI-GTO INTEGRALS CHOSEN --
------------------------------------------------------------------------------
------------------------------------------------------------------------------
                   ___                                                        
                  /   \      - P O W E R E D   B Y -                         
                 /     \                                                     
                 |  |  |   _    _      __       _____    __    __             
                 |  |  |  | |  | |    /  \     |  _  \  |  |  /  |          
                  \  \/   | |  | |   /    \    | | | |  |  | /  /          
                 / \  \   | |__| |  /  /\  \   | |_| |  |  |/  /          
                |  |  |   |  __  | /  /__\  \  |    /   |      \           
                |  |  |   | |  | | |   __   |  |    \   |  |\   \          
                \     /   | |  | | |  |  |  |  | |\  \  |  | \   \       
                 \___/    |_|  |_| |__|  |__|  |_| \__\ |__|  \__/        
                                                                              
                      - O R C A' S   B I G   F R I E N D -                    
                                      &                                       
                       - I N T E G R A L  F E E D E R -                       
                                                                              
 v1 FN, 2020, v2 2021, v3 2022-2024                                           
------------------------------------------------------------------------------


----------------------
SHARK INTEGRAL PACKAGE
----------------------

Number of atoms                             ...      4
Number of basis functions                   ...     74
Number of shells                            ...     30
Maximum angular momentum                    ...      3
Integral batch strategy                     ... SHARK/LIBINT Hybrid
RI-J (if used) integral strategy            ... SPLIT-RIJ (Revised 2003 algorithm where possible)
Printlevel                                  ...      1
Contraction scheme used                     ... SEGMENTED contraction
Prescreening option                         ... SCHWARTZ
   Thresh                                   ... 3.000e-11
   Tcut                                     ... 1.000e-12
   Tpresel                                  ... 1.000e-12 
Coulomb Range Separation                    ... NOT USED
Exchange Range Separation                   ... Long Range
   Mu parameter                             ... 3.000e-01
   Scaling (regular/separated)              ... 1.670e-01 8.330e-01
Multipole approximations                    ... NOT USED
Finite Nucleus Model                        ... NOT USED
CABS basis                                  ... NOT available
Auxiliary Coulomb fitting basis             ... AVAILABLE
   # of basis functions in Aux-J            ...    120
   # of shells in Aux-J                     ...     40
   Maximum angular momentum in Aux-J        ...      4
Auxiliary J/K fitting basis                 ... NOT available
Auxiliary Correlation fitting basis         ... NOT available
Auxiliary 'external' fitting basis          ... NOT available

Checking pre-screening integrals            ... done (  0.0 sec) Dimension = 30
Check shell pair data                       ... done (  0.0 sec)
Shell pair information
Shell pair cut-off parameter TPreSel        ...   1.0e-12
Total number of shell pairs                 ...       465
Shell pairs after pre-screening             ...       464
Total number of primitive shell pairs       ...      1428
Primitive shell pairs kept                  ...      1291
          la=0 lb=0:    135 shell pairs
          la=1 lb=0:    128 shell pairs
          la=1 lb=1:     36 shell pairs
          la=2 lb=0:     64 shell pairs
          la=2 lb=1:     32 shell pairs
          la=2 lb=2:     10 shell pairs
          la=3 lb=0:     32 shell pairs
          la=3 lb=1:     16 shell pairs
          la=3 lb=2:      8 shell pairs
          la=3 lb=3:      3 shell pairs

Calculating one electron integrals          ... done (  0.0 sec)
Calculating RI/J V-Matrix + Cholesky decomp.... done (  0.0 sec)
Calculating Nuclear repulsion               ... done (  0.0 sec) ENN=     31.131447535251 Eh

Diagonalization of the overlap matrix:
Smallest eigenvalue                        ... 1.501e-03
Time for diagonalization                   ...    0.001 sec
Threshold for overlap eigenvalues          ... 1.000e-07
Number of eigenvalues below threshold      ... 0
Time for construction of square roots      ...    0.010 sec
Total time needed                          ...    0.018 sec

-------------------
DFT GRID GENERATION
-------------------

General Integration Accuracy     IntAcc      ... 4.388
Radial Grid Type                 RadialGrid  ... OptM3 with GC (2021)
Angular Grid (max. ang.)         AngularGrid ... 4 (Lebedev-302)
Angular grid pruning method      GridPruning ... 4 (adaptive)
Weight generation scheme         WeightScheme... mBecke (2022)
Basis function cutoff            BFCut       ... 1.0000e-11
Integration weight cutoff        WCut        ... 1.0000e-14
Partially contracted basis set               ... off
Rotationally invariant grid construction     ... off
Angular grids for H and He will be reduced by one unit

Total number of grid points                  ...    18837
Total number of batches                      ...      297
Average number of points per batch           ...       63
Average number of grid points per atom       ...     4709

--------------------
COSX GRID GENERATION
--------------------

GRIDX 1
-------
General Integration Accuracy     IntAcc      ... 3.816
Radial Grid Type                 RadialGrid  ... OptM3 with GC (2021)
Angular Grid (max. ang.)         AngularGrid ... 1 (Lebedev-50)
Angular grid pruning method      GridPruning ... 4 (adaptive)
Weight generation scheme         WeightScheme... mBecke (2022)
Basis function cutoff            BFCut       ... 1.0000e-11
Integration weight cutoff        WCut        ... 1.0000e-14
Partially contracted basis set               ... on
Rotationally invariant grid construction     ... off
Angular grids for H and He will be reduced by one unit

Total number of grid points                  ...     2417
Total number of batches                      ...       22
Average number of points per batch           ...      109
Average number of grid points per atom       ...      604
UseSFitting                                  ... on

GRIDX 2
-------
General Integration Accuracy     IntAcc      ... 4.020
Radial Grid Type                 RadialGrid  ... OptM3 with GC (2021)
Angular Grid (max. ang.)         AngularGrid ... 2 (Lebedev-110)
Angular grid pruning method      GridPruning ... 4 (adaptive)
Weight generation scheme         WeightScheme... mBecke (2022)
Basis function cutoff            BFCut       ... 1.0000e-11
Integration weight cutoff        WCut        ... 1.0000e-14
Partially contracted basis set               ... on
Rotationally invariant grid construction     ... off
Angular grids for H and He will be reduced by one unit

Total number of grid points                  ...     5360
Total number of batches                      ...       44
Average number of points per batch           ...      121
Average number of grid points per atom       ...     1340
UseSFitting                                  ... on

GRIDX 3
-------
General Integration Accuracy     IntAcc      ... 4.338
Radial Grid Type                 RadialGrid  ... OptM3 with GC (2021)
Angular Grid (max. ang.)         AngularGrid ... 3 (Lebedev-194)
Angular grid pruning method      GridPruning ... 4 (adaptive)
Weight generation scheme         WeightScheme... mBecke (2022)
Basis function cutoff            BFCut       ... 1.0000e-11
Integration weight cutoff        WCut        ... 1.0000e-14
Partially contracted basis set               ... on
Rotationally invariant grid construction     ... off
Angular grids for H and He will be reduced by one unit

Total number of grid points                  ...    11889
Total number of batches                      ...       95
Average number of points per batch           ...      125
Average number of grid points per atom       ...     2972
UseSFitting                                  ... on
Initializing property integral containers    ... done (  0.0 sec)

SHARK setup successfully completed in   0.8 seconds

Maximum memory used throughout the entire STARTUP-calculation: 13.7 MB
-------------------------------------------------------------------------------
                                 ORCA GUESS
                   Start orbitals & Density for SCF / CASSCF
-------------------------------------------------------------------------------

------------
SCF SETTINGS
------------
Hamiltonian:
 Density Functional     Method          .... DFT(GTOs)
 Exchange Functional    Exchange        .... WB97X-V
 Correlation Functional Correlation     .... WB97X-V
 Gradients option       PostSCFGGA      .... off
 Hybrid DFT is turned on
   Fraction HF Exchange ScalHFX         ....  0.167000
   Scaling of DF-GGA-X  ScalDFX         ....  0.000000
   Scaling of DF-GGA-C  ScalDFC         ....  1.000000
   Scaling of DF-LDA-C  ScalLDAC        ....  1.000000
   Perturbative correction              ....  0.000000
 Long-range corrected/Screened/Range-Separated Hybrid DFT is turned on
   Amount of maximum screened exact exchange              ....  0.833000
   Range separation parameter mu (erf(mu*r12)/r12)        ....  0.300000
   NL short-range parameter             ....  6.000000
   NL long-range parameter              ....  0.010000
 RI-approximation to the Coulomb term is turned on
   Number of AuxJ basis functions       .... 120
   RIJ-COSX (HFX calculated with COS-X)).... on


General Settings:
 Integral files         IntName         .... sp_gas
 Hartree-Fock type      HFTyp           .... RHF
 Total Charge           Charge          ....    0
 Multiplicity           Mult            ....    1
 Number of Electrons    NEL             ....   16
 Basis Dimension        Dim             ....   74
 Nuclear Repulsion      ENuc            ....     31.1314475353 Eh

Convergence Acceleration:
 AO-DIIS                CNVDIIS         .... on
   Start iteration      DIISMaxIt       ....    12
   Startup error        DIISStart       ....  0.200000
   # of expansion vecs  DIISMaxEq       ....     5
   Bias factor          DIISBfac        ....   1.050
   Max. coefficient     DIISMaxC        ....  10.000
 MO-DIIS                CNVKDIIS        .... off
 Trust-Rad. Augm. Hess. CNVTRAH         .... auto
   Auto Start mean grad. ratio tolernc. ....  1.125000
   Auto Start start iteration           ....     1
   Auto Start num. interpolation iter.  ....    10
   Max. Number of Micro iterations      ....    24
   Max. Number of Macro iterations      .... Maxiter - #DIIS iter
   Number of Davidson start vectors     ....     2
   Converg. threshold    (grad. norm)   ....   1.000e-04
   Grad. Scal. Fac. for Micro threshold ....   0.100
   Minimum threshold for Micro iter.    ....   1.000e-02
   NR start threshold (gradient norm)   ....   1.000e-04
   Initial trust radius                 ....   0.400
   Minimum AH scaling param. (alpha)    ....   1.000
   Maximum AH scaling param. (alpha)    .... 1000.000
   Quad. conv. algorithm                .... NR
   White noise on init. David. guess    .... on
   Maximum white noise                  ....   0.010
   Pseudo random numbers                .... off
   Inactive MOs                         .... canonical
   Orbital update algorithm             .... Taylor
   Preconditioner                       .... Diag
   Full preconditioner red. dimension   ....   250
 SOSCF                  CNVSOSCF        .... on
   Start iteration      SOSCFMaxIt      ....   150
   Startup grad/error   SOSCFStart      ....  0.003300
   Hessian update       SOSCFHessUp     .... L-BFGS
 Level Shifting         CNVShift        .... on
   Level shift para.    LevelShift      ....    0.2500
   Turn off err/grad.   ShiftErr        ....    0.0010
 Zerner damping         CNVZerner       .... off
 Static damping         CNVDamp         .... on
   Fraction old density DampFac         ....    0.7000
   Max. Damping (<1)    DampMax         ....    0.9800
   Min. Damping (>=0)   DampMin         ....    0.0000
   Turn off err/grad.   DampErr         ....    0.1000

SCF Procedure:
 Maximum # iterations   MaxIter         ....   125
 SCF integral mode      SCFMode         .... Direct
   Integral package                     .... SHARK and LIBINT hybrid scheme
 Reset frequency        DirectResetFreq ....    20
 Integral Threshold     Thresh          ....  3.000e-11 Eh
 Primitive CutOff       TCut            ....  1.000e-12 Eh

Convergence Tolerance:
 Convergence Check Mode ConvCheckMode   .... Total+1el-Energy
 Convergence forced     ConvForced      .... 0
 Energy Change          TolE            ....  1.000e-07 Eh
 1-El. energy change                    ....  1.000e-04 Eh
 Orbital Gradient       TolG            ....  1.000e-04
 Orbital Rotation angle TolX            ....  1.000e-04
 DIIS Error             TolErr          ....  1.000e-07

---------------------
INITIAL GUESS: MOREAD
---------------------
Guess MOs are being read from file: sp_gas.ges
Input Geometry matches current geometry (good)
Atom 0: N(Shells)= 11 and 9 - projection required
Input basis set needs projection
NBasis(read)= 53
NBasis(calc)= 74
Basis set overlap was calculated
Using GuessMode=FMatrix for the initial guess
C*T matrix was formed
Effective Fockian was calculated
Effective Fockian was diagonalized
Initial density was built
                      ------------------
                      INITIAL GUESS DONE (   0.0 sec)
                      ------------------
             **** ENERGY FILE WAS UPDATED (sp_gas.en.tmp) ****
Finished Guess after   0.2 sec
Maximum memory used throughout the entire GUESS-calculation: 8.0 MB

-------------------------------------------------------------------------------------------
                                      ORCA LEAN-SCF
                              memory conserving SCF solver
-------------------------------------------------------------------------------------------

----------------------------------------D-I-I-S--------------------------------------------
Iteration    Energy (Eh)           Delta-E    RMSDP     MaxDP     DIISErr   Damp  Time(sec)
-------------------------------------------------------------------------------------------
               ***  Starting incremental Fock matrix formation  ***
    1    -114.5693504728534435     0.00e+00  1.36e-03  1.52e-02  6.22e-02  0.700   0.6
    2    -114.5714132754985997    -2.06e-03  1.22e-03  1.34e-02  4.39e-02  0.700   0.4
                               ***Turning on AO-DIIS***
    3    -114.5728542394474516    -1.44e-03  1.01e-03  1.21e-02  3.05e-02  0.700   0.4
    4    -114.5738628531281051    -1.01e-03  2.57e-03  2.93e-02  2.18e-02  0.000   0.4
    5    -114.5764707759466035    -2.61e-03  1.63e-04  2.22e-03  4.21e-03  0.000   0.5
                              *** Initializing SOSCF ***
---------------------------------------S-O-S-C-F--------------------------------------
Iteration    Energy (Eh)           Delta-E    RMSDP     MaxDP     MaxGrad    Time(sec)
--------------------------------------------------------------------------------------
    6    -114.5764863528778790    -1.56e-05  5.62e-05  7.22e-04  1.69e-03     0.4
               *** Restarting incremental Fock matrix formation ***
    7    -114.5764933877668739    -7.03e-06  3.43e-05  3.74e-04  2.43e-04     0.6
    8    -114.5764942505431918    -8.63e-07  1.93e-05  2.56e-04  1.43e-04     0.6
    9    -114.5764943565392571    -1.06e-07  6.96e-06  8.52e-05  9.78e-05     0.6
   10    -114.5764943895688646    -3.30e-08  3.35e-06  4.38e-05  3.29e-05     0.6
                 **** Energy Check signals convergence ****

               *****************************************************
               *                     SUCCESS                       *
               *           SCF CONVERGED AFTER  10 CYCLES          *
               *****************************************************


------------------
NL GRID GENERATION
------------------

General Integration Accuracy     IntAcc      ... 4.004
Radial Grid Type                 RadialGrid  ... OptM3 with GC (2021)
Angular Grid (max. ang.)         AngularGrid ... 2 (Lebedev-110)
Angular grid pruning method      GridPruning ... 4 (adaptive)
Weight generation scheme         WeightScheme... mBecke (2022)
Basis function cutoff            BFCut       ... 1.0000e-10
Integration weight cutoff        WCut        ... 1.0000e-14
Partially contracted basis set               ... off
Rotationally invariant grid construction     ... off
Angular grids for H and He will be reduced by one unit

Total number of grid points                  ...     6021
Total number of batches                      ...       96
Average number of points per batch           ...       62
Average number of grid points per atom       ...     1505
Final grid set up in    0.0 sec

-------------------------------------------------------------------------------
                    post-SCF DFT-NL dispersion correction                      
-------------------------------------------------------------------------------

SCF Energy:     -114.576494390 
NL    Energy:      0.066519637 
SC+NL Energy:   -114.509974753 
NL done in  :              0.1 sec
-------------------------------------------------------------------------------
Recomputing exchange energy using gridx3       ... done (    0.766 sec)
Old exchange energy                            :     -4.450534999 Eh
New exchange energy                            :     -4.450529954 Eh
Exchange energy change after final integration :      0.000005044 Eh
Total energy after final integration           :   -114.509969709 Eh
             **** ENERGY FILE WAS UPDATED (sp_gas.en.tmp) ****

----------------
TOTAL SCF ENERGY
----------------

Total Energy       :       -114.50996970855149 Eh           -3115.97469 eV

Components:
Nuclear Repulsion  :         31.13144753525066 Eh             847.12975 eV
Electronic Energy  :       -145.70794192481952 Eh           -3964.91467 eV
One Electron Energy:       -217.18854928893973 Eh           -5910.00088 eV
Two Electron Energy:         71.48060736412019 Eh            1945.08621 eV

Virial components:
Potential Energy   :       -228.60214400330779 Eh           -6220.58059 eV
Kinetic Energy     :        114.09217429475629 Eh            3104.60590 eV
Virial Ratio       :          2.00366191122553

DFT components:
N(Alpha)           :        8.000002335294 electrons
N(Beta)            :        8.000002335294 electrons
N(Total)           :       16.000004670587 electrons
E(X)               :       -9.618074028148 Eh       
E(C)               :       -0.663927754155 Eh       
NL Energy, E(C,NL) :        0.066519636523 Eh       
E(XC)              :      -10.215482145780 Eh       

---------------
SCF CONVERGENCE
---------------

  Last Energy change         ...    3.3030e-08  Tolerance :   1.0000e-07
  Last MAX-Density change    ...    4.3840e-05  Tolerance :   1.0000e-05
  Last RMS-Density change    ...    3.3523e-06  Tolerance :   1.0000e-06
  Last DIIS Error            ...    1.6930e-03  Tolerance :   1.0000e-07
  Last Orbital Gradient      ...    3.2935e-05  Tolerance :   1.0000e-04
  Last Orbital Rotation      ...    3.4763e-05  Tolerance :   1.0000e-04


----------------
ORBITAL ENERGIES
----------------

  NO   OCC          E(Eh)            E(eV) 
   0   2.0000     -21.692783      -590.2906 
   1   2.0000     -12.150911      -330.6431 
   2   2.0000      -1.734025       -47.1852 
   3   2.0000      -1.163785       -31.6682 
   4   2.0000      -1.015941       -27.6452 
   5   2.0000      -1.002667       -27.2840 
   6   2.0000      -0.911490       -24.8029 
   7   2.0000      -0.793071       -21.5806 
   8   0.0000      -0.328643        -8.9428 
   9   0.0000      -0.022949        -0.6245 
  10   0.0000       0.034067         0.9270 
  11   0.0000       0.035757         0.9730 
  12   0.0000       0.192224         5.2307 
  13   0.0000       0.194177         5.2838 
  14   0.0000       0.233429         6.3519 
  15   0.0000       0.238357         6.4860 
  16   0.0000       0.336650         9.1607 
  17   0.0000       0.344089         9.3631 
  18   0.0000       0.371227        10.1016 
*Only the first 10 virtual orbitals were printed.

                    ********************************
                    * MULLIKEN POPULATION ANALYSIS *
                    ********************************

-----------------------
MULLIKEN ATOMIC CHARGES
-----------------------
   0 C :    0.081919
   1 O :   -0.266480
   2 H :    0.092280
   3 H :    0.092281
Sum of atomic charges:   -0.0000000

--------------------------------
MULLIKEN REDUCED ORBITAL CHARGES
--------------------------------
  0 C s       :     3.248630  s :     3.248630
      pz      :     0.704810  p :     2.521271
      px      :     0.812942
      py      :     1.003520
      dz2     :     0.005918  d :     0.136301
      dxz     :     0.027318
      dyz     :     0.000000
      dx2y2   :     0.016158
      dxy     :     0.086908
      f0      :     0.001763  f :     0.011878
      f+1     :     0.001117
      f-1     :     0.000412
      f+2     :     0.001960
      f-2     :     0.000000
      f+3     :     0.002590
      f-3     :     0.004035

  1 O s       :     3.822078  s :     3.822078
      pz      :     1.246144  p :     4.410652
      px      :     1.345528
      py      :     1.818980
      dz2     :     0.002601  d :     0.031911
      dxz     :     0.012710
      dyz     :     0.000000
      dx2y2   :     0.008576
      dxy     :     0.008024
      f0      :     0.000142  f :     0.001839
      f+1     :     0.000126
      f-1     :     0.000021
      f+2     :     0.000512
      f-2     :     0.000000
      f+3     :     0.000457
      f-3     :     0.000580

  2 H s       :     0.888294  s :     0.888294
      pz      :     0.002320  p :     0.019426
      px      :     0.005396
      py      :     0.011709

  3 H s       :     0.888294  s :     0.888294
      pz      :     0.002320  p :     0.019426
      px      :     0.005397
      py      :     0.011708


------------------------
MULLIKEN OVERLAP CHARGES
------------------------
B(  0-C ,  1-O ) :   1.2166 B(  0-C ,  2-H ) :   0.7716 B(  0-C ,  3-H ) :   0.7716 
B(  1-O ,  2-H ) :  -0.1295 B(  1-O ,  3-H ) :  -0.1295 B(  2-H ,  3-H ) :  -0.2087 



                     *******************************
                     * LOEWDIN POPULATION ANALYSIS *
                     *******************************

----------------------
LOEWDIN ATOMIC CHARGES
----------------------
   0 C :   -0.261590
   1 O :    0.085251
   2 H :    0.088169
   3 H :    0.088170

-------------------------------
LOEWDIN REDUCED ORBITAL CHARGES
-------------------------------
  0 C s       :     2.929557  s :     2.929557
      pz      :     0.703580  p :     2.758706
      px      :     1.002231
      py      :     1.052895
      dz2     :     0.030604  d :     0.495394
      dxz     :     0.061820
      dyz     :     0.000000
      dx2y2   :     0.107912
      dxy     :     0.295058
      f0      :     0.006244  f :     0.077933
      f+1     :     0.009356
      f-1     :     0.002672
      f+2     :     0.011677
      f-2     :     0.000000
      f+3     :     0.014106
      f-3     :     0.033878

  1 O s       :     3.432675  s :     3.432675
      pz      :     1.187011  p :     4.403899
      px      :     1.527124
      py      :     1.689764
      dz2     :     0.008033  d :     0.072105
      dxz     :     0.013907
      dyz     :     0.000000
      dx2y2   :     0.024746
      dxy     :     0.025419
      f0      :     0.000338  f :     0.006070
      f+1     :     0.000862
      f-1     :     0.000164
      f+2     :     0.000726
      f-2     :     0.000000
      f+3     :     0.001720
      f-3     :     0.002259

  2 H s       :     0.853894  s :     0.853894
      pz      :     0.007347  p :     0.057936
      px      :     0.015903
      py      :     0.034687

  3 H s       :     0.853894  s :     0.853894
      pz      :     0.007347  p :     0.057936
      px      :     0.015906
      py      :     0.034684


---------------------------------
LOEWDIN BOND ORDERS (THRESH 0.050000)
---------------------------------
B(  0-C ,  1-O ) :   2.8869 B(  0-C ,  2-H ) :   0.9453 B(  0-C ,  3-H ) :   0.9453 
B(  1-O ,  2-H ) :   0.0888 B(  1-O ,  3-H ) :   0.0888 

------------------------------------------
LOEWDIN REDUCED ORBITAL POPULATIONS PER MO
-------------------------------------------
THRESHOLD FOR PRINTING IS 0.1%%
                      0         1         2         3         4         5   
                 -21.69278 -12.15091  -1.73403  -1.16379  -1.01594  -1.00267
                   2.00000   2.00000   2.00000   2.00000   2.00000   2.00000
                  --------  --------  --------  --------  --------  --------
 0 C  s               0.0      99.4      14.7      23.0       9.4       0.0
 0 C  px              0.0       0.0      18.0       6.2      25.9       0.0
 0 C  py              0.0       0.0       0.0       0.0       0.0      32.2
 0 C  dz2             0.0       0.0       1.0       0.1       0.4       0.0
 0 C  dx2y2           0.1       0.0       3.5       1.5       0.3       0.0
 0 C  dxy             0.0       0.0       0.0       0.0       0.0       1.4
 0 C  f+1             0.0       0.0       0.3       0.0       0.0       0.0
 0 C  f-1             0.0       0.0       0.0       0.0       0.0       0.1
 0 C  f+3             0.1       0.0       0.6       0.0       0.0       0.0
 0 C  f-3             0.0       0.0       0.0       0.0       0.0       0.8
 1 O  s              99.7       0.0      54.2      12.5       5.3       0.0
 1 O  px              0.0       0.2       5.3      37.5      33.3       0.0
 1 O  py              0.0       0.0       0.0       0.0       0.0      52.8
 1 O  dz2             0.0       0.1       0.1       0.2       0.0       0.0
 1 O  dx2y2           0.0       0.2       0.3       0.6       0.1       0.0
 1 O  dxy             0.0       0.0       0.0       0.0       0.0       0.5
 2 H  s               0.0       0.0       0.9       8.2      11.8       5.5
 2 H  px              0.0       0.0       0.1       0.2       0.0       0.4
 2 H  py              0.0       0.0       0.0       0.8       0.8       0.2
 3 H  s               0.0       0.0       0.9       8.2      11.8       5.5
 3 H  px              0.0       0.0       0.1       0.2       0.0       0.4
 3 H  py              0.0       0.0       0.0       0.8       0.8       0.2

                      6         7         8         9        10        11   
                  -0.91149  -0.79307  -0.32864  -0.02295   0.03407   0.03576
                   2.00000   2.00000   0.00000   0.00000   0.00000   0.00000
                  --------  --------  --------  --------  --------  --------
 0 C  s               0.0       0.0       0.0      22.4       0.0       5.8
 0 C  pz             35.2       0.0      54.3       0.0       0.0       0.0
 0 C  px              0.0       0.0       0.0       9.1       0.0      32.8
 0 C  py              0.0      20.4       0.0       0.0      35.1       0.0
 0 C  dz2             0.0       0.0       0.0      10.6       0.0       1.7
 0 C  dxz             3.1       0.0       4.5       0.0       0.0       0.0
 0 C  dx2y2           0.0       0.0       0.0       0.4       0.0      22.5
 0 C  dxy             0.0      13.4       0.0       0.0       5.0       0.0
 0 C  f0              0.3       0.0       0.5       0.0       0.0       0.0
 0 C  f+1             0.0       0.0       0.0       0.0       0.0       0.7
 0 C  f-1             0.0       0.0       0.0       0.0       0.4       0.0
 0 C  f+2             0.6       0.0       0.9       0.0       0.0       0.0
 0 C  f+3             0.0       0.0       0.0       2.2       0.0       0.5
 0 C  f-3             0.0       0.9       0.0       0.0       0.5       0.0
 1 O  s               0.0       0.0       0.0       2.4       0.0       8.4
 1 O  pz             59.4       0.0      34.0       0.0       0.0       0.0
 1 O  px              0.0       0.0       0.0       5.7       0.0       6.1
 1 O  py              0.0      31.7       0.0       0.0       5.6       0.0
 1 O  dz2             0.0       0.0       0.0       0.3       0.0       0.4
 1 O  dxz             0.7       0.0       2.9       0.0       0.0       0.0
 1 O  dx2y2           0.0       0.0       0.0       2.0       0.0       0.7
 1 O  dxy             0.0       0.8       0.0       0.0       3.2       0.0
 1 O  f0              0.0       0.0       0.1       0.0       0.0       0.0
 1 O  f+2             0.0       0.0       0.2       0.0       0.0       0.0
 1 O  f-3             0.0       0.1       0.0       0.0       0.3       0.0
 2 H  s               0.0      16.3       0.0      15.5      18.2       6.7
 2 H  pz              0.4       0.0       1.3       0.0       0.0       0.0
 2 H  px              0.0       0.1       0.0       2.2       3.7       0.7
 2 H  py              0.0       0.0       0.0       4.6       3.1       2.8
 3 H  s               0.0      16.3       0.0      15.5      18.2       6.7
 3 H  pz              0.4       0.0       1.3       0.0       0.0       0.0
 3 H  px              0.0       0.1       0.0       2.2       3.7       0.7
 3 H  py              0.0       0.0       0.0       4.6       3.1       2.8

                     12        13        14        15        16        17   
                   0.19222   0.19418   0.23343   0.23836   0.33665   0.34409
                   0.00000   0.00000   0.00000   0.00000   0.00000   0.00000
                  --------  --------  --------  --------  --------  --------
 0 C  s              44.4       0.0       3.0       0.0       0.0      28.4
 0 C  pz              0.0      91.9       0.0       0.0       0.0       0.0
 0 C  px              2.1       0.0      64.3       0.0       0.0       9.0
 0 C  py              0.0       0.0       0.0      52.4      12.5       0.0
 0 C  dz2            13.0       0.0       3.7       0.0       0.0       1.0
 0 C  dxz             0.0       1.1       0.0       0.0       0.0       0.0
 0 C  dx2y2           8.7       0.0       1.2       0.0       0.0       1.9
 0 C  dxy             0.0       0.0       0.0       5.7       6.9       0.0
 0 C  f+1             0.1       0.0       0.0       0.0       0.0       0.2
 0 C  f-1             0.0       0.0       0.0       0.6       0.6       0.0
 0 C  f+3             0.7       0.0       0.8       0.0       0.0       0.9
 0 C  f-3             0.0       0.0       0.0       0.8       0.1       0.0
 1 O  s               2.4       0.0       0.8       0.0       0.0       0.5
 1 O  pz              0.0       5.3       0.0       0.0       0.0       0.0
 1 O  px              3.9       0.0      14.4       0.0       0.0       2.7
 1 O  py              0.0       0.0       0.0      28.9       8.8       0.0
 1 O  dz2             1.2       0.0       1.2       0.0       0.0       0.3
 1 O  dxz             0.0       1.2       0.0       0.0       0.0       0.0
 1 O  dx2y2           0.7       0.0       4.6       0.0       0.0       0.0
 1 O  dxy             0.0       0.0       0.0       0.1       2.8       0.0
 1 O  f+1             0.1       0.0       0.1       0.0       0.0       0.0
 1 O  f+2             0.0       0.2       0.0       0.0       0.0       0.0
 1 O  f+3             0.0       0.0       0.3       0.0       0.0       0.0
 1 O  f-3             0.0       0.0       0.0       0.0       0.3       0.0
 2 H  s              10.3       0.0       2.8       4.7      33.0      26.0
 2 H  pz              0.0       0.1       0.0       0.0       0.0       0.0
 2 H  px              0.4       0.0       0.0       0.8       0.3       0.2
 2 H  py              0.6       0.0       0.0       0.2       0.7       1.3
 3 H  s              10.3       0.0       2.8       4.7      33.0      26.0
 3 H  pz              0.0       0.1       0.0       0.0       0.0       0.0
 3 H  px              0.4       0.0       0.0       0.8       0.3       0.2
 3 H  py              0.6       0.0       0.0       0.2       0.7       1.3

                     18        19        20        21        22        23   
                   0.37123   0.44318   0.49151   0.54963   0.64091   0.69059
                   0.00000   0.00000   0.00000   0.00000   0.00000   0.00000
                  --------  --------  --------  --------  --------  --------
 0 C  s               3.2       0.0       0.0       0.0       1.9       0.0
 0 C  pz              0.0       5.5       0.0       0.0       0.0       4.2
 0 C  px              5.3       0.0       0.0       0.0       4.8       0.0
 0 C  py              0.0       0.0       0.0      22.0       0.0       0.0
 0 C  dz2             1.5       0.0       0.0       0.0       7.4       0.0
 0 C  dxz             0.0       8.3       0.0       0.0       0.0      63.5
 0 C  dyz             0.0       0.0      81.7       0.0       0.0       0.0
 0 C  dx2y2           1.2       0.0       0.0       0.0       1.0       0.0
 0 C  dxy             0.0       0.0       0.0       1.8       0.0       0.0
 0 C  f0              0.0       0.2       0.0       0.0       0.0       0.6
 0 C  f+1             0.0       0.0       0.0       0.0       0.4       0.0
 0 C  f+2             0.0       0.3       0.0       0.0       0.0       0.7
 0 C  f+3             0.0       0.0       0.0       0.0       2.4       0.0
 1 O  s               5.5       0.0       0.0       0.0      66.0       0.0
 1 O  pz              0.0      83.5       0.0       0.0       0.0       8.9
 1 O  px             70.1       0.0       0.0       0.0       2.3       0.0
 1 O  py              0.0       0.0       0.0      60.2       0.0       0.0
 1 O  dz2             2.4       0.0       0.0       0.0       0.7       0.0
 1 O  dxz             0.0       0.9       0.0       0.0       0.0      15.9
 1 O  dyz             0.0       0.0       4.4       0.0       0.0       0.0
 1 O  dx2y2           6.8       0.0       0.0       0.0      11.4       0.0
 1 O  dxy             0.0       0.0       0.0       6.0       0.0       0.0
 1 O  f+2             0.0       0.0       0.0       0.0       0.0       0.1
 1 O  f-2             0.0       0.0       0.2       0.0       0.0       0.0
 1 O  f+3             0.1       0.0       0.0       0.0       0.1       0.0
 2 H  s               1.5       0.0       0.0       3.5       0.5       0.0
 2 H  pz              0.0       0.6       6.9       0.0       0.0       3.0
 2 H  px              0.4       0.0       0.0       0.6       0.1       0.0
 2 H  py              0.1       0.0       0.0       1.0       0.2       0.0
 3 H  s               1.5       0.0       0.0       3.5       0.5       0.0
 3 H  pz              0.0       0.6       6.9       0.0       0.0       3.0
 3 H  px              0.4       0.0       0.0       0.6       0.1       0.0
 3 H  py              0.1       0.0       0.0       1.0       0.2       0.0

                     24        25        26        27        28        29   
                   0.74940   0.84496   0.87871   1.16107   1.17318   1.24971
                   0.00000   0.00000   0.00000   0.00000   0.00000   0.00000
                  --------  --------  --------  --------  --------  --------
 0 C  s              10.6       0.0       1.5      63.8       0.0       0.0
 0 C  pz              0.0       0.0       0.0       0.0      86.4       0.0
 0 C  px              1.9       0.0      19.7       7.6       0.0       0.0
 0 C  py              0.0      12.8       0.0       0.0       0.0       0.0
 0 C  dz2            31.7       0.0      16.3       3.2       0.0       0.0
 0 C  dxz             0.0       0.0       0.0       0.0       0.3       0.0
 0 C  dyz             0.0       0.0       0.0       0.0       0.0       0.1
 0 C  dx2y2           7.1       0.0      24.4       0.1       0.0       0.0
 0 C  dxy             0.0      31.6       0.0       0.0       0.0       0.0
 0 C  f+1             1.9       0.0       2.9       1.0       0.0       0.0
 0 C  f-1             0.0       1.7       0.0       0.0       0.0       0.0
 0 C  f+2             0.0       0.0       0.0       0.0       0.6       0.0
 0 C  f-2             0.0       0.0       0.0       0.0       0.0      10.9
 0 C  f+3             1.5       0.0       3.1       7.2       0.0       0.0
 0 C  f-3             0.0       1.5       0.0       0.0       0.0       0.0
 1 O  s               5.9       0.0       5.7       0.9       0.0       0.0
 1 O  pz              0.0       0.0       0.0       0.0       0.9       0.0
 1 O  px              0.3       0.0      12.2       0.5       0.0       0.0
 1 O  py              0.0       5.1       0.0       0.0       0.0       0.0
 1 O  dz2            13.6       0.0       0.3       8.1       0.0       0.0
 1 O  dxz             0.0       0.0       0.0       0.0       4.5       0.0
 1 O  dyz             0.0       0.0       0.0       0.0       0.0      71.5
 1 O  dx2y2           0.7       0.0       1.0       4.2       0.0       0.0
 1 O  dxy             0.0       6.5       0.0       0.0       0.0       0.0
 1 O  f+1             0.3       0.0       0.2       0.4       0.0       0.0
 1 O  f+3             0.1       0.0       0.4       0.5       0.0       0.0
 2 H  s               6.8       9.8       0.1       0.3       0.0       0.0
 2 H  pz              0.0       0.0       0.0       0.0       3.6       8.7
 2 H  px              4.1       0.1       5.1       0.0       0.0       0.0
 2 H  py              1.3      10.5       0.9       0.9       0.0       0.0
 3 H  s               6.8       9.8       0.1       0.3       0.0       0.0
 3 H  pz              0.0       0.0       0.0       0.0       3.6       8.7
 3 H  px              4.1       0.1       5.1       0.0       0.0       0.0
 3 H  py              1.3      10.5       0.9       0.9       0.0       0.0

                     30        31        32        33        34        35   
                   1.33906   1.34857   1.39002   1.46556   1.64132   1.69899
                   0.00000   0.00000   0.00000   0.00000   0.00000   0.00000
                  --------  --------  --------  --------  --------  --------
 0 C  s               0.0      12.4       0.0       6.3       0.0       0.0
 0 C  pz              0.0       0.0       0.0       0.0      11.9       3.1
 0 C  px              0.0      22.5       0.0      15.9       0.0       0.0
 0 C  py             66.9       0.0       1.9       0.0       0.0       0.0
 0 C  dz2             0.0       5.1       0.0       1.3       0.0       0.0
 0 C  dxz             0.0       0.0       0.0       0.0       3.5      14.2
 0 C  dx2y2           0.0       2.8       0.0       0.4       0.0       0.0
 0 C  dxy             0.1       0.0       2.0       0.0       0.0       0.0
 0 C  f0              0.0       0.0       0.0       0.0      15.1       2.7
 0 C  f+1             0.0       8.8       0.0       0.0       0.0       0.0
 0 C  f-1             3.4       0.0       0.5       0.0       0.0       0.0
 0 C  f+2             0.0       0.0       0.0       0.0       4.3      15.3
 0 C  f+3             0.0       4.5       0.0       1.7       0.0       0.0
 0 C  f-3             0.5       0.0      12.5       0.0       0.0       0.0
 1 O  s               0.0       7.4       0.0       1.2       0.0       0.0
 1 O  pz              0.0       0.0       0.0       0.0       0.2       5.6
 1 O  px              0.0       8.9       0.0       2.4       0.0       0.0
 1 O  py              0.7       0.0       1.9       0.0       0.0       0.0
 1 O  dz2             0.0      22.6       0.0      23.7       0.0       0.0
 1 O  dxz             0.0       0.0       0.0       0.0       2.0      57.2
 1 O  dx2y2           0.0       0.9       0.0      17.6       0.0       0.0
 1 O  dxy             0.3       0.0      30.4       0.0       0.0       0.0
 1 O  f0              0.0       0.0       0.0       0.0       0.0       0.1
 1 O  f+1             0.0       0.6       0.0       0.1       0.0       0.0
 1 O  f+2             0.0       0.0       0.0       0.0       0.0       0.2
 1 O  f+3             0.0       1.3       0.0       0.0       0.0       0.0
 2 H  s               7.6       0.6       0.3       7.0       0.0       0.0
 2 H  pz              0.0       0.0       0.0       0.0      31.5       0.7
 2 H  px              3.5       0.4      20.2       5.0       0.0       0.0
 2 H  py              3.0       0.0       4.8       2.6       0.0       0.0
 3 H  s               7.6       0.6       0.3       7.0       0.0       0.0
 3 H  pz              0.0       0.0       0.0       0.0      31.5       0.7
 3 H  px              3.5       0.4      20.2       5.0       0.0       0.0
 3 H  py              3.0       0.0       4.8       2.6       0.0       0.0

                     36        37        38        39        40        41   
                   1.78718   1.83139   1.84707   1.94495   2.11780   2.22731
                   0.00000   0.00000   0.00000   0.00000   0.00000   0.00000
                  --------  --------  --------  --------  --------  --------
 0 C  s               1.6       0.0       0.0       4.5       0.0       0.0
 0 C  pz              0.0       0.0       0.0       0.0       0.0       0.2
 0 C  px              3.0       0.0       0.0      17.2       0.0       0.0
 0 C  py              0.0       0.0       8.1       0.0       2.4       0.0
 0 C  dz2             2.1       0.0       0.0       1.8       0.0       0.0
 0 C  dxz             0.0       0.0       0.0       0.0       0.0       6.7
 0 C  dyz             0.0      16.1       0.0       0.0       0.0       0.0
 0 C  dx2y2           4.1       0.0       0.0       1.8       0.0       0.0
 0 C  dxy             0.0       0.0       0.8       0.0      29.9       0.0
 0 C  f0              0.0       0.0       0.0       0.0       0.0       2.5
 0 C  f+1             2.2       0.0       0.0       9.6       0.0       0.0
 0 C  f-1             0.0       0.0      14.7       0.0      21.6       0.0
 0 C  f+2             0.0       0.0       0.0       0.0       0.0       7.7
 0 C  f-2             0.0       9.0       0.0       0.0       0.0       0.0
 0 C  f+3             8.3       0.0       0.0       0.7       0.0       0.0
 0 C  f-3             0.0       0.0       0.1       0.0       1.1       0.0
 1 O  s               1.4       0.0       0.0       0.4       0.0       0.0
 1 O  pz              0.0       0.0       0.0       0.0       0.0      81.8
 1 O  px              9.7       0.0       0.0       5.9       0.0       0.0
 1 O  py              0.0       0.0       8.7       0.0      18.4       0.0
 1 O  dz2             0.5       0.0       0.0      13.6       0.0       0.0
 1 O  dxz             0.0       0.0       0.0       0.0       0.0       1.0
 1 O  dyz             0.0      21.9       0.0       0.0       0.0       0.0
 1 O  dx2y2          21.8       0.0       0.0      17.9       0.0       0.0
 1 O  dxy             0.0       0.0      26.8       0.0       5.2       0.0
 1 O  f+1             0.0       0.0       0.0       1.7       0.0       0.0
 1 O  f-2             0.0       0.7       0.0       0.0       0.0       0.0
 1 O  f+3             0.5       0.0       0.0       1.6       0.0       0.0
 1 O  f-3             0.0       0.0       0.2       0.0       0.3       0.0
 2 H  s              16.9       0.0      16.1       4.6       4.8       0.0
 2 H  pz              0.0      26.2       0.0       0.0       0.0       0.0
 2 H  px              1.3       0.0       3.1       4.7       0.6       0.0
 2 H  py              4.2       0.0       1.0       2.4       5.3       0.0
 3 H  s              16.9       0.0      16.1       4.6       4.8       0.0
 3 H  pz              0.0      26.2       0.0       0.0       0.0       0.0
 3 H  px              1.3       0.0       3.1       4.7       0.6       0.0
 3 H  py              4.2       0.0       1.0       2.4       5.3       0.0

                     42        43        44        45        46        47   
                   2.27221   2.27506   2.38461   2.52826   2.65520   2.67830
                   0.00000   0.00000   0.00000   0.00000   0.00000   0.00000
                  --------  --------  --------  --------  --------  --------
 0 C  s               0.0       1.2       5.5       3.0       0.0       0.8
 0 C  px              0.0       0.8       3.2       0.4       0.0       0.8
 0 C  py              4.3       0.0       0.0       0.0       0.0       0.0
 0 C  dz2             0.0       2.5      27.2       3.2       0.0      21.8
 0 C  dyz             0.0       0.0       0.0       0.0      97.9       0.0
 0 C  dx2y2           0.0      19.1      16.8       0.0       0.0      39.0
 0 C  dxy            20.6       0.0       0.0       0.0       0.0       0.0
 0 C  f+1             0.0       5.6       0.7       0.1       0.0       2.5
 0 C  f-1             0.5       0.0       0.0       0.0       0.0       0.0
 0 C  f-2             0.0       0.0       0.0       0.0       1.1       0.0
 0 C  f+3             0.0       1.3       0.0       0.4       0.0       4.1
 1 O  s               0.0       1.6       3.6      65.5       0.0      12.6
 1 O  px              0.0       0.6       3.0      20.6       0.0      15.1
 1 O  py             21.8       0.0       0.0       0.0       0.0       0.0
 1 O  dz2             0.0       5.9       2.0       2.1       0.0       0.2
 1 O  dx2y2           0.0       0.0       0.9       1.5       0.0       0.7
 1 O  dxy             2.8       0.0       0.0       0.0       0.0       0.0
 1 O  f+1             0.0       1.6       0.1       0.1       0.0       0.0
 1 O  f-2             0.0       0.0       0.0       0.0       0.9       0.0
 1 O  f+3             0.0       0.2       0.0       0.0       0.0       0.0
 1 O  f-3             1.2       0.0       0.0       0.0       0.0       0.0
 2 H  s              12.7       5.2       6.5       0.6       0.0       0.4
 2 H  px              2.9      12.9       7.1       0.7       0.0       0.3
 2 H  py              8.7      11.8       4.9       0.2       0.0       0.5
 3 H  s              12.7       5.2       6.5       0.6       0.0       0.4
 3 H  px              2.9      12.9       7.1       0.7       0.0       0.3
 3 H  py              8.8      11.8       4.9       0.2       0.0       0.5

                     48        49        50        51        52        53   
                   2.69568   2.73206   2.89739   2.95476   2.96304   3.03450
                   0.00000   0.00000   0.00000   0.00000   0.00000   0.00000
                  --------  --------  --------  --------  --------  --------
 0 C  s               0.0       0.0       0.0       0.0       0.0       2.1
 0 C  pz              0.0       0.2       1.4       0.0       0.0       0.0
 0 C  px              0.0       0.0       0.0       0.0       0.0       2.6
 0 C  py              4.7       0.0       0.0       2.8       0.0       0.0
 0 C  dz2             0.0       0.0       0.0       0.0       0.0      15.5
 0 C  dxz             0.0      77.5       1.5       0.0       0.0       0.0
 0 C  dyz             0.0       0.0       0.0       0.0       3.4       0.0
 0 C  dx2y2           0.0       0.0       0.0       0.0       0.0      12.5
 0 C  dxy             8.7       0.0       0.0      35.5       0.0       0.0
 0 C  f0              0.0       4.9      52.1       0.0       0.0       0.0
 0 C  f+1             0.0       0.0       0.0       0.0       0.0      31.7
 0 C  f-1             0.3       0.0       0.0      37.1       0.0       0.0
 0 C  f+2             0.0       8.5      26.6       0.0       0.0       0.0
 0 C  f-2             0.0       0.0       0.0       0.0      72.2       0.0
 0 C  f+3             0.0       0.0       0.0       0.0       0.0       4.1
 0 C  f-3             8.3       0.0       0.0       3.3       0.0       0.0
 1 O  s               0.0       0.0       0.0       0.0       0.0       1.1
 1 O  pz              0.0       2.4       0.2       0.0       0.0       0.0
 1 O  px              0.0       0.0       0.0       0.0       0.0       1.5
 1 O  py             43.2       0.0       0.0       0.1       0.0       0.0
 1 O  dz2             0.0       0.0       0.0       0.0       0.0       0.2
 1 O  dxz             0.0       1.0       0.0       0.0       0.0       0.0
 1 O  dyz             0.0       0.0       0.0       0.0       2.1       0.0
 1 O  dx2y2           0.0       0.0       0.0       0.0       0.0       2.2
 1 O  dxy             7.4       0.0       0.0       0.7       0.0       0.0
 1 O  f0              0.0       2.1       0.7       0.0       0.0       0.0
 1 O  f+1             0.0       0.0       0.0       0.0       0.0       1.1
 1 O  f-1             0.3       0.0       0.0       1.5       0.0       0.0
 1 O  f+2             0.0       3.3       0.4       0.0       0.0       0.0
 1 O  f-2             0.0       0.0       0.0       0.0       6.2       0.0
 1 O  f+3             0.0       0.0       0.0       0.0       0.0       4.6
 1 O  f-3             2.0       0.0       0.0       2.4       0.0       0.0
 2 H  s               3.1       0.0       0.0       3.9       0.0       4.9
 2 H  pz              0.0       0.1       8.5       0.0       8.0       0.0
 2 H  px              9.5       0.0       0.0       0.3       0.0       1.4
 2 H  py              0.0       0.0       0.0       4.1       0.0       4.2
 3 H  s               3.1       0.0       0.0       3.9       0.0       4.9
 3 H  pz              0.0       0.1       8.5       0.0       8.0       0.0
 3 H  px              9.5       0.0       0.0       0.3       0.0       1.4
 3 H  py              0.0       0.0       0.0       4.1       0.0       4.2

                     54        55        56        57        58        59   
                   3.32717   3.42446   3.46314   3.75408   3.79139   4.06555
                   0.00000   0.00000   0.00000   0.00000   0.00000   0.00000
                  --------  --------  --------  --------  --------  --------
 0 C  s               0.0       2.3       0.0       0.0      18.1       4.3
 0 C  pz              3.1       0.0       0.0       0.0       0.0       0.0
 0 C  px              0.0      10.2       0.0       0.0       3.4       5.4
 0 C  py              0.0       0.0       0.3      19.2       0.0       0.0
 0 C  dz2             0.0       7.1       0.0       0.0      12.6       5.7
 0 C  dxz             5.1       0.0       0.0       0.0       0.0       0.0
 0 C  dx2y2           0.0      12.7       0.0       0.0       5.6       5.6
 0 C  dxy             0.0       0.0       3.3      21.3       0.0       0.0
 0 C  f0             18.3       0.0       0.0       0.0       0.0       0.0
 0 C  f+1             0.0      24.8       0.0       0.0       0.1       0.3
 0 C  f-1             0.0       0.0       0.0      17.0       0.0       0.0
 0 C  f+2            30.9       0.0       0.0       0.0       0.0       0.0
 0 C  f+3             0.0      13.9       0.0       0.0       4.3      27.5
 0 C  f-3             0.0       0.0      57.2       3.7       0.0       0.0
 1 O  s               0.0       7.7       0.0       0.0      12.2       7.6
 1 O  pz             13.9       0.0       0.0       0.0       0.0       0.0
 1 O  px              0.0       5.7       0.0       0.0      15.8       7.4
 1 O  py              0.0       0.0       7.9       0.2       0.0       0.0
 1 O  dz2             0.0       1.3       0.0       0.0       0.9       0.4
 1 O  dxz            10.0       0.0       0.0       0.0       0.0       0.0
 1 O  dx2y2           0.0       2.1       0.0       0.0       3.6       1.8
 1 O  dxy             0.0       0.0       6.4       0.1       0.0       0.0
 1 O  f0              7.0       0.0       0.0       0.0       0.0       0.0
 1 O  f+1             0.0       0.1       0.0       0.0       5.0      13.8
 1 O  f-1             0.0       0.0       0.4       1.2       0.0       0.0
 1 O  f+2            11.8       0.0       0.0       0.0       0.0       0.0
 1 O  f+3             0.0       1.0       0.0       0.0      15.3       0.3
 1 O  f-3             0.0       0.0      18.9       1.1       0.0       0.0
 2 H  s               0.0       1.2       0.3       9.9       1.0       7.8
 2 H  px              0.0       1.5       2.4       1.0       0.2       1.0
 2 H  py              0.0       3.0       0.1       7.3       0.3       1.2
 3 H  s               0.0       1.2       0.3       9.9       1.0       7.8
 3 H  px              0.0       1.5       2.4       1.0       0.2       1.0
 3 H  py              0.0       3.0       0.1       7.3       0.3       1.2

                     60        61        62        63        64        65   
                   4.82034   4.83227   5.12438   5.27040   5.61796   5.80110
                   0.00000   0.00000   0.00000   0.00000   0.00000   0.00000
                  --------  --------  --------  --------  --------  --------
 0 C  s               0.0       0.0       0.0       0.9       0.0       0.0
 0 C  pz              0.0       0.0       0.0       0.0       0.7       0.0
 0 C  px              0.0       0.0       0.0       0.9       0.0       0.0
 0 C  py              0.0       0.4       0.0       0.0       0.0       0.5
 0 C  dxz             0.0       0.0       0.0       0.0       7.0       0.0
 0 C  dyz             0.0       0.0       0.6       0.0       0.0       0.0
 0 C  dxy             0.0       0.2       0.0       0.0       0.0       8.3
 0 C  f0              0.6       0.0       0.0       0.0       1.9       0.0
 0 C  f+1             0.0       0.0       0.0       4.9       0.0       0.0
 0 C  f-1             0.0       1.4       0.0       0.0       0.0       0.2
 0 C  f+2             0.4       0.0       0.0       0.0       2.9       0.0
 0 C  f-2             0.0       0.0       6.5       0.0       0.0       0.0
 0 C  f+3             0.0       0.0       0.0       7.1       0.0       0.0
 0 C  f-3             0.0       0.0       0.0       0.0       0.0       8.4
 1 O  s               0.0       0.0       0.0       0.3       0.0       0.0
 1 O  pz              0.0       0.0       0.0       0.0       2.1       0.0
 1 O  px              0.0       0.0       0.0       0.2       0.0       0.0
 1 O  py              0.0       0.0       0.0       0.0       0.0       2.2
 1 O  dz2             0.0       0.0       0.0       3.9       0.0       0.0
 1 O  dxz             0.0       0.0       0.0       0.0      37.8       0.0
 1 O  dyz             0.0       0.0       4.0       0.0       0.0       0.0
 1 O  dx2y2           0.0       0.0       0.0       0.2       0.0       0.0
 1 O  dxy             0.0       0.0       0.0       0.0       0.0      30.5
 1 O  f0             61.7       0.0       0.0       0.0      18.0       0.0
 1 O  f+1             0.0       0.0       0.0      49.0       0.0       0.0
 1 O  f-1             0.0      92.5       0.0       0.0       0.0       2.6
 1 O  f+2            37.1       0.0       0.0       0.0      29.7       0.0
 1 O  f-2             0.0       0.0      88.5       0.0       0.0       0.0
 1 O  f+3             0.0       0.0       0.0      29.0       0.0       0.0
 1 O  f-3             0.0       4.9       0.0       0.0       0.0      46.3
 2 H  s               0.0       0.2       0.0       1.4       0.0       0.0
 2 H  pz              0.1       0.0       0.2       0.0       0.0       0.0
 2 H  px              0.0       0.0       0.0       0.0       0.0       0.5
 2 H  py              0.0       0.0       0.0       0.2       0.0       0.0
 3 H  s               0.0       0.2       0.0       1.4       0.0       0.0
 3 H  pz              0.1       0.0       0.2       0.0       0.0       0.0
 3 H  px              0.0       0.0       0.0       0.0       0.0       0.5
 3 H  py              0.0       0.0       0.0       0.2       0.0       0.0

                     66        67        68        69        70        71   
                   5.81980   5.82685   5.89489   6.33369   6.34473   6.53771
                   0.00000   0.00000   0.00000   0.00000   0.00000   0.00000
                  --------  --------  --------  --------  --------  --------
 0 C  s               4.4       0.0       0.1       0.0       0.0       3.5
 0 C  pz              0.0       0.0       0.0       1.9       0.0       0.0
 0 C  px              4.4       0.0       0.2       0.0       0.0       2.3
 0 C  py              0.0       0.0       0.0       0.0       1.2       0.0
 0 C  dz2             2.0       0.0       0.2       0.0       0.0       0.1
 0 C  dxz             0.0       0.0       0.0       3.5       0.0       0.0
 0 C  dyz             0.0       0.2       0.0       0.0       0.0       0.0
 0 C  dx2y2           4.7       0.0       0.4       0.0       0.0       0.4
 0 C  dxy             0.0       0.0       0.0       0.0       3.7       0.0
 0 C  f0              0.0       0.0       0.0       0.2       0.0       0.0
 0 C  f+1             0.1       0.0       0.2       0.0       0.0       0.5
 0 C  f+2             0.0       0.0       0.0       0.4       0.0       0.0
 0 C  f-2             0.0       0.3       0.0       0.0       0.0       0.0
 0 C  f+3             0.5       0.0       0.1       0.0       0.0       1.4
 0 C  f-3             0.0       0.0       0.0       0.0       0.1       0.0
 1 O  s               4.3       0.0       0.3       0.0       0.0       2.0
 1 O  pz              0.0       0.0       0.0       2.1       0.0       0.0
 1 O  px              5.2       0.0       0.2       0.0       0.0       2.7
 1 O  py              0.0       0.0       0.0       0.0       2.0       0.0
 1 O  dz2             2.0       0.0      71.9       0.0       0.0      19.9
 1 O  dxz             0.0       0.0       0.0      64.9       0.0       0.0
 1 O  dyz             0.0      96.1       0.0       0.0       0.0       0.0
 1 O  dx2y2          21.1       0.0      21.4       0.0       0.0      53.0
 1 O  dxy             0.0       0.0       0.0       0.0      69.5       0.0
 1 O  f0              0.0       0.0       0.0      10.1       0.0       0.0
 1 O  f+1            18.1       0.0       1.1       0.0       0.0       6.1
 1 O  f-1             0.0       0.0       0.0       0.0       1.4       0.0
 1 O  f+2             0.0       0.0       0.0      16.9       0.0       0.0
 1 O  f-2             0.0       3.4       0.0       0.0       0.0       0.0
 1 O  f+3            32.9       0.0       3.5       0.0       0.0       8.1
 1 O  f-3             0.0       0.0       0.0       0.0      21.8       0.0
 2 H  s               0.1       0.0       0.2       0.0       0.1       0.0
 3 H  s               0.1       0.0       0.2       0.0       0.1       0.0

                     72        73   
                  20.79301  41.13427
                   0.00000   0.00000
                  --------  --------
 0 C  s              97.4       0.0
 0 C  px              0.1       0.0
 0 C  dz2             0.2       0.0
 0 C  f+3             0.1       0.0
 1 O  s               0.8      99.9
 1 O  px              0.6       0.0
 2 H  s               0.2       0.0
 3 H  s               0.2       0.0


                      *****************************
                      * MAYER POPULATION ANALYSIS *
                      *****************************

  NA   - Mulliken gross atomic population
  ZA   - Total nuclear charge
  QA   - Mulliken gross atomic charge
  VA   - Mayer's total valence
  BVA  - Mayer's bonded valence
  FA   - Mayer's free valence

  ATOM       NA         ZA         QA         VA         BVA        FA
  0 C      5.9181     6.0000     0.0819     3.9671     3.9671    -0.0000
  1 O      8.2665     8.0000    -0.2665     2.1291     2.1291    -0.0000
  2 H      0.9077     1.0000     0.0923     0.9372     0.9372     0.0000
  3 H      0.9077     1.0000     0.0923     0.9372     0.9372    -0.0000

  Mayer bond orders larger than 0.100000
B(  0-C ,  1-O ) :   2.1014 B(  0-C ,  2-H ) :   0.9329 B(  0-C ,  3-H ) :   0.9329 


-------
TIMINGS
-------

Total SCF time: 0 days 0 hours 0 min 6 sec 

Total time                  ....       6.455 sec
Sum of individual times     ....       5.976 sec  ( 92.6%)

SCF preparation             ....       0.163 sec  (  2.5%)
Fock matrix formation       ....       5.161 sec  ( 80.0%)
  Startup                   ....       0.045 sec  (  0.9% of F)
  Split-RI-J                ....       0.167 sec  (  3.2% of F)
  Chain of spheres X        ....       3.361 sec  ( 65.1% of F)
  XC integration            ....       1.239 sec  ( 24.0% of F)
    Basis function eval.    ....       0.234 sec  ( 18.9% of XC)
    Density eval.           ....       0.081 sec  (  6.5% of XC)
    XC-Functional eval.     ....       0.320 sec  ( 25.8% of XC)
    XC-Potential eval.      ....       0.153 sec  ( 12.4% of XC)
Diagonalization             ....       0.000 sec  (  0.0%)
Density matrix formation    ....       0.156 sec  (  2.4%)
Total Energy calculation    ....       0.039 sec  (  0.6%)
Population analysis         ....       0.037 sec  (  0.6%)
Orbital Transformation      ....       0.038 sec  (  0.6%)
Orbital Orthonormalization  ....       0.000 sec  (  0.0%)
DIIS solution               ....       0.230 sec  (  3.6%)
  MO trafo                  ....       0.000 sec  (  0.0 % of DIIS)
  Orb grad                  ....       0.000 sec  (  0.0 % of DIIS)
  Energy W gradient         ....       0.000 sec  (  0.0 % of DIIS)
  DIIS error                ....       0.000 sec  (  0.2 % of DIIS)
  DIIS work                 ....       0.201 sec  ( 87.5 % of DIIS)
  Form Q                    ....       0.000 sec  (  0.0 % of DIIS)
  Form QpQm                 ....       0.000 sec  (  0.0 % of DIIS)
  Exp/Cayley                ....       0.000 sec  (  0.0 % of DIIS)
  Orb update                ....       0.000 sec  (  0.0 % of DIIS)
  Wake-sleep                ....       0.012 sec  (  5.1 % of DIIS)
SOSCF solution              ....       0.127 sec  (  2.0%)
  MO trafo                  ....       0.045 sec  ( 35.5 % of SOSCF)
  Orb grad                  ....       0.002 sec  (  1.6 % of SOSCF)
  Rot update                ....       0.056 sec  ( 44.1 % of SOSCF)
  Step                      ....       0.024 sec  ( 18.8 % of SOSCF)
Grid generation             ....       0.025 sec  (  0.4%)
Finished LeanSCF after   6.5 sec

Maximum memory used throughout the entire LEANSCF-calculation: 7.8 MB
------------------   -----------------
gCP correction             0.001774402
------------------   -----------------

-------------------------   --------------------
FINAL SINGLE POINT ENERGY      -114.508195306652
-------------------------   --------------------


------------------------------------------------------------------------------
                              ORCA PROPERTY CALCULATIONS
------------------------------------------------------------------------------

GBWName                                 ... sp_gas.gbw
Number of atoms                         ...      4
Number of basis functions               ...     74
Max core memory                         ...   1024 MB

Electric properties:
Dipole moment                           ... YES
Quadrupole moment                       ...  NO
Static polarizability (Dipole/Dipole)   ...  NO
Static polarizability (Dipole/Quad.)    ...  NO
Static polarizability (Quad./Quad.)     ...  NO
Static polarizability (Velocity)        ...  NO

Atomic electric properties:
Dipole moment                           ...  NO
Quadrupole moment                       ...  NO
Static polarizability                   ...  NO

Choice of electric origin               ... Center of mass
Position of electric origin             ...    -0.004150     0.000020    -0.000034

General magnetic properties:
Magnetizability                         ...  NO

EPR properties:
g-Tensor (aka g-matrix)                 ...  NO
Zero-Field splitting spin-orbit         ...  NO
Zero-field splitting spin-spin          ...  NO
Hyperfine couplings                     ...  NO (   0 nuclei)
Quadrupole couplings                    ...  NO (   0 nuclei)
Contact density                         ...  NO (   0 nuclei)

NMR properties:
Chemical shifts                         ...  NO (   0 nuclei)
Spin-rotation constants                 ...  NO (   0 nuclei)
Spin-spin couplings                     ...  NO (   0 nuclei,    0 pairs)

Choice of magnetic origin               ... GIAO
Position of magnetic origin             ...     0.000000     0.000000     0.000000

Properties with geometric perturbations:
SCF Hessian                             ...  NO
IR spectrum                             ...  NO
VCD spectrum                            ...  NO
X-ray spectroscopy properties:
SCF XES/XAS/RIXS spectra                ...  NO


-------------
DIPOLE MOMENT
-------------

Method             : SCF
Type of density    : Electron Density
Multiplicity       :   1
Irrep              :   0
Energy             :  -114.5099697085514947 Eh
Relativity type    : 
Basis              : AO
                                X                 Y                 Z
Electronic contribution:     -1.250543662       0.000064268      -0.000202994
Nuclear contribution   :      2.218999530      -0.000109990       0.000176088
                        -----------------------------------------
Total Dipole Moment    :      0.968455868      -0.000045722      -0.000026906
                        -----------------------------------------
Magnitude (a.u.)       :      0.968455869
Magnitude (Debye)      :      2.461619192



--------------------
Rotational spectrum 
--------------------
 
Rotational constants in cm-1:             9.424365             1.281753             1.128300 
Rotational constants in MHz :        282535.354852         38425.989201         33825.570630 

Dipole components along the rotational axes: 
x,y,z [a.u.] :    -0.968456     0.000000     0.000036 
x,y,z [Debye]:    -2.461619     0.000000     0.000091 

 

Dipole moment calculation done in   0.0 sec 

Maximum memory used throughout the entire PROP-calculation: 4.8 MB

--------------------------------
SUGGESTED CITATIONS FOR THIS RUN
--------------------------------

Below you find a list of papers that are relevant to this ORCA run
We neither can nor want to force you to cite these papers, but we appreciate if you do
You receive ORCA, which is the product of decades of hard work by many enthusiastic individuals, for free
The only thing we kindly ask in return is that you cite our papers,
We deeply appreciate it, if you show your appreciation for ORCA by not just citing the generic ORCA reference.

Please note that relegating all ORCA citations to the supporting information does *not* help us.
SI sections are not indexed - citations you put there will not count into any citation statistics
But we need these citations in order to attract the funding resources that allow us to do what we are doing

Therefore, if you are a happy ORCA user, please consider citing a few of the papers listed below in the main body of your paper

In addition to the list printed below, the program has created the file sp_gas.bibtex that contains the list in bibtex format
You can import this file easily into all common literature databanks and citation aid programs


List of essential papers. We consider these as the minimum necessary citations

  1. Neese,F.
     Software update: the ORCA program system, version 5.0
     WIRES Comput. Molec. Sci., 2022 12(1)e1606
     doi.org/10.1002/wcms.1606

List of papers to cite with high priority. The work reported in these papers was absolutely
necessary for this run to complete.
Our perspective: the developers of density functionals and basis sets usually get cited in chemistry papers
Good! But without the algorithms to do something with them, the functionals or basis sets would not do anything.
Hence, in our opinion, the algorithm design and method developments papers are equally worthy of getting cited

  1. Neese,F.
     An improvement of the resolution of the identity approximation for the formation of the Coulomb matrix
     J. Comp. Chem., 2003 24(14)1740-1747
     doi.org/10.1002/jcc.10318
  2. Neese,F.; Wennmohs,F.; Hansen,A.; Becker,U.
     Efficient, approximate and parallel Hartree-Fock and hybrid DFT calculations. A 'chain-of-spheres' algorithm for the Hartree-Fock exchange
     Chem. Phys., 2009 356(1-3)98-109
     doi.org/10.1016/j.chemphys.2008.10.036
  3. Helmich-Paris,B.; de Souza,B.; Neese,F.; Izsák,R.
     An improved chain of spheres for exchange algorithm
     J. Chem. Phys., 2021 155 104109
     doi.org/doi: 10.1063/5.0058766.
  4. Neese,F.
     The SHARK Integral Generation and Digestion System
     J. Comp. Chem., 2022  1-16
     doi.org/10.1002/jcc.26942

List of suggested additional citations. These are papers that are important in the 'surrounding' of 
of this run, or papers that preceded the highly important papers. If you like your results we are grateful for a citation.

  1. Izsak,R.; Neese,F.
     An overlap fitted chain of spheres exchange method
     J. Chem. Phys., 2011 135 144105
     doi.org/10.1063/1.3646921
  2. Izsak,R.; Hansen,A.; Neese,F.
     The resolution of identity and chain of spheres approximations for the LPNO-CCSD singles Fock term
     Molec. Phys., 2012 110 2413-2417
     doi.org/10.1080/00268976.2012.687466
  3. Neese,F.
     The ORCA program system
     WIRES Comput. Molec. Sci., 2012 2(1)73-78
     doi.org/10.1002/wcms.81
  4. Izsak,R.; Neese,F.; Klopper,W.
     Robust fitting techniques in the chain of spheres approximation to the Fock exchange: The role of the complementary space
     J. Chem. Phys., 2013 139 
     doi.org/10.1063/1.4819264
  5. Neese,F.
     Software update: the ORCA program system, version 4.0
     WIRES Comput. Molec. Sci., 2018 8(1)1-6
     doi.org/10.1002/wcms.1327
  6. Neese,F.; Wennmohs,F.; Becker,U.; Riplinger,C.
     The ORCA quantum chemistry program package
     J. Chem. Phys., 2020 152 Art. No. L224108
     doi.org/10.1063/5.0004608

List of optional additional citations

  1. Neese,F.
     Approximate second-order SCF convergence for spin unrestricted wavefunctions
     Chem. Phys. Lett., 2000 325(1-3)93-98
     doi.org/10.1016/s0009-2614(00)00662-x

Timings for individual modules:

Sum of individual times          ...        7.627 sec (=   0.127 min)
Startup calculation              ...        0.849 sec (=   0.014 min)  11.1 %
SCF iterations                   ...        6.696 sec (=   0.112 min)  87.8 %
Property calculations            ...        0.082 sec (=   0.001 min)   1.1 %
                             ****ORCA TERMINATED NORMALLY****
TOTAL RUN TIME: 0 days 0 hours 0 minutes 8 seconds 647 msec
