20
 energy: -36.151696618490 gnorm: 0.053357070621 xtb: 6.7.1 (edcfbbe)
C            0.88037057599568        1.37915002932972       -0.64508996868664
C            1.59475613349594        0.16824201960842       -0.08106003785865
H            2.56544217517302        0.06169796906257       -0.58740757463119
C            0.76418233773984       -1.10690106040055       -0.30629602354325
H            1.19850812942539       -1.93133675365245        0.27845319084868
C           -0.68778939249198       -0.90068485909811        0.14102980518278
H           -1.29359825229845       -1.74493884987857       -0.20538317300828
C           -1.26736222107919        0.38895104377634       -0.44954218752953
H           -1.34156742021381        0.32239825353932       -1.54375288235496
O           -0.44255631069013        1.50974078395070       -0.09542941444582
O           -2.55481010922217        0.64280365400612        0.04714869581025
O           -0.79371220342706       -0.86963381516673        1.56781237849568
O            0.72126824055537       -1.43807628437840       -1.69789889955493
O            1.78359591623507        0.39506625192138        1.32964206129037
H            0.82949528266410        1.29724172057594       -1.73987404006923
H            1.41554688572759        2.29512396218669       -0.38338455233492
H           -2.53429461773680        0.42476987591905        0.99335113331062
H           -0.09320176925884       -0.27396628523274        1.88504371047728
H            1.62822922942173       -1.60881488472610       -1.98644992494714
H            2.29836237574365       -0.34527974577970        1.67981970079453
20
 energy: -36.154413540670 gnorm: 0.027921161454 xtb: 6.7.1 (edcfbbe)
C            0.86983322300506        1.37920585236017       -0.63787389677468
C            1.59315925145205        0.16492946551586       -0.06916176683802
H            2.56821445698607        0.07638223200190       -0.56752061229235
C            0.76513247655817       -1.10940768590260       -0.32160704493650
H            1.18647790019661       -1.94605796096578        0.25516143076047
C           -0.68069368501065       -0.90087308014201        0.14478954750167
H           -1.29019828838939       -1.74585269626217       -0.19000539507237
C           -1.26204385314165        0.39008299169378       -0.44896870451087
H           -1.33450768596998        0.31218113480119       -1.54253609599761
O           -0.44328067371624        1.50573262784742       -0.10478847436675
O           -2.54062783076700        0.63357107422723        0.03695612859834
O           -0.77988785189559       -0.85898064198092        1.55852773713196
O            0.72278099038323       -1.43606887936203       -1.70126985915397
O            1.78276644554843        0.37115398703800        1.33018367786493
H            0.81596565329754        1.29930887553564       -1.73143180665235
H            1.38553102162058        2.29789249788169       -0.35515375625654
H           -2.52872496070230        0.43942952222760        0.99100033910459
H           -0.11048498641548       -0.22391098723686        1.87550074252503
H            1.62315755186578       -1.63333320678010       -1.99900725102461
H            2.32829583085371       -0.34983209693512        1.67793705763526
20
 energy: -36.155454340892 gnorm: 0.008432538235 xtb: 6.7.1 (edcfbbe)
C            0.85873139107216        1.37693965133137       -0.62179910456451
C            1.59603729174008        0.15805142476797       -0.05674041076242
H            2.57056402696511        0.08908424917039       -0.55979103334631
C            0.76796063472911       -1.11495423000112       -0.33696348226863
H            1.18483686188848       -1.96097754822951        0.23261448435426
C           -0.67409988097749       -0.90243756529706        0.15038995683341
H           -1.29080171335907       -1.74663989080462       -0.17267227002874
C           -1.26388076601663        0.38832012170911       -0.45034662333555
H           -1.32752828304502        0.29954338081588       -1.54594824190082
O           -0.44811761256988        1.49406998622281       -0.10705546386298
O           -2.53527820996620        0.62275685087023        0.02102993069209
O           -0.75692915361707       -0.85182164167060        1.55084628419954
O            0.71894019771286       -1.42227396035641       -1.70708373415496
O            1.77825061499408        0.35117413679618        1.32998970906306
H            0.81917201334128        1.29568402325160       -1.71513265313578
H            1.36309458193043        2.29489648028478       -0.32083871584278
H           -2.53660533187758        0.46219082277097        0.98441127683563
H           -0.12549429603795       -0.16959704278375        1.86395204656510
H            1.60780924967938       -1.65897012714129       -2.01897698264373
H            2.36420336917290       -0.33948609614401        1.68084702454974
20
 energy: -36.155594127988 gnorm: 0.006127351621 xtb: 6.7.1 (edcfbbe)
C            0.85716545436119        1.37876171965913       -0.61497542503591
C            1.59648396753934        0.15706092519651       -0.05363087067390
H            2.56722776736127        0.08970003268046       -0.56445780225226
C            0.76771973062770       -1.11629687655562       -0.33932474348144
H            1.18725723351947       -1.96337620832262        0.22757652724306
C           -0.67382954051297       -0.90563431290290        0.15517927398974
H           -1.29200090164345       -1.75098445641121       -0.16349074049712
C           -1.26365245375020        0.38418862781360       -0.45193202569253
H           -1.31913624924281        0.29156748817489       -1.54849868851382
O           -0.45107661022166        1.49087441329093       -0.10386691916347
O           -2.53853098501508        0.61705534016812        0.00952299491686
O           -0.75147485880843       -0.84746812671508        1.55452500014796
O            0.71370936663789       -1.41314071252514       -1.71059235957264
O            1.78219312051300        0.34681349599029        1.33155484152139
H            0.82496417027246        1.30114528887558       -1.70939907973678
H            1.36216086789819        2.29491097629039       -0.30983576211918
H           -2.54683287570485        0.47170067999799        0.97508997557535
H           -0.12580696301135       -0.16051629389207        1.86212359998616
H            1.59649842104323       -1.66634055062081       -2.02628410879037
H            2.37782632389601       -0.33446842462954        1.68144830939453
20
 energy: -36.155736357304 gnorm: 0.004497507970 xtb: 6.7.1 (edcfbbe)
C            0.85473547429331        1.38164315145563       -0.60279875270163
C            1.59766899333153        0.15585047452763       -0.05051132148438
H            2.56214290207847        0.08903988526118       -0.57374085711958
C            0.76710431570607       -1.11799821384246       -0.34047703274726
H            1.19315177403725       -1.96733250686111        0.21835479341114
C           -0.67365203919812       -0.91092060425955        0.16286812292434
H           -1.29237689305140       -1.75867763424904       -0.14871108247802
C           -1.26331234512171        0.37599410481986       -0.45492026186986
H           -1.30253714551982        0.27973487020712       -1.55223852691522
O           -0.45664733315509        1.48528679739259       -0.09609664072934
O           -2.54662722478544        0.60792546491952       -0.01298955765615
O           -0.74366655188300       -0.84413717779549        1.56196186420895
O            0.70450309484869       -1.39683164435502       -1.71508974080214
O            1.79206686802172        0.34056422634804        1.33313316088086
H            0.83153601210105        1.31418437262991       -1.69889213141680
H            1.36007649831792        2.29505161215413       -0.28942844597572
H           -2.56655153609451        0.49197991861922        0.95551119341319
H           -0.12818246822825       -0.14859167383447        1.86070686213895
H            1.57548660825686       -1.68294036605914       -2.03436975373920
H            2.40594598180343       -0.32427203151562        1.67846010590345
20
 energy: -36.155791677274 gnorm: 0.003817850414 xtb: 6.7.1 (edcfbbe)
C            0.85317312808560        1.38360415109057       -0.59462931936625
C            1.59799062628758        0.15555946082514       -0.04993833368381
H            2.55921689093567        0.08937407741880       -0.57904312671206
C            0.76637918920723       -1.11826204001881       -0.34096663114174
H            1.19552983650790       -1.96895736749494        0.21222417442439
C           -0.67340103682154       -0.91380173466967        0.16648205261541
H           -1.29167028734361       -1.76313492665409       -0.14097661047825
C           -1.26216942968097        0.37086191403689       -0.45626888807450
H           -1.29084563761661        0.27418089408372       -1.55333900629676
O           -0.45964522200978        1.48154806087397       -0.08950539215011
O           -2.55103335295351        0.60184597274355       -0.02788893912495
O           -0.74031058190455       -0.84374963014978        1.56576072730635
O            0.69962271866431       -1.38956482157682       -1.71734258622176
O            1.79941461154370        0.33684179828281        1.33312689995960
H            0.83211357452701        1.32487073467177       -1.69124490012956
H            1.35691168958410        2.29553291906455       -0.27359972228782
H           -2.57794681514691        0.50544073882959        0.94166314392958
H           -0.13260358269337       -0.14029434731097        1.86039827984231
H            1.56227335695949       -1.69914972940901       -2.03638449421958
H            2.42786530962726       -0.31719309907434        1.67220466905510
20
 energy: -36.155829645057 gnorm: 0.002167647716 xtb: 6.7.1 (edcfbbe)
C            0.85137006820188        1.38569970562420       -0.58721204837388
C            1.59792038637299        0.15600303885269       -0.05097364297149
H            2.55671830825945        0.09084907797609       -0.58389617562566
C            0.76592479916893       -1.11785566270330       -0.34079883732305
H            1.19687512173338       -1.96901728999845        0.20839274845427
C           -0.67297270953356       -0.91525480714672        0.16825016109287
H           -1.29039440465532       -1.76592604816145       -0.13614099019973
C           -1.26098232663917        0.36697420688228       -0.45707378202235
H           -1.28027036561956        0.27144600654901       -1.55361353393897
O           -0.46241658035741        1.47829432897355       -0.08245168835472
O           -2.55452540225824        0.59647956742062       -0.04119562264799
O           -0.73859972558288       -0.84421802175134        1.56795915039350
O            0.69722220503789       -1.38664336858664       -1.71836797339426
O            1.80677046393413        0.33331658413555        1.33215515840177
H            0.82961217763548        1.33652398289099       -1.68388697571990
H            1.35223294454447        2.29628040414534       -0.25756220990344
H           -2.58725948640968        0.51827570247638        0.92864560340128
H           -0.13675061025990       -0.13527447886617        1.86076591327113
H            1.55153505937528       -1.71883874485801       -2.03460672745030
H            2.44885506281083       -0.31156115829168        1.66234347015648
20
 energy: -36.155841834883 gnorm: 0.001253483657 xtb: 6.7.1 (edcfbbe)
C            0.84995865738988        1.38747034496546       -0.58309286225654
C            1.59762765869823        0.15689927555038       -0.05221660405841
H            2.55525012889546        0.09325993919332       -0.58692036380996
C            0.76596306954381       -1.11712524253275       -0.34071790090333
H            1.19702134999505       -1.96779420543290        0.20821681103228
C           -0.67268475491043       -0.91540605521834        0.16823069558502
H           -1.28938354182567       -1.76677924623803       -0.13537442264519
C           -1.26051420009748        0.36572265459730       -0.45731916491582
H           -1.27515548324922        0.27124997309942       -1.55377159468234
O           -0.46436064766769        1.47700901991768       -0.07863690651781
O           -2.55602082727056        0.59361103523072       -0.04787359642497
O           -0.73818658773918       -0.84504825520301        1.56821278251723
O            0.69734160401481       -1.38744043646352       -1.71851978363510
O            1.81092593465090        0.33118825298539        1.33123194409478
H            0.82734498168723        1.34382870287524       -1.67966692441179
H            1.34871487455557        2.29713324564033       -0.24807295466714
H           -2.59167608350045        0.52587591403260        0.92221707248687
H           -0.13796376821100       -0.13482162069647        1.86150782478176
H            1.54673690975812       -1.73366684207201       -2.03157597349475
H            2.45992571104161       -0.30961342866788        1.65487391917077
20
 energy: -36.155846730611 gnorm: 0.000884402786 xtb: 6.7.1 (edcfbbe)
C            0.84856405044439        1.38937227351433       -0.58058889676119
C            1.59705369045349        0.15810139121013       -0.05346655033656
H            2.55380098957394        0.09635657364539       -0.58964199900702
C            0.76626970285325       -1.11637210385025       -0.34063337532098
H            1.19692789412948       -1.96570756697527        0.21056448720244
C           -0.67270516464587       -0.91497797895436        0.16726536908114
H           -1.28887560426036       -1.76649618462023       -0.13719071615521
C           -1.26071303838066        0.36611365740349       -0.45737864928301
H           -1.27318276440392        0.27245299572942       -1.55413110047830
O           -0.46616532641446        1.47706335220106       -0.07659221389471
O           -2.55690561681287        0.59236129469712       -0.05111749486606
O           -0.73863431402380       -0.84633184450888        1.56745697913119
O            0.69919187848262       -1.38999200242405       -1.71819371913226
O            1.81354457916393        0.32983361711251        1.33034656286579
H            0.82574327193807        1.34914844995499       -1.67713025011155
H            1.34605976764119        2.29817219292248       -0.24210195395613
H           -2.59418069692501        0.53110864013345        0.91909891329156
H           -0.13646339889049       -0.13846822314621        1.86266117554548
H            1.54507304559637       -1.74694097348470       -2.02729712573327
H            2.46646204023973       -0.30924453499749        1.64880255516422
20
 energy: -36.155844074027 gnorm: 0.001588711083 xtb: 6.7.1 (edcfbbe)
C            0.84716296392284        1.39128428477727       -0.57807334336591
C            1.59647752802295        0.15930957759989       -0.05471840721545
H            2.55234315353072        0.09946622990047       -0.59237767635515
C            0.76657721352769       -1.11561546267850       -0.34055043440136
H            1.19683610860388       -1.96361120875350        0.21292129684167
C           -0.67272709074469       -0.91455063432860        0.16629716621756
H           -1.28836821870418       -1.76621298000301       -0.13901626062970
C           -1.26091427669112        0.36650619076545       -0.45743998227423
H           -1.27120381771339        0.27365772618346       -1.55449423373933
O           -0.46797947623800        1.47711979439440       -0.07454088543280
O           -2.55779786908407        0.59110636397300       -0.05437571064657
O           -0.73908225651440       -0.84762381455528        1.56669889014882
O            0.70104973587304       -1.39254463063515       -1.71786883181432
O            1.81617230262237        0.32847534296700        1.32945952696566
H            0.82414242392414        1.35449062461767       -1.67458318049156
H            1.34339714429601        2.29921710724380       -0.23610727794304
H           -2.59669991667229        0.53636831521451        0.91596835981894
H           -0.13494528449541       -0.14214064973378        1.86381947394541
H            1.54339770546653       -1.76028126124815       -2.02300019382480
H            2.47302691282636       -0.30886789013799        1.64271370144172
20
 energy: -36.155848968195 gnorm: 0.000580540517 xtb: 6.7.1 (edcfbbe)
C            0.84812111988455        1.39012215016622       -0.58059175663881
C            1.59682467378123        0.15868356240687       -0.05355835861938
H            2.55330245848054        0.09753605922772       -0.59032897824357
C            0.76642934123372       -1.11604623022196       -0.34077978655316
H            1.19680335305950       -1.96465319181846        0.21220350175485
C           -0.67294415554883       -0.91475021171788        0.16656864616405
H           -1.28915281927704       -1.76588517850343       -0.13914010334554
C           -1.26115680712028        0.36703815399362       -0.45742784615037
H           -1.27432538769305        0.27326701832265       -1.55443843488657
O           -0.46669036420860        1.47790018002451       -0.07704830587599
O           -2.55709864719378        0.59280479422463       -0.05038575912442
O           -0.73906160072127       -0.84722660308723        1.56674695418154
O            0.70055865887158       -1.39077925489357       -1.71804011370253
O            1.81340933007852        0.32998175673414        1.33024528328224
H            0.82601045001549        1.34968541000264       -1.67724497497225
H            1.34589355149175        2.29875463226684       -0.24218910577554
H           -2.59418090151689        0.53167191207367        0.91992861352954
H           -0.13391176567001       -0.14213087219029        1.86313393041925
H            1.54576700106383       -1.75102859175593       -2.02536310054730
H            2.46626749674801       -0.30939246969183        1.64844169234954
20
 energy: -36.155849902399 gnorm: 0.000368448472 xtb: 6.7.1 (edcfbbe)
C            0.84813243974671        1.39022989510094       -0.58107697316587
C            1.59670371218187        0.15886848698918       -0.05330575932013
H            2.55321802898109        0.09753977306715       -0.59000976737137
C            0.76641282356861       -1.11599710600135       -0.34084963928013
H            1.19680809191591       -1.96444100377880        0.21245397384484
C           -0.67306011776404       -0.91465478011806        0.16631661374398
H           -1.28943860098704       -1.76548438701988       -0.13992347366392
C           -1.26131867755149        0.36743495397256       -0.45753276561203
H           -1.27527940490571        0.27351611062260       -1.55452229051908
O           -0.46664190757629        1.47840927198835       -0.07768212816309
O           -2.55713685954792        0.59331731930770       -0.04947597866314
O           -0.73934882188806       -0.84740051455862        1.56650351291868
O            0.70109962607469       -1.39046029203560       -1.71808607802004
O            1.81263038299717        0.33041753067898        1.33045760243795
H            0.82641305375605        1.34906994452872       -1.67779358011994
H            1.34624614275904        2.29902561211027       -0.24337445437407
H           -2.59364932502542        0.53110032868368        0.92078919511848
H           -0.13197026920677       -0.14432480272951        1.86322992128037
H            1.54603515386699       -1.75149415458743       -2.02495307564266
H            2.46500951436359       -0.30911916065796        1.64956714181673
20
 energy: -36.155850717710 gnorm: 0.000586743550 xtb: 6.7.1 (edcfbbe)
C            0.84792719362517        1.39065661282049       -0.58113815674527
C            1.59659776399418        0.15943933440503       -0.05280048690253
H            2.55322956956839        0.09826756879254       -0.58931590581964
C            0.76644708433529       -1.11555084078405       -0.34121235510726
H            1.19673918448977       -1.96400298757853        0.21217718753552
C           -0.67310702111950       -0.91453631189083        0.16582224766169
H           -1.28957626485717       -1.76512679544825       -0.14101049216909
C           -1.26151514795980        0.36779830674209       -0.45780307438736
H           -1.27608233954976        0.27378851394716       -1.55475760353338
O           -0.46694460220060        1.47898327881890       -0.07834034903137
O           -2.55728506182845        0.59350247938677       -0.04896675737635
O           -0.73943485624747       -0.84788320119610        1.56599454394297
O            0.70177150742683       -1.38919213992500       -1.71852369309998
O            1.81149064049513        0.33077338206009        1.33099141122544
H            0.82690929796040        1.34900808233836       -1.67790990823405
H            1.34607464098644        2.29961876780719       -0.24371820590381
H           -2.59307939092480        0.53146019976644        0.92141600024252
H           -0.12875454965206       -0.14743820374677        1.86330478348214
H            1.54493664636551       -1.75603537714923       -2.02413489319412
H            2.46452069085149       -0.30797764360335        1.65065770465949
20
 energy: -36.155851074134 gnorm: 0.000355206827 xtb: 6.7.1 (edcfbbe)
C            0.84796925139707        1.39071152346834       -0.58145593028622
C            1.59636012982680        0.15967017616536       -0.05251544418135
H            2.55333736008449        0.09852306865033       -0.58834207279288
C            0.76646543029479       -1.11542104163691       -0.34134888091943
H            1.19684266667165       -1.96387409188762        0.21183770973949
C           -0.67308992492690       -0.91436623073965        0.16552232715770
H           -1.28961742331766       -1.76487939319689       -0.14146374969269
C           -1.26157376804756        0.36797567785689       -0.45792733022720
H           -1.27661259340496        0.27398493899645       -1.55484263184069
O           -0.46696899669917        1.47927821060247       -0.07887527004986
O           -2.55717787428788        0.59375969035327       -0.04844251216480
O           -0.73967846938703       -0.84781603943286        1.56574815868027
O            0.70230997825624       -1.38856696935535       -1.71883813840545
O            1.81035256089182        0.33098723212160        1.33146474106227
H            0.82711560784469        1.34857164895259       -1.67819220925848
H            1.34602782673857        2.29982891409342       -0.24436170037736
H           -2.59229949562798        0.53135038111282        0.92186657084727
H           -0.12670979018324       -0.14944191465314        1.86339707991142
H            1.54407913660530       -1.75751966154546       -2.02386838480460
H            2.46373337302992       -0.30720309436274        1.65136966484814
20
 energy: -36.155851362662 gnorm: 0.000203837673 xtb: 6.7.1 (edcfbbe)
C            0.84804097254689        1.39069250050955       -0.58143436632920
C            1.59634875103042        0.15975999939412       -0.05224427116507
H            2.55361334079188        0.09870395525595       -0.58752811935406
C            0.76654777995503       -1.11525825690850       -0.34153258011221
H            1.19686303923936       -1.96411102723867        0.21097150740503
C           -0.67294723993009       -0.91429817979072        0.16546263158483
H           -1.28943899026670       -1.76488711802667       -0.14135027213163
C           -1.26154158061598        0.36789867045950       -0.45795852390121
H           -1.27655250336375        0.27390900185112       -1.55486794411751
O           -0.46696071849759        1.47923151786498       -0.07894152283812
O           -2.55709911849174        0.59362617429555       -0.04845327546897
O           -0.73956426481047       -0.84770397666317        1.56569243110679
O            0.70220759478644       -1.38749186682963       -1.71926420691051
O            1.80972404557650        0.33098299892550        1.33190981207035
H            0.82718495744904        1.34840279955337       -1.67814766916384
H            1.34586340760274        2.29992019586792       -0.24435196523227
H           -2.59201997424806        0.53135444019172        0.92186779750457
H           -0.12643860263890       -0.14959409056605        1.86331278352936
H            1.54305915723527       -1.75920929536732       -2.02416351604059
H            2.46397493240869       -0.30637541721562        1.65175326680983
20
 energy: -36.155851359998 gnorm: 0.000408749427 xtb: 6.7.1 (edcfbbe)
C            0.84811269369671        1.39067347755077       -0.58141280237217
C            1.59633737223403        0.15984982262288       -0.05197309814880
H            2.55388932149927        0.09888484186156       -0.58671416591525
C            0.76663012961527       -1.11509547218010       -0.34171627930499
H            1.19688341180708       -1.96434796258972        0.21010530507057
C           -0.67280455493328       -0.91423012884180        0.16540293601197
H           -1.28926055721574       -1.76489484285645       -0.14123679457057
C           -1.26150939318440        0.36782166306212       -0.45798971757523
H           -1.27649241332254        0.27383306470579       -1.55489325639433
O           -0.46695244029601        1.47918482512750       -0.07900777562638
O           -2.55702036269560        0.59349265823784       -0.04846403877314
O           -0.73945006023391       -0.84759191389348        1.56563670353330
O            0.70210521131664       -1.38641676430391       -1.71969027541557
O            1.80909553026118        0.33097876572941        1.33235488307843
H            0.82725430705340        1.34823395015415       -1.67810312906919
H            1.34569898846691        2.30001147764243       -0.24434223008718
H           -2.59174045286815        0.53135849927062        0.92186902416186
H           -0.12616741509456       -0.14974626647896        1.86322848714730
H            1.54203917786524       -1.76089892918919       -2.02445864727658
H            2.46421649178745       -0.30554774006850        1.65213686877152
20
 energy: -36.155851510693 gnorm: 0.000163177877 xtb: 6.7.1 (edcfbbe)
C            0.84819244635282        1.39057775025506       -0.58146728111914
C            1.59645883013913        0.15979186621306       -0.05199608499498
H            2.55406557193871        0.09885611422373       -0.58665295385072
C            0.76663602168333       -1.11500842702679       -0.34176719443250
H            1.19687377712307       -1.96421092514636        0.21013366396396
C           -0.67284985653092       -0.91434817995725        0.16537178125815
H           -1.28921929777076       -1.76505253672989       -0.14138726679496
C           -1.26149626306174        0.36785743285280       -0.45790058752614
H           -1.27661527141171        0.27391942747990       -1.55484875476258
O           -0.46688158401900        1.47919262386330       -0.07904862714714
O           -2.55690221971145        0.59352814885795       -0.04826241203659
O           -0.73941329159347       -0.84790890743415        1.56560890441321
O            0.70213823879683       -1.38650388214212       -1.71968658722630
O            1.80913072817043        0.33091972833653        1.33237273563835
H            0.82727299173450        1.34796373434107       -1.67814433760814
H            1.34583922988463        2.29990293042540       -0.24451276526663
H           -2.59169357328920        0.53116817179719        0.92213182681483
H           -0.12691020764190       -0.14906726522266        1.86321843921410
H            1.54204000367278       -1.76043782229846       -2.02451004027765
H            2.46419871129292       -0.30558695712536        1.65207953898646
20
 energy: -36.155851561097 gnorm: 0.000103184060 xtb: 6.7.1 (edcfbbe)
C            0.84824999832670        1.39056056846637       -0.58153546156034
C            1.59645682222758        0.15975596000076       -0.05201443120580
H            2.55405848363792        0.09879821605183       -0.58666251641022
C            0.76668375190862       -1.11506229585943       -0.34175254568222
H            1.19689706594189       -1.96423940546808        0.21023113334494
C           -0.67284041307600       -0.91431163920432        0.16531439974791
H           -1.28922069088413       -1.76493825030887       -0.14161646006450
C           -1.26149018346871        0.36798475292076       -0.45782933710922
H           -1.27670392930839        0.27411948136128       -1.55479413590459
O           -0.46677027394714        1.47923497003750       -0.07896121877254
O           -2.55685541655929        0.59368790053193       -0.04805883368296
O           -0.73952086667506       -0.84804159971695        1.56554441323279
O            0.70223837918302       -1.38658384918078       -1.71966300255053
O            1.80914287314860        0.33098157278681        1.33234905546793
H            0.82721706074988        1.34781675091015       -1.67820711965543
H            1.34597676981945        2.29990464347039       -0.24475021465007
H           -2.59173702048004        0.53074689272616        0.92226822026711
H           -0.12733915426936       -0.14905714220314        1.86326245474112
H            1.54211152046939       -1.76040407420258       -2.02444636156231
H            2.46431020901406       -0.30540042755686        1.65205395925451
