      -----------------------------------------------------------      
     |                   =====================                   |     
     |                           x T B                           |     
     |                   =====================                   |     
     |                         S. Grimme                         |     
     |          Mulliken Center for Theoretical Chemistry        |     
     |                    University of Bonn                     |     
      -----------------------------------------------------------      

   * xtb version 6.7.1 (edcfbbe) compiled by 'albert@albert-system' on 2024-07-22

   xtb is free software: you can redistribute it and/or modify it under
   the terms of the GNU Lesser General Public License as published by
   the Free Software Foundation, either version 3 of the License, or
   (at your option) any later version.
   
   xtb is distributed in the hope that it will be useful,
   but WITHOUT ANY WARRANTY; without even the implied warranty of
   MERCHANTABILITY or FITNESS FOR A PARTICULAR PURPOSE.  See the
   GNU Lesser General Public License for more details.
   
   Cite this work as:
   * C. Bannwarth, E. Caldeweyher, S. Ehlert, A. Hansen, P. Pracht,
     J. Seibert, S. Spicher, S. Grimme, WIREs Comput. Mol. Sci., 2020, 11,
     e01493. DOI: 10.1002/wcms.1493
   
   for GFN2-xTB:
   * C. Bannwarth, S. Ehlert and S. Grimme., J. Chem. Theory Comput., 2019,
     15, 1652-1671. DOI: 10.1021/acs.jctc.8b01176
   for GFN1-xTB:
   * S. Grimme, C. Bannwarth, P. Shushkov, J. Chem. Theory Comput., 2017,
     13, 1989-2009. DOI: 10.1021/acs.jctc.7b00118
   for GFN0-xTB:
   * P. Pracht, E. Caldeweyher, S. Ehlert, S. Grimme, ChemRxiv, 2019, preprint.
     DOI: 10.26434/chemrxiv.8326202.v1
   for GFN-FF:
   * S. Spicher and S. Grimme, Angew. Chem. Int. Ed., 2020, 59, 15665-15673.
     DOI: 10.1002/anie.202004239
   
   for ALPB and GBSA implicit solvation:
   * S. Ehlert, M. Stahn, S. Spicher, S. Grimme, J. Chem. Theory Comput.,
     2021, 17, 4250-4261. DOI: 10.1021/acs.jctc.1c00471
   
   for ddCOSMO and CPCM-X implicit solvation:
   * M. Stahn, S. Ehlert, S. Grimme, J. Phys. Chem. A,
     2023, XX, XXXX-XXXX. DOI: 10.1021/acs.jpca.3c04382
   
   for DFT-D4:
   * E. Caldeweyher, C. Bannwarth and S. Grimme, J. Chem. Phys., 2017,
     147, 034112. DOI: 10.1063/1.4993215
   * E. Caldeweyher, S. Ehlert, A. Hansen, H. Neugebauer, S. Spicher,
     C. Bannwarth and S. Grimme, J. Chem. Phys., 2019, 150, 154122.
     DOI: 10.1063/1.5090222
   * E. Caldeweyher, J.-M. Mewes, S. Ehlert and S. Grimme, Phys. Chem. Chem. Phys.
     2020, 22, 8499-8512. DOI: 10.1039/D0CP00502A
   
   for sTDA-xTB:
   * S. Grimme and C. Bannwarth, J. Chem. Phys., 2016, 145, 054103.
     DOI: 10.1063/1.4959605
   
   in the mass-spec context:
   * V. Asgeirsson, C. Bauer and S. Grimme, Chem. Sci., 2017, 8, 4879.
     DOI: 10.1039/c7sc00601b
   * J. Koopman and S. Grimme, ACS Omega 2019, 4, 12, 15120-15133.
     DOI: 10.1021/acsomega.9b02011
   
   for metadynamics refer to:
   * S. Grimme, J. Chem. Theory Comput., 2019, 155, 2847-2862
     DOI: 10.1021/acs.jctc.9b00143
   
   for SPH calculations refer to:
   * S. Spicher and S. Grimme, J. Chem. Theory Comput., 2021, 17, 1701-1714
     DOI: 10.1021/acs.jctc.0c01306
   
   for ONIOM refer to:
   * C. Plett, A. Katbashev, S. Ehlert, S. Grimme, M. Bursch,
     Phys. Chem. Chem. Phys., 2023, 25, 17860-17868. DOI: 10.1039/D3CP02178E
   
   for DIPRO refer to:
   * J. Kohn, N. Gildemeister, S. Grimme, D. Fazzi, A. Hansen,
     J. Chem. Phys., 2023, just accepted.
   
   for PTB refer to:
   * S. Grimme, M. Mueller, A. Hansen, J. Chem. Phys., 2023, 158, 124111.
     DOI: 10.1063/5.0137838
   
   with help from (in alphabetical order)
   P. Atkinson, C. Bannwarth, F. Bohle, G. Brandenburg, E. Caldeweyher
   M. Checinski, S. Dohm, S. Ehlert, S. Ehrlich, I. Gerasimov, C. Hölzer
   A. Katbashev, J. Kohn, J. Koopman, C. Lavigne, S. Lehtola, F. März, M. Müller,
   F. Musil, H. Neugebauer, J. Pisarek, C. Plett, P. Pracht, F. Pultar,
   J. Seibert, P. Shushkov, S. Spicher, M. Stahn, M. Steiner, T. Strunk,
   J. Stückrath, T. Rose, and J. Unsleber
   
 * started run on 2025/04/03 at 19:42:33.036     
   ID    Z sym.   atoms
    1    6 C      1, 2, 4, 6, 8
    2    1 H      3, 5, 7, 9, 15-20
    3    8 O      10-14

           -------------------------------------------------
          |                Calculation Setup                |
           -------------------------------------------------

          program call               : /srv/scratch/z5358697/.xtb/bin/xtb solv.coord --gfn2 --sp --chrg 0 --norestart --parallel 1 --alpb water reference -I xtb_sp-xcontrol-inp
          hostname                   : k155
          coordinate file            : solv.coord
          omp threads                :                     1


           -------------------------------------------------
          |                 G F N 2 - x T B                 |
           -------------------------------------------------

        Reference                      10.1021/acs.jctc.8b01176
      * Hamiltonian:
        H0-scaling (s, p, d)           1.850000    2.230000    2.230000
        zeta-weighting                 0.500000
      * Dispersion:
        s8                             2.700000
        a1                             0.520000
        a2                             5.000000
        s9                             5.000000
      * Repulsion:
        kExp                           1.500000    1.000000
        rExp                           1.000000
      * Coulomb:
        alpha                          2.000000
        third order                    shell-resolved
        anisotropic                    true
        a3                             3.000000
        a5                             4.000000
        cn-shift                       1.200000
        cn-exp                         4.000000
        max-rad                        5.000000

      * Solvation model:               ALPB
        Solvent                        water
        Parameter file                 internal GFN2-xTB/ALPB
        Dielectric constant                8.0200E+01
        Reference state                gsolv=reference [X=1]
        Free energy shift                  2.8945E-03 Eh       1.8164E+00 kcal/mol
        Temperature                        2.9815E+02 K
        Density                            1.0000E+00 kg/L
        Solvent mass                       1.8000E+01 g/mol
        Interaction kernel             P16
        Born radius scaling (c1)           1.4744E+00
        Born radii integrator          GBOBC
        Born offset                        0.0000E+00 a0       0.0000E+00 AA
        H-bond correction              true
        Ion screening                  false
        Surface tension                    1.0000E-05 Eh       1.5569E+01 dyn/cm
        Grid points                               974 per atom

          ...................................................
          :                      SETUP                      :
          :.................................................:
          :  # basis functions                  50          :
          :  # atomic orbitals                  50          :
          :  # shells                           30          :
          :  # electrons                        60          :
          :  max. iterations                   250          :
          :  Hamiltonian                  GFN2-xTB          :
          :  restarted?                      false          :
          :  GBSA solvation                   true          :
          :  PC potential                    false          :
          :  electronic temp.          300.0000000     K    :
          :  accuracy                    1.0000000          :
          :  -> integral cutoff          0.2500000E+02      :
          :  -> integral neglect         0.1000000E-07      :
          :  -> SCF convergence          0.1000000E-05 Eh   :
          :  -> wf. convergence          0.1000000E-03 e    :
          :  Broyden damping             0.4000000          :
          :  net charge                          0          :
          :  unpaired electrons                  0          :
          ...................................................

 iter      E             dE          RMSdq      gap      omega  full diag
   1    -36.3786966 -0.363787E+02  0.486E+00   10.58       0.0  T
   2    -36.4059446 -0.272479E-01  0.264E+00   10.40       1.0  T
   3    -36.4077654 -0.182080E-02  0.585E-01   10.46       1.0  T
   4    -36.4081075 -0.342094E-03  0.182E-01   10.46       1.0  T
   5    -36.4081567 -0.492073E-04  0.704E-02   10.48       1.0  T
   6    -36.4081718 -0.151538E-04  0.226E-02   10.48       1.0  T
   7    -36.4081727 -0.839823E-06  0.644E-03   10.48       3.5  T
   8    -36.4081729 -0.192326E-06  0.255E-03   10.48       8.8  T
   9    -36.4081729 -0.135234E-07  0.923E-04   10.48      24.2  T
  10    -36.4081729 -0.296783E-08  0.331E-04   10.48      67.6  T

   *** convergence criteria satisfied after 10 iterations ***

         #    Occupation            Energy/Eh            Energy/eV
      -------------------------------------------------------------
         1        2.0000           -0.7256723             -19.7465
       ...           ...                  ...                  ...
        24        2.0000           -0.4600474             -12.5185
        25        2.0000           -0.4573768             -12.4459
        26        2.0000           -0.4505551             -12.2602
        27        2.0000           -0.4441820             -12.0868
        28        2.0000           -0.4255094             -11.5787
        29        2.0000           -0.4220394             -11.4843
        30        2.0000           -0.4056921             -11.0394 (HOMO)
        31                         -0.0205165              -0.5583 (LUMO)
        32                          0.0209162               0.5692
        33                          0.0225226               0.6129
        34                          0.0454050               1.2355
        35                          0.0585855               1.5942
       ...                                ...                  ...
        50                          0.2944183               8.0115
      -------------------------------------------------------------
                  HL-Gap            0.3851756 Eh           10.4812 eV
             Fermi-level           -0.2131043 Eh           -5.7989 eV

 SCC (total)                   0 d,  0 h,  0 min,  0.015 sec
 SCC setup                      ...        0 min,  0.001 sec (  8.126%)
 Dispersion                     ...        0 min,  0.000 sec (  0.645%)
 classical contributions        ...        0 min,  0.000 sec (  0.134%)
 integral evaluation            ...        0 min,  0.002 sec ( 12.961%)
 iterations                     ...        0 min,  0.006 sec ( 42.623%)
 molecular gradient             ...        0 min,  0.005 sec ( 34.613%)
 printout                       ...        0 min,  0.000 sec (  0.833%)

         :::::::::::::::::::::::::::::::::::::::::::::::::::::
         ::                     SUMMARY                     ::
         :::::::::::::::::::::::::::::::::::::::::::::::::::::
         :: total energy             -36.154445734888 Eh    ::
         :: total w/o Gsasa/hb       -36.138764843746 Eh    ::
         :: gradient norm              0.000066389852 Eh/a0 ::
         :: HOMO-LUMO gap             10.481162296127 eV    ::
         ::.................................................::
         :: SCC energy               -36.408092661085 Eh    ::
         :: -> isotropic ES            0.144776351651 Eh    ::
         :: -> anisotropic ES         -0.005546236743 Eh    ::
         :: -> anisotropic XC         -0.008308229241 Eh    ::
         :: -> dispersion             -0.014984636168 Eh    ::
         :: -> Gsolv                  -0.032106358764 Eh    ::
         ::    -> Gelec               -0.016425467622 Eh    ::
         ::    -> Gsasa                0.004245975056 Eh    ::
         ::    -> Ghb                 -0.022821415359 Eh    ::
         ::    -> Gshift               0.002894549160 Eh    ::
         :: repulsion energy           0.253646926197 Eh    ::
         :: add. restraining           0.000000000000 Eh    ::
         :: total charge               0.000000000000 e     ::
         :::::::::::::::::::::::::::::::::::::::::::::::::::::

           -------------------------------------------------
          |                Property Printout                |
           -------------------------------------------------

    * Orbital Energies and Occupations

         #    Occupation            Energy/Eh            Energy/eV
      -------------------------------------------------------------
         1        2.0000           -0.7256723             -19.7465
       ...           ...                  ...                  ...
        18        2.0000           -0.5331048             -14.5065
        19        2.0000           -0.5290894             -14.3973
        20        2.0000           -0.5183310             -14.1045
        21        2.0000           -0.5024962             -13.6736
        22        2.0000           -0.4939101             -13.4400
        23        2.0000           -0.4878121             -13.2740
        24        2.0000           -0.4600474             -12.5185
        25        2.0000           -0.4573768             -12.4459
        26        2.0000           -0.4505551             -12.2602
        27        2.0000           -0.4441820             -12.0868
        28        2.0000           -0.4255094             -11.5787
        29        2.0000           -0.4220394             -11.4843
        30        2.0000           -0.4056921             -11.0394 (HOMO)
        31                         -0.0205165              -0.5583 (LUMO)
        32                          0.0209162               0.5692
        33                          0.0225226               0.6129
        34                          0.0454050               1.2355
        35                          0.0585855               1.5942
        36                          0.0693610               1.8874
        37                          0.1032246               2.8089
        38                          0.1039155               2.8277
        39                          0.1260768               3.4307
        40                          0.1338397               3.6420
        41                          0.1517876               4.1304
       ...                                ...                  ...
        50                          0.2944183               8.0115
      -------------------------------------------------------------
                  HL-Gap            0.3851756 Eh           10.4812 eV
             Fermi-level           -0.2131043 Eh           -5.7989 eV

     #   Z          covCN         q      C6AA      α(0)
     1   6 C        3.704     0.061    19.696     6.345
     2   6 C        3.728     0.102    18.991     6.221
     3   1 H        0.923     0.030     2.584     2.514
     4   6 C        3.730     0.093    19.130     6.244
     5   1 H        0.924     0.045     2.388     2.417
     6   6 C        3.728     0.095    19.110     6.241
     7   1 H        0.923     0.026     2.643     2.542
     8   6 C        3.631     0.240    17.231     5.976
     9   1 H        0.923     0.042     2.420     2.433
    10   8 O        1.700    -0.367    20.198     6.068
    11   8 O        1.657    -0.503    22.952     6.467
    12   8 O        1.656    -0.501    22.919     6.463
    13   8 O        1.655    -0.509    23.083     6.486
    14   8 O        1.656    -0.502    22.929     6.464
    15   1 H        0.925     0.082     1.960     2.189
    16   1 H        0.924     0.058     2.223     2.331
    17   1 H        0.804     0.388     0.507     1.119
    18   1 H        0.804     0.377     0.530     1.143
    19   1 H        0.805     0.370     0.544     1.158
    20   1 H        0.804     0.373     0.538     1.152

 Mol. C6AA /au·bohr⁶  :       3288.394955
 Mol. C8AA /au·bohr⁸  :      70005.558369
 Mol. α(0) /au        :         81.973411


Wiberg/Mayer (AO) data.
largest (>0.10) Wiberg bond orders for each atom

 ---------------------------------------------------------------------------
     #   Z sym  total        # sym  WBO       # sym  WBO       # sym  WBO
 ---------------------------------------------------------------------------
     1   6 C    3.938 --     2 C    0.982    10 O    0.969    15 H    0.967
                            16 H    0.967
     2   6 C    3.962 --    14 O    1.002     1 C    0.982     4 C    0.969
                             3 H    0.958
     3   1 H    0.999 --     2 C    0.958
     4   6 C    3.958 --    13 O    0.991     2 C    0.969     6 C    0.961
                             5 H    0.960
     5   1 H    0.998 --     4 C    0.960
     6   6 C    3.962 --    12 O    1.002     4 C    0.961     7 H    0.961
                             8 C    0.958
     7   1 H    0.999 --     6 C    0.961
     8   6 C    3.933 --    11 O    1.012    10 O    0.961     6 C    0.958
                             9 H    0.952
     9   1 H    0.998 --     8 C    0.952
    10   8 O    2.061 --     1 C    0.969     8 C    0.961
    11   8 O    1.940 --     8 C    1.012    17 H    0.834
    12   8 O    1.920 --     6 C    1.002    18 H    0.844
    13   8 O    1.920 --     4 C    0.991    19 H    0.850
    14   8 O    1.918 --     2 C    1.002    20 H    0.844
    15   1 H    0.993 --     1 C    0.967
    16   1 H    0.997 --     1 C    0.967
    17   1 H    0.850 --    11 O    0.834
    18   1 H    0.858 --    12 O    0.844
    19   1 H    0.863 --    13 O    0.850
    20   1 H    0.861 --    14 O    0.844
 ---------------------------------------------------------------------------

Topologies differ in total number of bonds
Writing topology from bond orders to xtbtopo.mol

molecular dipole:
                 x           y           z       tot (Debye)
 q only:       -0.132      -0.799       0.099
   full:       -0.259      -0.952      -0.020       2.508
molecular quadrupole (traceless):
                xx          xy          yy          xz          yz          zz
 q only:       -2.717      -5.212       6.586       0.027       1.774      -3.869
  q+dip:       -5.364      -7.568       7.084      -0.240       2.183      -1.720
   full:       -4.795      -7.530       7.715      -0.101       2.090      -2.920


           -------------------------------------------------
          | TOTAL ENERGY              -36.154445734888 Eh   |
          | GRADIENT NORM               0.000066389852 Eh/α |
          | HOMO-LUMO GAP              10.481162296127 eV   |
           -------------------------------------------------

------------------------------------------------------------------------
 * finished run on 2025/04/03 at 19:42:33.082     
------------------------------------------------------------------------
 total:
 * wall-time:     0 d,  0 h,  0 min,  0.046 sec
 *  cpu-time:     0 d,  0 h,  0 min,  0.023 sec
 * ratio c/w:     0.491 speedup
 SCF:
 * wall-time:     0 d,  0 h,  0 min,  0.015 sec
 *  cpu-time:     0 d,  0 h,  0 min,  0.015 sec
 * ratio c/w:     0.992 speedup

