41
 energy: -2932.481306711526 gnorm: 0.001633641866 xtb: 6.7.1 (edcfbbe)
C            1.07299316094624        1.49060440513446        2.26263456039889
C            2.50810507240776        1.02523807933057        2.29033730093722
O            3.03772275385271        0.76704851085363        0.94602011149354
P            2.63196830461751       -0.53468181171635        0.08732028728544
S            2.22945532854065       -2.15475481263844        1.08947330386705
O            3.86006195056690       -0.59579077690357       -0.94827527810617
C            5.11863248569844       -1.27902847011401       -0.60090011764899
C            5.90102454015778       -0.56160168422978        0.47235390065038
S            1.11082173699297        0.19118795889524       -1.21518529054609
C           -0.09321831275298       -1.19268932312489       -1.20408397810435
S           -1.28401709046208       -1.24031011619871        0.19387958638027
P           -2.58292156838918        0.33666728406609       -0.35552431709736
S           -3.02927465649329        0.49391777736607       -2.24728892377647
O           -1.83970021498791        1.58796642512045        0.32098168215287
C           -2.29618083806024        2.96472451335081        0.05777140549615
C           -1.27165046832290        3.67363095432819       -0.79158818191042
O           -3.81125197262902        0.12250529040956        0.66430289792385
C           -5.05112713122773       -0.57288281579368        0.29321326147146
C           -4.87707779778640       -2.07072904365018        0.26099432660428
H            0.77833243209223        1.76489311478527        3.28074476458061
H            0.95520832603043        2.36810567499339        1.62040115228552
H            0.40133558723499        0.70151128326741        1.91382844812540
H            2.62995969841765        0.11447951292517        2.88470462310017
H            3.17454973044109        1.79691367628943        2.68173543738963
H            4.87589963613082       -2.30641381804005       -0.31195272703850
H            5.66157478796423       -1.29458390729488       -1.54773921238710
H            6.07098761335527        0.48464764524662        0.20308454077821
H            5.39928744925229       -0.60420559270005        1.44312687282654
H            6.87371355780732       -1.05392536825388        0.57189458700593
H            0.43395354554558       -2.14929846644123       -1.17818956029774
H           -0.65011295448613       -1.11212235130610       -2.14234738925524
H           -3.27927153091644        2.94103985213895       -0.42248782724814
H           -2.39732540856255        3.42052914648054        1.04564044668017
H           -0.29662335679094        3.68378368522631       -0.29617616291188
H           -1.17057481104983        3.18928922510958       -1.76682501944009
H           -1.59146977211687        4.70867724628528       -0.94884399435623
H           -5.75414996249539       -0.26766596091358        1.07099274598213
H           -5.38938486398990       -0.17880649253449       -0.66959319446618
H           -4.48968973784809       -2.44249568141668        1.21384995956791
H           -5.85570172074299       -2.52883929281275        0.08418300681563
H           -4.20539931293182       -2.38221252836595       -0.54388747242636
41
 energy: -2932.481306769124 gnorm: 0.001791946152 xtb: 6.7.1 (edcfbbe)
C            1.07399097537135        1.49169702799764        2.26170791127006
C            2.50938206008758        1.02714354336894        2.29095071178741
O            3.04159281497429        0.76869096220547        0.94708348649300
P            2.63526226441361       -0.53251072237260        0.08732015266759
S            2.22364423204351       -2.15149676012826        1.08662472877929
O            3.86309655077800       -0.59512260461364       -0.94925823687441
C            5.12092385246300       -1.28018985458003       -0.60101702818356
C            5.90216997055343       -0.56110614511369        0.47158677853968
S            1.10937315243811        0.18774667796387       -1.21151310680685
C           -0.09520318711815       -1.19601960062023       -1.20468109154284
S           -1.28954875128330       -1.24589192708698        0.19063308736674
P           -2.58379569829045        0.33787618231963       -0.35321154602391
S           -3.02642304504607        0.48978700014259       -2.24612873150651
O           -1.84053120092327        1.58920346147645        0.32393575994115
C           -2.29655359093278        2.96616200815033        0.05863830122062
C           -1.27106796199085        3.67389439957106       -0.78953246928954
O           -3.81269747311528        0.12150118678885        0.66575784477280
C           -5.05262534062253       -0.57340102325866        0.29204858768686
C           -4.87874399880044       -2.07130819510297        0.26058817540769
H            0.77853670172519        1.76639401227652        3.27985818771339
H            0.95589252538790        2.36903474004994        1.61891072597630
H            0.40261137989766        0.70211620861055        1.91304594499844
H            2.63126753280917        0.11682464115466        2.88608939468204
H            3.17476158563950        1.79903681768671        2.68294805268282
H            4.87670328797000       -2.30690148622336       -0.31152005250766
H            5.66366442206046       -1.29710560585889       -1.54776732830419
H            6.07362506239656        0.48445903225912        0.20021784467290
H            5.39920305910453       -0.60121204279272        1.44209315655878
H            6.87448373148396       -1.05458675951976        0.57308421965576
H            0.43353261583952       -2.15153645761289       -1.17945464670540
H           -0.65039900563155       -1.11441105424684       -2.14392341761183
H           -3.27889638173402        2.94250932140907       -0.42294150520735
H           -2.39870503166344        3.42298647833429        1.04594186409010
H           -0.29572943853863        3.68186044402333       -0.29398563044628
H           -1.17128391576218        3.19043889748253       -1.76540020882751
H           -1.58915747712971        4.71001868741656       -0.94520210782630
H           -5.75714182708679       -0.26775167009915        1.06806957928999
H           -5.38926518567652       -0.17918611133645       -0.67142288257369
H           -4.49083538013956       -2.44260231134592        1.21372910198004
H           -5.85741461693006       -2.52971393784287        0.08463336176768
H           -4.20783024050894       -2.38352582010706       -0.54467946226144
41
 energy: -2932.481320841945 gnorm: 0.000684246270 xtb: 6.7.1 (edcfbbe)
C            1.07419409750130        1.49232519454389        2.26078125289881
C            2.50950447397202        1.02780514036094        2.29013558697393
O            3.04118809524933        0.76762793364912        0.94592363894349
P            2.63371402096788       -0.53439195776146        0.08759064532701
S            2.22739295813159       -2.15248879763387        1.09039949768927
O            3.86140334378651       -0.59696680603713       -0.94972663425228
C            5.12035271404601       -1.28093736829386       -0.60079636428451
C            5.90217009979091       -0.56068567154958        0.47044835640967
S            1.11017148649042        0.19082767512187       -1.21183890809044
C           -0.09324410722371       -1.19454628786097       -1.20242682266925
S           -1.28803665000643       -1.24414841804578        0.19287712012935
P           -2.58435459278380        0.33698541060249       -0.35411077250376
S           -3.02821563880940        0.49316557689687       -2.24638236262769
O           -1.84080440452122        1.58775073259806        0.32416655467691
C           -2.29646085047871        2.96542056931720        0.05904236062330
C           -1.27038861890405        3.67328773485658       -0.78784921108781
O           -3.81297427864777        0.11979435046582        0.66519511126301
C           -5.05350734885219       -0.57409708072909        0.29051775962150
C           -4.88033528382489       -2.07206731150393        0.26000554893810
H            0.77909047718171        1.76786660274112        3.27894101454010
H            0.95591676122460        2.36927335117122        1.61735176201021
H            0.40270431485301        0.70244536953499        1.91297272054520
H            2.63188417763426        0.11824233536266        2.88633622526722
H            3.17489509990423        1.80016677835435        2.68100635688574
H            4.87657820284552       -2.30738837638583       -0.31029719955884
H            5.66273888623686       -1.29887063953448       -1.54770249316594
H            6.07464884319892        0.48423139871832        0.19719016893657
H            5.39907487582305       -0.59859886935190        1.44103008133215
H            6.87422279048774       -1.05478546573438        0.57317965157847
H            0.43541910732060       -2.15009996521358       -1.17697095536326
H           -0.64874419335080       -1.11365815416321       -2.14168941855333
H           -3.27840909174236        2.94219650181943       -0.42327626427153
H           -2.39936182876922        3.42204966011060        1.04638957773638
H           -0.29490132790514        3.67943213393285       -0.29232693299566
H           -1.17131439673322        3.19159654780630       -1.76466313052693
H           -1.58723576238538        4.71022802513633       -0.94147341797993
H           -5.75863239768351       -0.26750158109323        1.06554945546494
H           -5.38882038318344       -0.17992081732545       -0.67346521578583
H           -4.49192888102314       -2.44273995957947        1.21328957724689
H           -5.85927638551033       -2.53034448113408        0.08513052609817
H           -4.21009615446635       -2.38513410772293       -0.54547941070705
41
 energy: -2932.481325243788 gnorm: 0.000733780682 xtb: 6.7.1 (edcfbbe)
C            1.07526885728600        1.49362886704471        2.25952706716059
C            2.51079139764567        1.03008165095904        2.28990640937808
O            3.04310590914873        0.76846305878663        0.94612798969537
P            2.63398028360335       -0.53421007592337        0.08936430546722
S            2.22997235303377       -2.15257048657745        1.09317957655409
O            3.86069839468766       -0.59804758629369       -0.94945083810415
C            5.12012856954736       -1.28191462049727       -0.60026118098576
C            5.90326083647104       -0.56022213158463        0.46890098526892
S            1.11018489207119        0.19020094003852       -1.21012725832620
C           -0.09428182577939       -1.19433979390645       -1.20251127033711
S           -1.28664132933577       -1.24221168117724        0.19481260460538
P           -2.58505032324811        0.33574994076760       -0.35425013652171
S           -3.02864867886573        0.49605433502871       -2.24615411725774
O           -1.84193405709576        1.58622667489776        0.32532702645170
C           -2.29678082406082        2.96451321173635        0.06016144085052
C           -1.26921068344163        3.67232726193008       -0.78506498676791
O           -3.81427282161299        0.11797210362970        0.66430573862714
C           -5.05494620287813       -0.57506139136475        0.28796078440094
C           -4.88308811712146       -2.07315252716020        0.25908384623666
H            0.77990132283356        1.77028250426061        3.27716586304997
H            0.95670273413399        2.36968773303021        1.61514857040426
H            0.40416756812150        0.70312835446128        1.91260064589833
H            2.63355531821811        0.12111518847241        2.88688342033673
H            3.17595702714171        1.80343933111719        2.67945822402278
H            4.87620173133666       -2.30777834380018       -0.30763480750505
H            5.66158472634287       -1.30154944397503       -1.54776919362815
H            6.07729191804891        0.48363320281912        0.19280446903986
H            5.40021929297572       -0.59465767061345        1.43948530606910
H            6.87446806251651       -1.05533586573161        0.57315022869062
H            0.43422996065624       -2.14997857970525       -1.17541809458698
H           -0.64960738249074       -1.11390641740344       -2.14179077163103
H           -3.27810864964458        2.94119911797020       -0.42340613908123
H           -2.40100452395552        3.42012112889846        1.04784243840082
H           -0.29387590277021        3.67560599824436       -0.28950690180215
H           -1.17049660996481        3.19337935765666       -1.76321951220038
H           -1.58399293115197        4.71019768373178       -0.93597577299118
H           -5.76101217066833       -0.26681466679449        1.06158288323831
H           -5.38760818113783       -0.18131305718268       -0.67702790114455
H           -4.49436997812730       -2.44275826505080        1.21250505870608
H           -5.86247233595975       -2.53099933476651        0.08554927437739
H           -4.21340067063176       -2.38766941251074       -0.54625472716328
41
 energy: -2932.481325243788 gnorm: 0.000733780682 xtb: 6.7.1 (edcfbbe)
C            1.07526885728600        1.49362886704471        2.25952706716059
C            2.51079139764567        1.03008165095904        2.28990640937808
O            3.04310590914873        0.76846305878663        0.94612798969537
P            2.63398028360335       -0.53421007592337        0.08936430546722
S            2.22997235303377       -2.15257048657745        1.09317957655409
O            3.86069839468766       -0.59804758629369       -0.94945083810415
C            5.12012856954736       -1.28191462049727       -0.60026118098576
C            5.90326083647104       -0.56022213158463        0.46890098526892
S            1.11018489207119        0.19020094003852       -1.21012725832620
C           -0.09428182577939       -1.19433979390645       -1.20251127033711
S           -1.28664132933577       -1.24221168117724        0.19481260460538
P           -2.58505032324811        0.33574994076760       -0.35425013652171
S           -3.02864867886573        0.49605433502871       -2.24615411725774
O           -1.84193405709576        1.58622667489776        0.32532702645170
C           -2.29678082406082        2.96451321173635        0.06016144085052
C           -1.26921068344163        3.67232726193008       -0.78506498676791
O           -3.81427282161299        0.11797210362970        0.66430573862714
C           -5.05494620287813       -0.57506139136475        0.28796078440094
C           -4.88308811712146       -2.07315252716020        0.25908384623666
H            0.77990132283356        1.77028250426061        3.27716586304997
H            0.95670273413399        2.36968773303021        1.61514857040426
H            0.40416756812150        0.70312835446128        1.91260064589833
H            2.63355531821811        0.12111518847241        2.88688342033673
H            3.17595702714171        1.80343933111719        2.67945822402278
H            4.87620173133666       -2.30777834380018       -0.30763480750505
H            5.66158472634287       -1.30154944397503       -1.54776919362815
H            6.07729191804891        0.48363320281912        0.19280446903986
H            5.40021929297572       -0.59465767061345        1.43948530606910
H            6.87446806251651       -1.05533586573161        0.57315022869062
H            0.43422996065624       -2.14997857970525       -1.17541809458698
H           -0.64960738249074       -1.11390641740344       -2.14179077163103
H           -3.27810864964458        2.94119911797020       -0.42340613908123
H           -2.40100452395552        3.42012112889846        1.04784243840082
H           -0.29387590277021        3.67560599824436       -0.28950690180215
H           -1.17049660996481        3.19337935765666       -1.76321951220038
H           -1.58399293115197        4.71019768373178       -0.93597577299118
H           -5.76101217066833       -0.26681466679449        1.06158288323831
H           -5.38760818113783       -0.18131305718268       -0.67702790114455
H           -4.49436997812730       -2.44275826505080        1.21250505870608
H           -5.86247233595975       -2.53099933476651        0.08554927437739
H           -4.21340067063176       -2.38766941251074       -0.54625472716328
