      -----------------------------------------------------------      
     |                   =====================                   |     
     |                           x T B                           |     
     |                   =====================                   |     
     |                         S. Grimme                         |     
     |          Mulliken Center for Theoretical Chemistry        |     
     |                    University of Bonn                     |     
      -----------------------------------------------------------      

   * xtb version 6.7.1 (edcfbbe) compiled by 'albert@albert-system' on 2024-07-22

   xtb is free software: you can redistribute it and/or modify it under
   the terms of the GNU Lesser General Public License as published by
   the Free Software Foundation, either version 3 of the License, or
   (at your option) any later version.
   
   xtb is distributed in the hope that it will be useful,
   but WITHOUT ANY WARRANTY; without even the implied warranty of
   MERCHANTABILITY or FITNESS FOR A PARTICULAR PURPOSE.  See the
   GNU Lesser General Public License for more details.
   
   Cite this work as:
   * C. Bannwarth, E. Caldeweyher, S. Ehlert, A. Hansen, P. Pracht,
     J. Seibert, S. Spicher, S. Grimme, WIREs Comput. Mol. Sci., 2020, 11,
     e01493. DOI: 10.1002/wcms.1493
   
   for GFN2-xTB:
   * C. Bannwarth, S. Ehlert and S. Grimme., J. Chem. Theory Comput., 2019,
     15, 1652-1671. DOI: 10.1021/acs.jctc.8b01176
   for GFN1-xTB:
   * S. Grimme, C. Bannwarth, P. Shushkov, J. Chem. Theory Comput., 2017,
     13, 1989-2009. DOI: 10.1021/acs.jctc.7b00118
   for GFN0-xTB:
   * P. Pracht, E. Caldeweyher, S. Ehlert, S. Grimme, ChemRxiv, 2019, preprint.
     DOI: 10.26434/chemrxiv.8326202.v1
   for GFN-FF:
   * S. Spicher and S. Grimme, Angew. Chem. Int. Ed., 2020, 59, 15665-15673.
     DOI: 10.1002/anie.202004239
   
   for ALPB and GBSA implicit solvation:
   * S. Ehlert, M. Stahn, S. Spicher, S. Grimme, J. Chem. Theory Comput.,
     2021, 17, 4250-4261. DOI: 10.1021/acs.jctc.1c00471
   
   for ddCOSMO and CPCM-X implicit solvation:
   * M. Stahn, S. Ehlert, S. Grimme, J. Phys. Chem. A,
     2023, XX, XXXX-XXXX. DOI: 10.1021/acs.jpca.3c04382
   
   for DFT-D4:
   * E. Caldeweyher, C. Bannwarth and S. Grimme, J. Chem. Phys., 2017,
     147, 034112. DOI: 10.1063/1.4993215
   * E. Caldeweyher, S. Ehlert, A. Hansen, H. Neugebauer, S. Spicher,
     C. Bannwarth and S. Grimme, J. Chem. Phys., 2019, 150, 154122.
     DOI: 10.1063/1.5090222
   * E. Caldeweyher, J.-M. Mewes, S. Ehlert and S. Grimme, Phys. Chem. Chem. Phys.
     2020, 22, 8499-8512. DOI: 10.1039/D0CP00502A
   
   for sTDA-xTB:
   * S. Grimme and C. Bannwarth, J. Chem. Phys., 2016, 145, 054103.
     DOI: 10.1063/1.4959605
   
   in the mass-spec context:
   * V. Asgeirsson, C. Bauer and S. Grimme, Chem. Sci., 2017, 8, 4879.
     DOI: 10.1039/c7sc00601b
   * J. Koopman and S. Grimme, ACS Omega 2019, 4, 12, 15120-15133.
     DOI: 10.1021/acsomega.9b02011
   
   for metadynamics refer to:
   * S. Grimme, J. Chem. Theory Comput., 2019, 155, 2847-2862
     DOI: 10.1021/acs.jctc.9b00143
   
   for SPH calculations refer to:
   * S. Spicher and S. Grimme, J. Chem. Theory Comput., 2021, 17, 1701-1714
     DOI: 10.1021/acs.jctc.0c01306
   
   for ONIOM refer to:
   * C. Plett, A. Katbashev, S. Ehlert, S. Grimme, M. Bursch,
     Phys. Chem. Chem. Phys., 2023, 25, 17860-17868. DOI: 10.1039/D3CP02178E
   
   for DIPRO refer to:
   * J. Kohn, N. Gildemeister, S. Grimme, D. Fazzi, A. Hansen,
     J. Chem. Phys., 2023, just accepted.
   
   for PTB refer to:
   * S. Grimme, M. Mueller, A. Hansen, J. Chem. Phys., 2023, 158, 124111.
     DOI: 10.1063/5.0137838
   
   with help from (in alphabetical order)
   P. Atkinson, C. Bannwarth, F. Bohle, G. Brandenburg, E. Caldeweyher
   M. Checinski, S. Dohm, S. Ehlert, S. Ehrlich, I. Gerasimov, C. Hölzer
   A. Katbashev, J. Kohn, J. Koopman, C. Lavigne, S. Lehtola, F. März, M. Müller,
   F. Musil, H. Neugebauer, J. Pisarek, C. Plett, P. Pracht, F. Pultar,
   J. Seibert, P. Shushkov, S. Spicher, M. Stahn, M. Steiner, T. Strunk,
   J. Stückrath, T. Rose, and J. Unsleber
   
 * started run on 2025/04/09 at 05:21:17.053     
   ID    Z sym.   atoms
    1    6 C      1, 2, 7, 8, 10, 15, 16, 18, 19
    2    8 O      3, 6, 14, 17
    3   15 P      4, 12
    4   16 S      5, 9, 11, 13
    5    1 H      20-41

           -------------------------------------------------
          |                Calculation Setup                |
           -------------------------------------------------

          program call               : /srv/scratch/z5358697/.xtb/bin/xtb solv.coord --gfn2 --sp --chrg 0 --norestart --parallel 1 --alpb water reference -I xtb_sp-xcontrol-inp
          hostname                   : k163
          coordinate file            : solv.coord
          omp threads                :                     1


           -------------------------------------------------
          |                 G F N 2 - x T B                 |
           -------------------------------------------------

        Reference                      10.1021/acs.jctc.8b01176
      * Hamiltonian:
        H0-scaling (s, p, d)           1.850000    2.230000    2.230000
        zeta-weighting                 0.500000
      * Dispersion:
        s8                             2.700000
        a1                             0.520000
        a2                             5.000000
        s9                             5.000000
      * Repulsion:
        kExp                           1.500000    1.000000
        rExp                           1.000000
      * Coulomb:
        alpha                          2.000000
        third order                    shell-resolved
        anisotropic                    true
        a3                             3.000000
        a5                             4.000000
        cn-shift                       1.200000
        cn-exp                         4.000000
        max-rad                        5.000000

      * Solvation model:               ALPB
        Solvent                        water
        Parameter file                 internal GFN2-xTB/ALPB
        Dielectric constant                8.0200E+01
        Reference state                gsolv=reference [X=1]
        Free energy shift                  2.8945E-03 Eh       1.8164E+00 kcal/mol
        Temperature                        2.9815E+02 K
        Density                            1.0000E+00 kg/L
        Solvent mass                       1.8000E+01 g/mol
        Interaction kernel             P16
        Born radius scaling (c1)           1.4744E+00
        Born radii integrator          GBOBC
        Born offset                        0.0000E+00 a0       0.0000E+00 AA
        H-bond correction              true
        Ion screening                  false
        Surface tension                    1.0000E-05 Eh       1.5569E+01 dyn/cm
        Grid points                               974 per atom

          ...................................................
          :                      SETUP                      :
          :.................................................:
          :  # basis functions                 134          :
          :  # atomic orbitals                 128          :
          :  # shells                           66          :
          :  # electrons                       116          :
          :  max. iterations                   250          :
          :  Hamiltonian                  GFN2-xTB          :
          :  restarted?                      false          :
          :  GBSA solvation                   true          :
          :  PC potential                    false          :
          :  electronic temp.          300.0000000     K    :
          :  accuracy                    1.0000000          :
          :  -> integral cutoff          0.2500000E+02      :
          :  -> integral neglect         0.1000000E-07      :
          :  -> SCF convergence          0.1000000E-05 Eh   :
          :  -> wf. convergence          0.1000000E-03 e    :
          :  Broyden damping             0.4000000          :
          :  net charge                          0          :
          :  unpaired electrons                  0          :
          ...................................................

 iter      E             dE          RMSdq      gap      omega  full diag
   1    -65.4421569 -0.654422E+02  0.623E+00    4.09       0.0  T
   2    -65.5639323 -0.121775E+00  0.358E+00    3.45       1.0  T
   3    -65.5841144 -0.201821E-01  0.116E+00    3.04       1.0  T
   4    -65.5863327 -0.221826E-02  0.517E-01    2.96       1.0  T
   5    -65.5870143 -0.681579E-03  0.264E-01    3.01       1.0  T
   6    -65.5871942 -0.179879E-03  0.125E-01    3.01       1.0  T
   7    -65.5872484 -0.542466E-04  0.435E-02    3.02       1.0  T
   8    -65.5872522 -0.381397E-05  0.176E-02    3.02       1.0  T
   9    -65.5872532 -0.996535E-06  0.532E-03    3.01       2.9  T
  10    -65.5872532 -0.988318E-08  0.269E-03    3.02       5.8  T
  11    -65.5872533 -0.420860E-07  0.739E-04    3.01      21.1  T
  12    -65.5872533 -0.888619E-09  0.401E-04    3.01      38.9  T

   *** convergence criteria satisfied after 12 iterations ***

         #    Occupation            Energy/Eh            Energy/eV
      -------------------------------------------------------------
         1        2.0000           -0.7687945             -20.9200
       ...           ...                  ...                  ...
        52        2.0000           -0.4451293             -12.1126
        53        2.0000           -0.4236834             -11.5290
        54        2.0000           -0.4139977             -11.2654
        55        2.0000           -0.3961838             -10.7807
        56        2.0000           -0.3936680             -10.7123
        57        2.0000           -0.3929678             -10.6932
        58        2.0000           -0.3901139             -10.6155 (HOMO)
        59                         -0.2793361              -7.6011 (LUMO)
        60                         -0.2571798              -6.9982
        61                         -0.2172579              -5.9119
        62                         -0.1957728              -5.3272
        63                         -0.1822892              -4.9603
       ...                                ...                  ...
       128                          1.2984799              35.3334
      -------------------------------------------------------------
                  HL-Gap            0.1107778 Eh            3.0144 eV
             Fermi-level           -0.3347250 Eh           -9.1083 eV

 SCC (total)                   0 d,  0 h,  0 min,  0.059 sec
 SCC setup                      ...        0 min,  0.003 sec (  4.293%)
 Dispersion                     ...        0 min,  0.000 sec (  0.515%)
 classical contributions        ...        0 min,  0.000 sec (  0.097%)
 integral evaluation            ...        0 min,  0.009 sec ( 14.816%)
 iterations                     ...        0 min,  0.025 sec ( 42.808%)
 molecular gradient             ...        0 min,  0.022 sec ( 37.092%)
 printout                       ...        0 min,  0.000 sec (  0.354%)

         :::::::::::::::::::::::::::::::::::::::::::::::::::::
         ::                     SUMMARY                     ::
         :::::::::::::::::::::::::::::::::::::::::::::::::::::
         :: total energy             -65.023716601869 Eh    ::
         :: total w/o Gsasa/hb       -65.027260669849 Eh    ::
         :: gradient norm              0.000184584088 Eh/a0 ::
         :: HOMO-LUMO gap              3.014418061697 eV    ::
         ::.................................................::
         :: SCC energy               -65.586351761107 Eh    ::
         :: -> isotropic ES            0.120628726654 Eh    ::
         :: -> anisotropic ES         -0.014180094999 Eh    ::
         :: -> anisotropic XC          0.030780571273 Eh    ::
         :: -> dispersion             -0.052198593322 Eh    ::
         :: -> Gsolv                  -0.019785651985 Eh    ::
         ::    -> Gelec               -0.023329719965 Eh    ::
         ::    -> Gsasa                0.004574980232 Eh    ::
         ::    -> Ghb                 -0.003925461412 Eh    ::
         ::    -> Gshift               0.002894549160 Eh    ::
         :: repulsion energy           0.562635159238 Eh    ::
         :: add. restraining           0.000000000000 Eh    ::
         :: total charge               0.000000000000 e     ::
         :::::::::::::::::::::::::::::::::::::::::::::::::::::

           -------------------------------------------------
          |                Property Printout                |
           -------------------------------------------------

    * Orbital Energies and Occupations

         #    Occupation            Energy/Eh            Energy/eV
      -------------------------------------------------------------
         1        2.0000           -0.7687945             -20.9200
       ...           ...                  ...                  ...
        46        2.0000           -0.4693042             -12.7704
        47        2.0000           -0.4607208             -12.5368
        48        2.0000           -0.4567681             -12.4293
        49        2.0000           -0.4543593             -12.3637
        50        2.0000           -0.4529390             -12.3251
        51        2.0000           -0.4506158             -12.2619
        52        2.0000           -0.4451293             -12.1126
        53        2.0000           -0.4236834             -11.5290
        54        2.0000           -0.4139977             -11.2654
        55        2.0000           -0.3961838             -10.7807
        56        2.0000           -0.3936680             -10.7123
        57        2.0000           -0.3929678             -10.6932
        58        2.0000           -0.3901139             -10.6155 (HOMO)
        59                         -0.2793361              -7.6011 (LUMO)
        60                         -0.2571798              -6.9982
        61                         -0.2172579              -5.9119
        62                         -0.1957728              -5.3272
        63                         -0.1822892              -4.9603
        64                         -0.1780668              -4.8454
        65                         -0.1649909              -4.4896
        66                         -0.1572287              -4.2784
        67                         -0.1273280              -3.4648
        68                         -0.1249173              -3.3992
        69                         -0.0529655              -1.4413
       ...                                ...                  ...
       128                          1.2984799              35.3334
      -------------------------------------------------------------
                  HL-Gap            0.1107778 Eh            3.0144 eV
             Fermi-level           -0.3347250 Eh           -9.1083 eV

     #   Z          covCN         q      C6AA      α(0)
     1   6 C        3.751    -0.132    23.100     6.854
     2   6 C        3.822     0.084    19.167     6.230
     3   8 O        1.653    -0.252    18.188     5.757
     4  15 P        3.869     0.358   145.307    21.654
     5  16 S        0.927    -0.450   158.984    21.327
     6   8 O        1.655    -0.251    18.182     5.756
     7   6 C        3.882     0.082    19.171     6.225
     8   6 C        3.752    -0.133    23.113     6.856
     9  16 S        1.999    -0.159   147.782    20.460
    10   6 C        3.816     0.045    19.810     6.335
    11  16 S        2.026    -0.172   148.351    20.500
    12  15 P        3.828     0.375   144.624    21.603
    13  16 S        0.927    -0.439   158.463    21.292
    14   8 O        1.655    -0.250    18.155     5.752
    15   6 C        3.849     0.077    19.267     6.243
    16   6 C        3.751    -0.132    23.092     6.853
    17   8 O        1.654    -0.255    18.243     5.766
    18   6 C        3.848     0.073    19.332     6.254
    19   6 C        3.751    -0.133    23.122     6.857
    20   1 H        0.925     0.086     1.919     2.166
    21   1 H        0.925     0.071     2.070     2.250
    22   1 H        0.925     0.067     2.123     2.278
    23   1 H        0.924     0.064     2.151     2.294
    24   1 H        0.924     0.081     1.971     2.195
    25   1 H        0.924     0.059     2.211     2.326
    26   1 H        0.924     0.067     2.119     2.277
    27   1 H        0.925     0.075     2.035     2.231
    28   1 H        0.925     0.071     2.078     2.254
    29   1 H        0.925     0.084     1.934     2.175
    30   1 H        0.925     0.102     1.765     2.078
    31   1 H        0.925     0.092     1.861     2.134
    32   1 H        0.924     0.094     1.840     2.121
    33   1 H        0.924     0.053     2.288     2.365
    34   1 H        0.925     0.082     1.956     2.187
    35   1 H        0.925     0.061     2.184     2.311
    36   1 H        0.925     0.073     2.051     2.240
    37   1 H        0.924     0.089     1.894     2.152
    38   1 H        0.924     0.069     2.096     2.264
    39   1 H        0.925     0.071     2.080     2.255
    40   1 H        0.925     0.086     1.918     2.166
    41   1 H        0.925     0.067     2.119     2.276

 Mol. C6AA /au·bohr⁶  :      26392.214895
 Mol. C8AA /au·bohr⁸  :     862666.201735
 Mol. α(0) /au        :        257.569169


Wiberg/Mayer (AO) data.
largest (>0.10) Wiberg bond orders for each atom

 ---------------------------------------------------------------------------
     #   Z sym  total        # sym  WBO       # sym  WBO       # sym  WBO
 ---------------------------------------------------------------------------
     1   6 C    3.984 --     2 C    1.022    21 H    0.983    22 H    0.980
                            20 H    0.974
     2   6 C    3.883 --     1 C    1.022    24 H    0.966    23 H    0.964
                             3 O    0.862
     3   8 O    2.417 --     4 P    1.364     2 C    0.862
     4  15 P    5.335 --     5 S    1.549     3 O    1.364     6 O    1.331
                             9 S    0.958
     5  16 S    1.863 --     4 P    1.549     9 S    0.135
     6   8 O    2.411 --     4 P    1.331     7 C    0.883
     7   6 C    3.891 --     8 C    1.018    26 H    0.971    25 H    0.966
                             6 O    0.883
     8   6 C    3.982 --     7 C    1.018    28 H    0.983    27 H    0.982
                            29 H    0.976
     9  16 S    2.276 --    10 C    0.983     4 P    0.958     5 S    0.135
    10   6 C    3.955 --    11 S    0.990     9 S    0.983    31 H    0.960
                            30 H    0.958
    11  16 S    2.276 --    10 C    0.990    12 P    0.931    13 S    0.139
    12  15 P    5.298 --    13 S    1.547    17 O    1.359    14 O    1.329
                            11 S    0.931
    13  16 S    1.867 --    12 P    1.547    11 S    0.139
    14   8 O    2.414 --    12 P    1.329    15 C    0.885
    15   6 C    3.890 --    16 C    1.020    33 H    0.968    32 H    0.965
                            14 O    0.885
    16   6 C    3.985 --    15 C    1.020    36 H    0.982    35 H    0.978
                            34 H    0.976
    17   8 O    2.411 --    12 P    1.359    18 C    0.865
    18   6 C    3.884 --    19 C    1.021    37 H    0.967    38 H    0.965
                            17 O    0.865
    19   6 C    3.984 --    18 C    1.021    39 H    0.983    41 H    0.981
                            40 H    0.974
    20   1 H    0.991 --     1 C    0.974
    21   1 H    0.995 --     1 C    0.983
    22   1 H    0.995 --     1 C    0.980
    23   1 H    0.996 --     2 C    0.964
    24   1 H    0.993 --     2 C    0.966
    25   1 H    0.997 --     7 C    0.966
    26   1 H    0.995 --     7 C    0.971
    27   1 H    0.994 --     8 C    0.982
    28   1 H    0.995 --     8 C    0.983
    29   1 H    0.991 --     8 C    0.976
    30   1 H    0.990 --    10 C    0.958
    31   1 H    0.992 --    10 C    0.960
    32   1 H    0.991 --    15 C    0.965
    33   1 H    0.997 --    15 C    0.968
    34   1 H    0.992 --    16 C    0.976
    35   1 H    0.996 --    16 C    0.978
    36   1 H    0.995 --    16 C    0.982
    37   1 H    0.992 --    18 C    0.967
    38   1 H    0.995 --    18 C    0.965
    39   1 H    0.995 --    19 C    0.983
    40   1 H    0.991 --    19 C    0.974
    41   1 H    0.996 --    19 C    0.981
 ---------------------------------------------------------------------------

Topologies differ in total number of bonds
Writing topology from bond orders to xtbtopo.mol

molecular dipole:
                 x           y           z       tot (Debye)
 q only:       -0.508       1.019      -0.299
   full:       -0.803       0.924      -0.241       3.171
molecular quadrupole (traceless):
                xx          xy          yy          xz          yz          zz
 q only:       39.611      -3.294       9.915     -18.243      -1.986     -49.526
  q+dip:       39.001      -0.921      12.342     -15.970       2.050     -51.343
   full:       39.797      -1.047      12.078     -15.996       1.482     -51.875


           -------------------------------------------------
          | TOTAL ENERGY              -65.023716601869 Eh   |
          | GRADIENT NORM               0.000184584088 Eh/α |
          | HOMO-LUMO GAP               3.014418061697 eV   |
           -------------------------------------------------

------------------------------------------------------------------------
 * finished run on 2025/04/09 at 05:21:17.167     
------------------------------------------------------------------------
 total:
 * wall-time:     0 d,  0 h,  0 min,  0.113 sec
 *  cpu-time:     0 d,  0 h,  0 min,  0.071 sec
 * ratio c/w:     0.632 speedup
 SCF:
 * wall-time:     0 d,  0 h,  0 min,  0.059 sec
 *  cpu-time:     0 d,  0 h,  0 min,  0.058 sec
 * ratio c/w:     0.982 speedup

