20
 energy: -36.157729798618 gnorm: 0.047564605324 xtb: 6.7.1 (edcfbbe)
C            0.66140826731529        1.67747517559399       -0.01953286824656
C            1.39050351099278        0.36566875994964       -0.26146531589704
H            1.57988074627955        0.24773965851894       -1.34117357789366
C            0.52829674508680       -0.80073332597947        0.21134946177832
H            0.39884911874304       -0.73408577835482        1.29908332211512
C           -0.83484893142091       -0.73529125009373       -0.47921099315921
H           -0.69016280056477       -0.87837484618415       -1.55685615788040
C           -1.48067302439845        0.64268930803117       -0.28287512161274
H           -2.36470109594696        0.74376886853553       -0.92212603419591
O           -0.60171160761920        1.67907129934593       -0.70801810096103
O           -1.83390809457248        0.76196776810261        1.08196196676594
O           -1.71185388693017       -1.77823504294253       -0.05836050675817
O            1.18459856369464       -2.05297191791267       -0.02103498923478
O            2.62747826079532        0.42804105781963        0.45428327428410
H            1.22941722968823        2.51746541681045       -0.42585214292579
H            0.51746758718146        1.83451594478197        1.05769951688962
H           -2.49043345399990        1.46709773932912        1.16036778124874
H           -1.89735565790124       -1.63705658088216        0.88119077832893
H            1.27197486210760       -2.16267881814608       -0.97952963623020
H            3.03504752927525       -0.44699058874436        0.38781499376133
20
 energy: -36.159815288774 gnorm: 0.024263976152 xtb: 6.7.1 (edcfbbe)
C            0.64858296282623        1.67834089197568       -0.02642499076211
C            1.39461527439726        0.37042146852030       -0.26346943830212
H            1.59219380569441        0.25648998195922       -1.34142357641441
C            0.52986287803197       -0.80147412234023        0.21128979857649
H            0.39675538702519       -0.73769365734652        1.29701128047871
C           -0.83121439549591       -0.73964731090898       -0.49152709991641
H           -0.69238117024682       -0.88919695054355       -1.56853714311965
C           -1.47196266477277        0.64203095858902       -0.27566834724588
H           -2.35526663292142        0.74174892828935       -0.91589665823030
O           -0.61144298474760        1.68132658271135       -0.69759814635898
O           -1.81719994750945        0.75811665032070        1.08067684438850
O           -1.70506380901624       -1.76771667714372       -0.07453698289514
O            1.18664342247338       -2.04069628935446       -0.00857667442066
O            2.62156112178139        0.43095152119733        0.44505156252699
H            1.20506113991715        2.52170611092224       -0.43492612056607
H            0.50556304919436        1.82377927236704        1.04999695139917
H           -2.45999659200135        1.47467966840556        1.18440680291684
H           -1.90036930730086       -1.63025153481390        0.86472661205215
H            1.25643442634523       -2.18487282753262       -0.96438466122761
H            3.02689790413171       -0.44895981769479        0.40752563729711
20
 energy: -36.160682276057 gnorm: 0.007829913896 xtb: 6.7.1 (edcfbbe)
C            0.63774389975014        1.68370321404487       -0.03307024684209
C            1.39888838808365        0.37833356896522       -0.26919715645747
H            1.59599192997633        0.26417261062420       -1.34775109507800
C            0.53455968354805       -0.80375595458341        0.20460014462692
H            0.39350778861708       -0.73223265947330        1.28769713222516
C           -0.83040696464845       -0.74378806946292       -0.49922908277380
H           -0.69147965002307       -0.89011577033169       -1.57558421713862
C           -1.46669306581355        0.64404041039673       -0.27326134477604
H           -2.35245817957704        0.74007211617155       -0.91448382031713
O           -0.61771528282601        1.68258413245515       -0.69046911626307
O           -1.79899217223167        0.74146184464185        1.07604381646473
O           -1.69898746783896       -1.76172064962318       -0.09171848793592
O            1.19597149893976       -2.02921862797825        0.00457882819138
O            2.61355544522277        0.44258371305752        0.43388787491671
H            1.18625643634593        2.52920783539718       -0.44361898242587
H            0.50298659608401        1.81878470129444        1.04520897883252
H           -2.41482780103908        1.47898366827611        1.21973181747702
H           -1.91217606414097       -1.63173951860177        0.84605290401636
H            1.23335495248296       -2.22628682114664       -0.94682962317594
H            3.01019389689399       -0.44598689654463        0.44512732660980
20
 energy: -36.160836484953 gnorm: 0.007588910367 xtb: 6.7.1 (edcfbbe)
C            0.63640940527993        1.68655733004395       -0.03620617148040
C            1.39923159643965        0.38126956241126       -0.27281660198814
H            1.59168272258601        0.26600231969808       -1.35302880573387
C            0.53518509682351       -0.80227658125021        0.20320125191225
H            0.38927489982205       -0.72304012379351        1.28606218573363
C           -0.82910501428698       -0.74535989990787       -0.50371065449655
H           -0.68594026909993       -0.88515878120622       -1.58097919949366
C           -1.46642697465528        0.64290889444693       -0.27187331280069
H           -2.35487829110975        0.73788214968929       -0.91129294150138
O           -0.62020395861659        1.68292970052461       -0.69007635265403
O           -1.79441245629587        0.73142840091809        1.07790287256834
O           -1.69602533478587       -1.76522959188407       -0.10066296022774
O            1.19972658698406       -2.02564036083637        0.01034310937712
O            2.61252021874124        0.44725893744170        0.42958814668236
H            1.18465254984727        2.53182493220447       -0.44827573213557
H            0.50878451073937        1.82206584518988        1.04355699039792
H           -2.39448046238089        1.47912091482110        1.23523224788759
H           -1.91872500749876       -1.63643453030944        0.83519385019262
H            1.22217991267089       -2.24189904655913       -0.93687436292665
H            2.99982413660181       -0.44512722406352        0.46243209086350
20
 energy: -36.161029341168 gnorm: 0.006368243000 xtb: 6.7.1 (edcfbbe)
C            0.63510767191965        1.69155393862167       -0.04121681538869
C            1.39831053415104        0.38619332654480       -0.27956246488673
H            1.58218338623915        0.26865266657075       -1.36231493987138
C            0.53611217923896       -0.79787142458233        0.20272483548270
H            0.38101289709396       -0.70373631251306        1.28465772174425
C           -0.82458493549075       -0.74632207076410       -0.51157328119627
H           -0.67214069013526       -0.87083518109249       -1.59041206177897
C           -1.46774077270410        0.63928341562416       -0.26861140631887
H           -2.36180051390855        0.73429053863986       -0.90249436008612
O           -0.62635364032243        1.68439918699612       -0.68750981069609
O           -1.78843632041141        0.71309408524832        1.08347276824863
O           -1.68775251621128       -1.77553438867975       -0.12187234978655
O            1.20809137262842       -2.01953497124562        0.02511748688860
O            2.61398141445139        0.45317240209352        0.41796390207602
H            1.18221482467776        2.53630032965590       -0.45795885937105
H            0.51988996085987        1.83138269728464        1.04045012373217
H           -2.35616947514676        1.48037185646683        1.26095292785468
H           -1.93007704286994       -1.64869068881914        0.80939729256417
H            1.19930188519196       -2.27068878924654       -0.91246595562336
H            2.97812364855419       -0.44639776922453        0.48897089658950
20
 energy: -36.161109635880 gnorm: 0.004282386411 xtb: 6.7.1 (edcfbbe)
C            0.63462181824752        1.69428758101052       -0.04358630169622
C            1.39697006957359        0.38904921876586       -0.28336118359742
H            1.57703325921706        0.27031078245370       -1.36668609543296
C            0.53619018275223       -0.79346626525896        0.20400100646453
H            0.37617431732923       -0.69190235290094        1.28467138145895
C           -0.82050869355354       -0.74573480178595       -0.51637383200733
H           -0.66260530377197       -0.86025906491307       -1.59564047056415
C           -1.46837185402179        0.63582057863077       -0.26569784976376
H           -2.36543084182490        0.73151024151657       -0.89541013567669
O           -0.63098539281431        1.68546077278518       -0.68362433924358
O           -1.78520681916417        0.70282122851713        1.08796926955894
O           -1.68076250021854       -1.78289945534755       -0.13826497568054
O            1.21260098078739       -2.01476239239207        0.03666986624340
O            2.61681417857602        0.45471163738767        0.40841997433264
H            1.17891344210663        2.53878003168657       -0.46532364151170
H            0.52511098869829        1.83776989411580        1.03827084896901
H           -2.33176239412098        1.48212463406022        1.27397925900897
H           -1.93481703940924       -1.65831853610618        0.78989071479978
H            1.18170337319762       -2.28733882573231       -0.89353375860079
H            2.96359209621970       -0.44888205891393        0.50134591311555
20
 energy: -36.161149712983 gnorm: 0.001608400841 xtb: 6.7.1 (edcfbbe)
C            0.63425850178289        1.69595132332413       -0.04469207249860
C            1.39564960666135        0.39100921265866       -0.28598865542011
H            1.57421111064964        0.27168451622422       -1.36891574110226
C            0.53615622763806       -0.78939489095861        0.20547572104694
H            0.37338314479350       -0.68399026259812        1.28477400255285
C           -0.81689103832852       -0.74409180227550       -0.51964780841821
H           -0.65552124510488       -0.85208587092250       -1.59863527226936
C           -1.46870790478313        0.63294212295475       -0.26340470077225
H           -2.36733155631305        0.72946516496848       -0.89004212260427
O           -0.63494304043699        1.68644174965413       -0.67907699195928
O           -1.78338803758718        0.69641927352914        1.09139731779137
O           -1.67451006999774       -1.78752702798684       -0.15139411631589
O            1.21510933569717       -2.01088008516655        0.04576029009870
O            2.61990410483656        0.45432151295599        0.40022980744353
H            1.17455408695653        2.54052827747216       -0.47105723614821
H            0.52764315138830        1.84145196128218        1.03675234333589
H           -2.31454184467674        1.48410469877101        1.28074557474722
H           -1.93488837096825       -1.66663843112850        0.77492864527754
H            1.16631350390589       -2.29898660386329       -0.87775824950081
H            2.95281420169245       -0.45164199131591        0.50826491489185
20
 energy: -36.161156635172 gnorm: 0.001290556409 xtb: 6.7.1 (edcfbbe)
C            0.63407295957044        1.69688524038614       -0.04487833701983
C            1.39529159430177        0.39232695592589       -0.28781775922603
H            1.57375336928632        0.27280193932569       -1.37016026347175
C            0.53643832279849       -0.78670657099748        0.20583006143785
H            0.37301566694780       -0.67979845392586        1.28440691038919
C           -0.81501397251311       -0.74271555261494       -0.52134792529890
H           -0.65220373929367       -0.84840966747890       -1.59994155501148
C           -1.46853285411619        0.63170887897048       -0.26251927278887
H           -2.36750180206120        0.72868079356718       -0.88798525406110
O           -0.63714523094686        1.68735171703886       -0.67567501284125
O           -1.78290719365718        0.69346080137078        1.09280236337572
O           -1.67088383220787       -1.78888873481315       -0.15816206837513
O            1.21598024033201       -2.00845786575900        0.04999647379659
O            2.62186604098738        0.45428963682055        0.39541410236951
H            1.17108210230035        2.54191411873290       -0.47343142137812
H            0.52877147438232        1.84180938260172        1.03637598980859
H           -2.30689773519890        1.48555925696686        1.28269776113026
H           -1.93144995082741       -1.67271597817534        0.76842470657015
H            1.15422300711530       -2.30691508550723       -0.86942238425153
H            2.94731540060607       -0.45309796485613        0.51310853502279
20
 energy: -36.161158521229 gnorm: 0.001087513450 xtb: 6.7.1 (edcfbbe)
C            0.63446252388456        1.69665251678390       -0.04437811238344
C            1.39548055751512        0.39195308665276       -0.28753085790984
H            1.57428781316803        0.27285783954968       -1.36984074575901
C            0.53638240872280       -0.78708535500937        0.20557114711361
H            0.37340826929414       -0.68076227914758        1.28438497825567
C           -0.81554481673867       -0.74245292415515       -0.52082554625024
H           -0.65310760366133       -0.84932591359780       -1.59942341324104
C           -1.46840724891262        0.63244397000784       -0.26301718371488
H           -2.36700057719460        0.72928818862739       -0.88906634233544
O           -0.63653779451514        1.68758169229376       -0.67579019402540
O           -1.78386457785579        0.69500974341548        1.09231781726680
O           -1.67165410626333       -1.78783315227646       -0.15634210854845
O            1.21503187949028       -2.00924848498531        0.04824803199965
O            2.62178869338503        0.45384798438175        0.39637619627408
H            1.17172355996047        2.54171964110615       -0.47227441503578
H            0.52892774073660        1.84083972247995        1.03696032412135
H           -2.31121419998182        1.48516120966293        1.28011371629294
H           -1.92874287389000       -1.67342163441080        0.77153155796929
H            1.15465301420613       -2.30568656177543       -0.87068214929446
H            2.94920120645602       -0.45245644202468        0.51138294938124
20
 energy: -36.161161258210 gnorm: 0.000715808789 xtb: 6.7.1 (edcfbbe)
C            0.63485013744981        1.69685406445932       -0.04395139075021
C            1.39614403406154        0.39221174001244       -0.28786195218838
H            1.57490105477914        0.27345468020922       -1.37031853315979
C            0.53692760507897       -0.78712870466102        0.20484985086577
H            0.37450202227344       -0.68052411871310        1.28399563179477
C           -0.81576265516489       -0.74221283093542       -0.52066459677969
H           -0.65361152834189       -0.84982568029953       -1.59946568368691
C           -1.46810584930047        0.63346968522340       -0.26361139338536
H           -2.36645275567391        0.73009163595662       -0.89032137331161
O           -0.63592056080776        1.68819409170026       -0.67578485330386
O           -1.78472831108627        0.69595694866087        1.09173343235724
O           -1.67199736316170       -1.78682330398237       -0.15508554849104
O            1.21521905849399       -2.00939042929410        0.04678048120090
O            2.62186587862367        0.45455230798599        0.39673743626458
H            1.17249619599690        2.54222666360241       -0.47066404694669
H            0.52954556513037        1.83981098382168        1.03769925062842
H           -2.31601392306928        1.48418189763900        1.27827852831293
H           -1.92472285927706       -1.67549800490587        0.77467152801030
H            1.14985925545284       -2.30886010102971       -0.87160581716914
H            2.95027886634840       -0.45165867787105        0.51230469991439
20
 energy: -36.161162524904 gnorm: 0.000511780236 xtb: 6.7.1 (edcfbbe)
C            0.63502177474118        1.69711439422201       -0.04386127689756
C            1.39632630832189        0.39257572817149       -0.28810048401869
H            1.57470757479287        0.27387613415614       -1.37062797785844
C            0.53714329799954       -0.78673006870677        0.20480541713363
H            0.37457073394899       -0.67982151041017        1.28387099785134
C           -0.81526454498171       -0.74196568834730       -0.52090596447776
H           -0.65307711124348       -0.84897387673192       -1.59974221746195
C           -1.46792229421827        0.63362472392158       -0.26359999164906
H           -2.36628531512670        0.73018917139768       -0.89022750371382
O           -0.63577504411636        1.68847546077324       -0.67563551776163
O           -1.78452593248564        0.69589229242608        1.09181415150677
O           -1.67141126223719       -1.78696322669133       -0.15594598574769
O            1.21570603644773       -2.00888382820833        0.04693295035477
O            2.62240600496612        0.45481041509533        0.39582070171507
H            1.17276456745785        2.54260489297647       -0.47048717521733
H            0.52958091530054        1.84016932597182        1.03775028202116
H           -2.31709116217237        1.48341856291158        1.27836835748616
H           -1.92269035603856       -1.67701128280753        0.77434457078051
H            1.14566263652602       -2.31138925265942       -0.86997207520066
H            2.94942703992338       -0.45192951988161        0.51311439133180
20
 energy: -36.161163721466 gnorm: 0.000868937422 xtb: 6.7.1 (edcfbbe)
C            0.63526810333474        1.69765855407685       -0.04341396113961
C            1.39668193009528        0.39340798715907       -0.28824631350906
H            1.57432098014989        0.27514413068689       -1.37094545111049
C            0.53769758307251       -0.78596241950091        0.20488589566887
H            0.37482608605798       -0.67841318406151        1.28379570802125
C           -0.81402387903629       -0.74140111417355       -0.52130135402416
H           -0.65164414218499       -0.84748542259218       -1.60010993113644
C           -1.46739718662799        0.63391189262844       -0.26352856787594
H           -2.36561700426522        0.73029341288857       -0.89014677291654
O           -0.63528473949000        1.68906333292563       -0.67559201166297
O           -1.78380258659706        0.69612496288897        1.09181205176377
O           -1.67005694582464       -1.78706302863578       -0.15738492623925
O            1.21704470258536       -2.00787703317967        0.04768686040522
O            2.62330475888899        0.45466415649166        0.39466397162870
H            1.17325321045253        2.54343824407387       -0.46949430504627
H            0.52914451865069        1.84053971252825        1.03813863591590
H           -2.32049774260869        1.48088747118985        1.27806812765588
H           -1.91974707055974       -1.67857121508841        0.77346530815167
H            1.13684094591770       -2.31720826593204       -0.86637285527836
H            2.94896234579477       -0.45206932679498        0.51173554090447
20
 energy: -36.161164322326 gnorm: 0.000227462533 xtb: 6.7.1 (edcfbbe)
C            0.63536545207711        1.69782084601951       -0.04349550351791
C            1.39681096130248        0.39359826119020       -0.28836240114743
H            1.57405037257411        0.27517605796785       -1.37112133275644
C            0.53779558737895       -0.78578715138926        0.20496650597754
H            0.37478907238447       -0.67808635153447        1.28386841017033
C           -0.81374091972074       -0.74134748804593       -0.52139899334371
H           -0.65118924155541       -0.84729661144836       -1.60018025948714
C           -1.46724752686835        0.63384595660658       -0.26335291796788
H           -2.36544790615342        0.73026568145214       -0.88994315174370
O           -0.63508728843844        1.68904618376798       -0.67579523509927
O           -1.78311808012838        0.69592337602131        1.09190420328345
O           -1.66971522418205       -1.78711551899894       -0.15756488023869
O            1.21729223456740       -2.00761551432419        0.04771872885688
O            2.62357624823301        0.45482295631908        0.39420129133343
H            1.17328181674287        2.54369516941189       -0.46938137525499
H            0.52904283236772        1.84050270976912        1.03809255484413
H           -2.32142824913672        1.47965080476342        1.27850449669727
H           -1.92058765480616       -1.67773996788530        0.77286478400193
H            1.13589894871220       -2.31775852771588       -0.86533065972541
H            2.94893243245517       -0.45251802436772        0.51152138529427
20
 energy: -36.161164613404 gnorm: 0.000168884632 xtb: 6.7.1 (edcfbbe)
C            0.63546155263540        1.69782916025645       -0.04333757428123
C            1.39693582961249        0.39363261580786       -0.28836965160276
H            1.57419654978579        0.27524370710540       -1.37111049587960
C            0.53789907951812       -0.78568892896273        0.20504049997520
H            0.37499387059009       -0.67784850653780        1.28395302191766
C           -0.81370385833739       -0.74136627014384       -0.52133946904836
H           -0.65098310444996       -0.84737930916137       -1.60010531720186
C           -1.46719680483467        0.63371497803156       -0.26330872032228
H           -2.36532571221029        0.73028276441358       -0.89000651652088
O           -0.63499759127049        1.68900831214271       -0.67566901299883
O           -1.78307954025837        0.69566130185064        1.09187870300520
O           -1.66965232243183       -1.78715552586390       -0.15751703588196
O            1.21741974895959       -2.00755611159303        0.04792997409590
O            2.62370852117494        0.45495710715712        0.39424278749864
H            1.17317084054390        2.54379877411877       -0.46913267071510
H            0.52911409517283        1.84027587537348        1.03827186338663
H           -2.32190572614438        1.47904071124749        1.27836793101783
H           -1.92190837689056       -1.67695623347665        0.77243965053424
H            1.13531529349064       -2.31826274939831       -0.86486820700750
H            2.94981152315000       -0.45214882478839        0.51035589020571
20
 energy: -36.161164888021 gnorm: 0.000206970741 xtb: 6.7.1 (edcfbbe)
C            0.63552216667088        1.69783567145719       -0.04307238111949
C            1.39710470326460        0.39371171016372       -0.28829592688477
H            1.57442532519732        0.27542190828545       -1.37100286067264
C            0.53825734926450       -0.78570284095073        0.20519806748890
H            0.37543935462252       -0.67774923635480        1.28411768506462
C           -0.81347493320189       -0.74135123676720       -0.52119984647853
H           -0.65054174669469       -0.84754334891148       -1.59994434382021
C           -1.46713669895189        0.63354565777953       -0.26323273266886
H           -2.36507580464070        0.73024329727825       -0.89023780797916
O           -0.63498693067073        1.68901481522028       -0.67534137436047
O           -1.78338999414407        0.69532417206147        1.09182398171186
O           -1.66920895117463       -1.78718438224832       -0.15724730057563
O            1.21772246017612       -2.00760890528641        0.04808618054249
O            2.62378702493088        0.45522430498268        0.39449246193791
H            1.17301757720035        2.54393195240808       -0.46876454102717
H            0.52929513220265        1.83993655872026        1.03858158813515
H           -2.32299133512329        1.47820476815894        1.27805138746546
H           -1.92406889725254       -1.67532626344607        0.77177253980132
H            1.13406064404431       -2.31930654949595       -0.86430483745124
H            2.95151742208617       -0.45153920547586        0.50823571106710
20
 energy: -36.161164762955 gnorm: 0.000372784921 xtb: 6.7.1 (edcfbbe)
C            0.63558723694304        1.69783845026400       -0.04278990346276
C            1.39728685213907        0.39379435711408       -0.28820905220682
H            1.57466960933220        0.27560368333773       -1.37088124455035
C            0.53862962137930       -0.78571647918759        0.20536468611736
H            0.37590522944803       -0.67765663042523        1.28429217977793
C           -0.81323736592170       -0.74134518583708       -0.52104844743112
H           -0.65008816241374       -0.84771873896446       -1.59977131649770
C           -1.46707112732921        0.63336550642259       -0.26315881273601
H           -2.36480797155976        0.73018933670261       -0.89048986929505
O           -0.63497137481329        1.68901615176458       -0.67499600670304
O           -1.78372814675834        0.69496861781498        1.09176245517658
O           -1.66875240347557       -1.78722389990974       -0.15695816966311
O            1.21803703144192       -2.00765706007863        0.04822879557271
O            2.62387587530943        0.45552060692661        0.39475937213504
H            1.17286693247732        2.54406358596910       -0.46837970063437
H            0.52948170938209        1.83959407701629        1.03890801243242
H           -2.32412532650761        1.47734472789852        1.27771790630094
H           -1.92633220493239       -1.67362004774321        0.77107981511495
H            1.13272685709316       -2.32038295483344       -0.86372630341336
H            2.95332099657191       -0.45089525667270        0.50601125414241
20
 energy: -36.161164974853 gnorm: 0.000185124370 xtb: 6.7.1 (edcfbbe)
C            0.63557209424943        1.69778808550542       -0.04284674941776
C            1.39723725257140        0.39373959509740       -0.28810586653749
H            1.57458690178469        0.27550531963677       -1.37081575149417
C            0.53835828459120       -0.78570801298824        0.20526844994774
H            0.37560670510046       -0.67787595354320        1.28420321913228
C           -0.81342786080888       -0.74144441331675       -0.52106824858840
H           -0.65051530525719       -0.84769892500044       -1.59981056255776
C           -1.46706266760351        0.63350763049981       -0.26332272266957
H           -2.36485455461061        0.73012972723497       -0.89053880984820
O           -0.63487853527384        1.68898458356141       -0.67520523482771
O           -1.78371526181357        0.69528149540388        1.09169553497340
O           -1.66917297201661       -1.78724396600045       -0.15698899025923
O            1.21781678456754       -2.00756131772844        0.04789031527896
O            2.62388052045023        0.45545154256777        0.39474122049625
H            1.17313548720203        2.54388467497084       -0.46850154140000
H            0.52928038369235        1.83992612193229        1.03879191782414
H           -2.32363500910788        1.47803868729008        1.27773061229805
H           -1.92461954315320       -1.67483046789249        0.77177721432229
H            1.13315996652458       -2.31964476970156       -0.86428555989777
H            2.95252119671725       -0.45114678995005        0.50710720340160
20
 energy: -36.161164847890 gnorm: 0.000253263938 xtb: 6.7.1 (edcfbbe)
C            0.63557436944346        1.69772999868004       -0.04288736673055
C            1.39721922087927        0.39368587007360       -0.28800506269299
H            1.57452862572545        0.27540511803480       -1.37075030588307
C            0.53810149732516       -0.78567748447470        0.20518591040225
H            0.37533556897812       -0.67805237933807        1.28412520418711
C           -0.81362228142252       -0.74156039879099       -0.52107554911216
H           -0.65092426194917       -0.84768608445495       -1.59983643845007
C           -1.46704376576202        0.63361909534866       -0.26346548786757
H           -2.36487705387729        0.73005937465602       -0.89058588964972
O           -0.63477195773265        1.68893937592901       -0.67539149396258
O           -1.78368896772268        0.69554177996488        1.09163681878630
O           -1.66958321184465       -1.78729354498622       -0.15701475157484
O            1.21760183028867       -2.00744246538211        0.04758225250065
O            2.62392651137049        0.45541929000105        0.39471097167365
H            1.17339801944424        2.54370351370969       -0.46861029009225
H            0.52910301753162        1.84023425320957        1.03869239863975
H           -2.32321851529639        1.47863198789442        1.27775101356246
H           -1.92318695003022       -1.67589611550624        0.77237159614435
H            1.13353990680712       -2.31894089218020       -0.86477529240682
H            2.95186226564985       -0.45133744480922        0.50805741270273
20
 energy: -36.161165028379 gnorm: 0.000109130268 xtb: 6.7.1 (edcfbbe)
C            0.63553706271410        1.69780225599620       -0.04279817273085
C            1.39719619552470        0.39376534693767       -0.28805461506211
H            1.57458309346844        0.27553335083918       -1.37076507729277
C            0.53838230290114       -0.78575445694298        0.20526617758727
H            0.37564206888933       -0.67800086026729        1.28421564307309
C           -0.81335050945239       -0.74141124739316       -0.52106812149904
H           -0.65045780382799       -0.84766687772419       -1.59981144360356