41
 energy: -65.016271190546 gnorm: 0.056758890340 xtb: 6.7.1 (edcfbbe)
C            5.65047527394700       -1.73046629250848       -1.59326552511687
C            4.49228921601138       -0.76827573001453       -1.62343926860206
O            3.73988625628205       -0.95404196769852       -0.37238976813076
P            2.70625117972321        0.15706017625172        0.15842448240321
S            3.32493317754898        1.99291352266756        0.33397150156451
O            2.28317249623937       -0.43972348699857        1.58163010233202
C            1.86187544958914       -1.84436978290965        1.75295048619860
C            2.94921147664402       -2.60996669056661        2.46294874047132
S            1.09460664509861       -0.14413066154341       -1.19876694631116
C            0.01455913035828        1.26300807625268       -0.72636537323743
S           -1.03894655232818        1.00218354472135        0.75157852915814
P           -2.86364210228175        0.24849713791510       -0.07573710453437
S           -2.85161528904407        0.00861254262873       -2.00702012563429
O           -3.96861020400648        1.23761561822660        0.55206648301932
C           -4.05633275922668        2.62109106766176        0.06818629325871
C           -4.91604286947397        3.38227815379758        1.04344855601463
O           -3.24954565904166       -1.01433038068988        0.83482587926013
C           -2.94701803731296       -2.39675514948505        0.43719655210348
C           -1.51719577852320       -2.76609614851266        0.73971085766202
H            5.30065639250664       -2.76479223541660       -1.52788727726921
H            6.22601106875261       -1.61765243564592       -2.51725533553240
H            6.30997425237190       -1.51973866234072       -0.74682960439890
H            3.81433819281619       -0.97267531262808       -2.45755754877599
H            4.82979093486023        0.27158647514381       -1.67428470083904
H            0.94674382994475       -1.78963007304287        2.34590805210813
H            1.62400914535287       -2.27849125075516        0.77719081215605
H            2.60185323021349       -3.63370569015561        2.63879464745861
H            3.86156561897584       -2.65256365395165        1.86172432816846
H            3.17908144927395       -2.15452079163732        3.43033586518159
H           -0.62211521509103        1.46774863129730       -1.59070701907424
H            0.63976816980916        2.13717393658239       -0.51946035831981
H           -3.04617099490238        3.04213130087110        0.01073976043418
H           -4.49439933636530        2.59819507028204       -0.93407118826635
H           -5.02682958295429        4.41115286057663        0.68800776905869
H           -5.91097685222044        2.93522675787354        1.11969818789416
H           -4.45652038213061        3.40593834302487        2.03538421974877
H           -3.65052982756883       -2.98903579264306        1.02539493495521
H           -3.18589287532278       -2.51010901375282       -0.62432436731749
H           -0.81561381980451       -2.19487255974583        0.12515928307331
H           -1.28517218888422       -2.59884544545041        1.79515276727493
H           -1.37818493723277       -3.82967893484394        0.51851055160447
41
 energy: -65.020315431544 gnorm: 0.031064761345 xtb: 6.7.1 (edcfbbe)
C            5.65075082150445       -1.72405721164269       -1.59359032588321
C            4.48532208153091       -0.76290832520497       -1.61083922496998
O            3.74071043421440       -0.94551653483660       -0.36973988253694
P            2.68824701446322        0.14458831680596        0.14904382834576
S            3.30914819908856        1.98937201054666        0.31143242618486
O            2.27072144828161       -0.44632060554482        1.56619904647524
C            1.86671866674280       -1.84037340464157        1.75128087494954
C            2.95178771526216       -2.61300120847070        2.46075064349360
S            1.03417796339082       -0.17966303288712       -1.16250036019337
C            0.00589635852351        1.25881547487078       -0.72167714778992
S           -0.99977572031298        0.99663031552231        0.77799966362289
P           -2.82933774834516        0.25492246613210       -0.06278256491214
S           -2.86115446377784        0.01195906528171       -2.00926079782953
O           -3.94396355054840        1.23229391017056        0.54643043295016
C           -4.04546701504378        2.60552519123222        0.06978504437606
C           -4.91245261919839        3.37661308235109        1.03788893152313
O           -3.23590756284342       -1.00516129012048        0.82855541781565
C           -2.94838272971374       -2.37705188170365        0.43178760748724
C           -1.52043060490351       -2.76139548492761        0.73525718611911
H            5.29732734484288       -2.75057894398582       -1.52277919421249
H            6.22026112896595       -1.61120211142463       -2.51418574651838
H            6.30378382966010       -1.51619200540328       -0.74861223051510
H            3.80394628297618       -0.96920183780106       -2.43996644801793
H            4.81574163177803        0.27837005864658       -1.66152903465054
H            0.95588981216860       -1.78061194920721        2.34996893014550
H            1.63864783835499       -2.27171200094216        0.77372449846200
H            2.60702319377125       -3.63120504561416        2.63550196845319
H            3.85667754382169       -2.64367063765292        1.85720298674335
H            3.18258715643706       -2.14904826416025        3.41752492743097
H           -0.64111666872750        1.44230668680337       -1.58062836716475
H            0.65747157239413        2.11097570169731       -0.51783120809527
H           -3.03843842517938        3.03097893754946        0.01471191731830
H           -4.48070654665716        2.58012611939846       -0.93298081941346
H           -5.02327324928105        4.40001747262670        0.68333841489145
H           -5.89736870264580        2.92114141035105        1.11304820787086
H           -4.45700673708962        3.39312839776391        2.02561793870962
H           -3.65523811083438       -2.96417427039025        1.02106172517940
H           -3.17586475387583       -2.48512753249153       -0.63273894847462
H           -0.82876180086104       -2.18497665495723        0.12107571114605
H           -1.29614713938181       -2.58768915301145        1.78621897730240
H           -1.38234656634878       -3.81898015789063        0.51581312538351
41
 energy: -65.022076752062 gnorm: 0.011573756208 xtb: 6.7.1 (edcfbbe)
C            5.64077849612210       -1.71165245420115       -1.58956395475391
C            4.46741222273772       -0.75138904525772       -1.59736935029431
O            3.73174683104222       -0.93362541215912       -0.36674935726739
P            2.66372648634826        0.13087829758992        0.14870469036014
S            3.26210963850849        1.98789202049313        0.27013694028486
O            2.25863445336302       -0.45453724870097        1.55844896374186
C            1.86682027185355       -1.83675193445947        1.75180969648062
C            2.95920178885140       -2.61085744203694        2.45580254211764
S            1.00673939663807       -0.22493267235019       -1.15901967258222
C            0.01792406002047        1.22646799566526       -0.71189552449327
S           -0.97937389732106        0.99809908577594        0.78932469655076
P           -2.80716856281779        0.25745295533699       -0.04313096422647
S           -2.82701879222476        0.03290647058396       -1.99530813804783
O           -3.91997204615235        1.23050042064682        0.54735221601535
C           -4.02738510064007        2.58997705210927        0.07194563522461
C           -4.90599229211371        3.36476008325594        1.03390223450864
O           -3.22882266184676       -0.99830949905476        0.82732624048161
C           -2.95413166164838       -2.35561534068229        0.42798058139274
C           -1.52452491336758       -2.75127122422007        0.73012319489228
H            5.28488905559582       -2.73330979834989       -1.51624564287190
H            6.20344845015056       -1.59494371080124       -2.50838803670077
H            6.29006520800074       -1.50424550175822       -0.74580215374475
H            3.78885165180370       -0.95832660565684       -2.42788304990735
H            4.79769137914374        0.28988238434429       -1.64971603275799
H            0.96319448189507       -1.77921932333850        2.36099340153645
H            1.64054963010854       -2.27294448216309        0.77665905326373
H            2.61630228714319       -3.62435399675508        2.62916848937437
H            3.85615066726080       -2.63205158727434        1.84542313783150
H            3.19366144801631       -2.14149392472734        3.40517277520927
H           -0.64326190855803        1.40300738576018       -1.55939502956564
H            0.68602095440272        2.06651257120062       -0.52176102280607
H           -3.02479061557076        3.02556867327471        0.01833558843079
H           -4.46015736280529        2.56215416086258       -0.93196688996437
H           -5.01603822960573        4.38202066834454        0.67573462108691
H           -5.88299165096209        2.89930158584541        1.10276552756489
H           -4.45505853768775        3.37705952702961        2.02005127945766
H           -3.66349124458347       -2.94270812656413        1.01348849479686
H           -3.17111103648483       -2.45844591008644       -0.63971851995523
H           -0.84191315814206       -2.16932702927075        0.11473274715989
H           -1.30532261406269       -2.57255486832675        1.77796699601349
H           -1.38769524980734       -3.80362912708636        0.51014172736464
41
 energy: -65.022534953962 gnorm: 0.006737642585 xtb: 6.7.1 (edcfbbe)
C            5.63209790862880       -1.70119101699135       -1.58610908491939
C            4.45585334057422       -0.74243375666963       -1.59133402709424
O            3.73023288385624       -0.92812996850978       -0.36115232573021
P            2.65093053783271        0.12052780568061        0.15006429465751
S            3.21835879863745        1.98837159981487        0.24581946166550
O            2.25244135120510       -0.45747846420265        1.55761478670536
C            1.86433288256036       -1.83668248163853        1.75665909472495
C            2.96866357853839       -2.60571824407943        2.45222017828306
S            0.98973283740776       -0.25905033268878       -1.14460912758850
C            0.01137689975291        1.19792818951194       -0.70838684062103
S           -0.96764423525219        0.99636856288674        0.80875368618865
P           -2.79334394866950        0.26115894099443       -0.03812912065966
S           -2.80783162402621        0.04063481962476       -1.99081674740485
O           -3.89794221495489        1.23454979155227        0.55017188365786
C           -4.00981543354166        2.58721015358389        0.07165085500691
C           -4.89879764125021        3.35524304124490        1.03152508583044
O           -3.22012423101348       -0.99007253264539        0.82529708622931
C           -2.95703402448077       -2.34355924286371        0.42390351833926
C           -1.52610397297113       -2.74326363307627        0.72492845868227
H            5.27596699558019       -2.72339929424155       -1.51201143845586
H            6.19056634404431       -1.58093254509755       -2.50703789168152
H            6.28204193676389       -1.49079946714027       -0.74273838910313
H            3.77841888442960       -0.94992146701169       -2.42341503614888
H            4.78642371227538        0.29933598328388       -1.64716597857137
H            0.96648729520159       -1.78595629833265        2.37507498417747
H            1.62981347058896       -2.28286283820923        0.78723061062646
H            2.63017660786221       -3.62025348626462        2.62806507428904
H            3.86008832303479       -2.62321976681419        1.83228649746448
H            3.20946302338001       -2.13440125847021        3.39971172669172
H           -0.65647397381778        1.37926259246560       -1.55005765136086
H            0.69202744368675        2.03213822525940       -0.53402679453363
H           -3.01096356334410        3.03323767058170        0.01916891333763
H           -4.43983445995683        2.55758628946653       -0.93403874072134
H           -5.01255796398959        4.37131806328110        0.67201447011016
H           -5.87294075592992        2.88106066981394        1.09300254074220
H           -4.45158392234690        3.36788207854203        2.02006492989322
H           -3.66793267057772       -2.93260283572614        1.00545865259691
H           -3.17208306932553       -2.44575725752802       -0.64469416224150
H           -0.84535379126178       -2.16017710644249        0.10769671386046
H           -1.30655078116664       -2.56254580875685        1.77281766695776
H           -1.39088545536050       -3.79546030135000        0.50410031731934
41
 energy: -65.022729365778 gnorm: 0.005612429852 xtb: 6.7.1 (edcfbbe)
C            5.62370659145826       -1.68948137488331       -1.58435650794932
C            4.44561370578089       -0.73336126957092       -1.58704143065045
O            3.72631566408563       -0.92243754815810       -0.35427765094919
P            2.63597791846976        0.11397610923152        0.15240813132497
S            3.18420804599873        1.98781388066520        0.23649134409567
O            2.24530490442334       -0.45760568212024        1.56175030704475
C            1.86289768808784       -1.83863574611423        1.76658286925285
C            2.97985321870146       -2.60195790738278        2.44998297527960
S            0.98152558166897       -0.29348697455250       -1.14118653290874
C            0.02174322386533        1.17799940746967       -0.71361454475349
S           -0.95823853546685        0.99015047804900        0.80345876273521
P           -2.79208050474834        0.26125590554796       -0.03167748176861
S           -2.80201484668580        0.04314978448953       -1.98408977946855
O           -3.88785244679673        1.23939786621496        0.55636878602720
C           -3.99765843338937        2.58973481038342        0.07338516941854
C           -4.89523189959618        3.35143570775112        1.02953850778185
O           -3.22167346662203       -0.98850112500650        0.82694349356175
C           -2.96082202459816       -2.34052812259673        0.42090130410874
C           -1.52857437228058       -2.73932244193594        0.71940763138269
H            5.26989384225895       -2.71356275193654       -1.50964862303347
H            6.18044029025973       -1.56770971432642       -2.50733338969901
H            6.27549816783103       -1.47666626686752       -0.74171583119603
H            3.76728151814988       -0.94112912176822       -2.41906620977655
H            4.77462731355504        0.30936293050409       -1.64543865634010
H            0.97104337827783       -1.79350734836002        2.39439556086717
H            1.61626407123201       -2.29059915203147        0.80195544933216
H            2.64884370545438       -3.61966305974169        2.62993064689762
H            3.86503454063477       -2.61575801443676        1.81906147458840
H            3.22929331989110       -2.13000911298300        3.39609776070308
H           -0.65060811896834        1.36274396552224       -1.55142894961878
H            0.70849080747801        2.01050948681400       -0.55110566943735
H           -3.00018721523136        3.04083588784200        0.02570193936505
H           -4.42079881311525        2.55927333086170       -0.93573021931638
H           -5.01304263668903        4.36850708412642        0.67162780009922
H           -5.86770488757539        2.87067362872156        1.08396633724925
H           -4.45264039342661        3.36407930348486        2.02131522895716
H           -3.67171087013491       -2.93352358563744        0.99834539183892
H           -3.17615930169438       -2.44034634848836       -0.64823454842219
H           -0.84872158725491       -2.15489841497312        0.10092694136079
H           -1.30654773843369       -2.55817039436282        1.76764821059470
H           -1.39189208225050       -3.79209301660697        0.49733213262271
41
 energy: -65.022883706464 gnorm: 0.004799710793 xtb: 6.7.1 (edcfbbe)
C            5.61849805418495       -1.67820787102565       -1.58528817427810
C            4.43855867767318       -0.72626680233481       -1.58278381116829
O            3.72783923200275       -0.91966151365371       -0.34400853227387
P            2.62641979787629        0.10605809761368        0.15824891621122
S            3.15575068061457        1.98588067387894        0.23334406713359
O            2.24022531857476       -0.45938001777429        1.57074028904869
C            1.86334142407893       -1.84334053723655        1.78139201260728
C            2.99337575503985       -2.60041904112150        2.44934185090765
S            0.98163353800097       -0.31045911725641       -1.14065949112947
C            0.01887493699316        1.16026600868342       -0.72446904453380
S           -0.95486413584559        0.98602569808161        0.79853112851341
P           -2.79274359213090        0.26052460267501       -0.03096730941464
S           -2.81049144106315        0.04228100337122       -1.98297943139649
O           -3.87811790862985        1.24517469083603        0.56203861258846
C           -3.98585523201264        2.59613533548591        0.07651884092693
C           -4.89301975771396        3.35154375116617        1.02693463035880
O           -3.22347251969645       -0.98790901989989        0.82715549536128
C           -2.96260248997057       -2.34082669202883        0.41748064578185
C           -1.53008280322724       -2.73836386817337        0.71295864925834
H            5.26841129857243       -2.70419287497864       -1.50951078533859
H            6.17284677395209       -1.55535831548682       -2.51053866424490
H            6.27305119099475       -1.46337836713532       -0.74450119141658
H            3.75534046133254       -0.93452639867926       -2.41121245492688
H            4.76310888304737        0.31807800180347       -1.64241533046383
H            0.97879653363484       -1.80035359157839        2.41999083280403
H            1.60287762984468       -2.29626306139358        0.82025558386044
H            2.67145332537659       -3.62138184821764        2.63425047917114
H            3.87075847694317       -2.60989589490362        1.80623669689204
H            3.25341096374757       -2.12798592782999        3.39317120000763
H           -0.65497195857627        1.34303952936793       -1.56183314712856
H            0.70697302813592        1.99393574067257       -0.57265524108324
H           -2.98869370203421        3.04922470964863        0.03672740212059
H           -4.39950203415046        2.56456501715806       -0.93681447877328
H           -5.01533657564667        4.37005541056272        0.67215831748166
H           -5.86384360978849        2.86536272259651        1.07418806525286
H           -4.45689584119818        3.36446912228526        2.02232104899289
H           -3.67320141744185       -2.93591389154696        0.99312465715467
H           -3.18041810002845       -2.43768510012840       -0.65159064700351
H           -0.85073782449235       -2.15396125762517        0.09299702780418
H           -1.30477645848802       -2.55710824794529        1.76116497812401
H           -1.39222125588125       -3.79183578509533        0.49053443741209
41
 energy: -65.023101603379 gnorm: 0.005758776757 xtb: 6.7.1 (edcfbbe)
C            5.61128915851203       -1.65941434358176       -1.58869527355685
C            4.42789823431590       -0.71472502299934       -1.57433223239610
O            3.73141906141961       -0.91330283017402       -0.32496232959804
P            2.61510574772840        0.09867236929258        0.17044451729004
S            3.12346814040450        1.98471467412921        0.24137634607676
O            2.23057531435513       -0.46137896481737        1.58617524157997
C            1.86635277408327       -1.85095415115876        1.80661813078757
C            3.01678001945765       -2.59881650759411        2.44756587757957
S            0.98421504478385       -0.34137503451818       -1.13706385417935
C            0.01508967905725        1.13085617411511       -0.74734585021420
S           -0.94989903908888        0.97569186376910        0.78285879907237
P           -2.79802693713235        0.25854839104351       -0.03238588254014
S           -2.83509090125820        0.04024854017169       -1.98422725248744
O           -3.86707854422273        1.25386289089250        0.57137155218899
C           -3.96845130549026        2.60766185298355        0.08477600582774
C           -4.89226777026472        3.35542290023354        1.02271358052108
O           -3.22889387366865       -0.98880310055352        0.82702960918007
C           -2.96536539334989       -2.34320950749016        0.41188117817965
C           -1.53261824669987       -2.73864734538366        0.70139626049529
H            5.26803591568570       -2.68792353990029       -1.51141579783159
H            6.15950667787671       -1.53385420013417       -2.51786952703091
H            6.27160184383891       -1.44237822029691       -0.75259497106256
H            3.73423602969271       -0.92420664494843       -2.39410725590885
H            4.74417658224349        0.33213426752821       -1.63481806449025
H            0.99596186914972       -1.80980810320865        2.46529874429702
H            1.58371832407879       -2.30317288243831        0.85094334838085
H            2.70966352462493       -3.62378345470531        2.64037038727013
H            3.87991024859923       -2.60095926608472        1.78459331899689
H            3.29508759740588       -2.12556618492972        3.38631822737452
H           -0.66151579037126        1.29963945570531       -1.58605354527496
H            0.69974136966262        1.97049419594406       -0.61217144981282
H           -2.97031733703967        3.06015572472394        0.06305351207825
H           -4.36311691554600        2.57569363588113       -0.93646880023628
H           -5.01828189804360        4.37522721660504        0.67139308190511
H           -5.86078357364493        2.86307599120040        1.05670051387882
H           -4.46930061677689        3.36884500623393        2.02428134200273
H           -3.67430436067047       -2.94026385725369        0.98741443523018
H           -3.18822575552486       -2.43495508913843       -0.65664352023898
H           -0.85481409064717       -2.15527755767106        0.07835517448743
H           -1.30158315467452       -2.55753301941021        1.74876718973130
H           -1.39420033025608       -3.79269124922424        0.47903736364841
41
 energy: -65.023344003044 gnorm: 0.007305058377 xtb: 6.7.1 (edcfbbe)
C            5.60481884637104       -1.63581152052822       -1.59412586010903
C            4.41613282390236       -0.70023280954686       -1.56009618060634
O            3.73994941824207       -0.90444427125530       -0.29751979145919
P            2.60486741496572        0.09062294459556        0.18864593003221
S            3.08434186971793        1.98578042521467        0.25459007886745
O            2.21767141676619       -0.46567303996428        1.60604009308614
C            1.87305598260507       -1.86072399401612        1.83895210167349
C            3.04836750131516       -2.59795780275648        2.44476002360937
S            0.99353742920223       -0.37724715771119       -1.13346565322743
C            0.00968230249842        1.09285624158398       -0.77986066780283
S           -0.94417050937847        0.96273462257286        0.75881331157538
P           -2.80643932163811        0.25650056159757       -0.03413625058275
S           -2.86994083891363        0.04107015600839       -1.98635879644667
O           -3.85777720912058        1.26266603715511        0.58342133332274
C           -3.94794966591996        2.62034660739100        0.09897877137357
C           -4.89425474302041        3.36240499489313        1.01762889918750
O           -3.23733044193474       -0.99072991206087        0.82643721603446
C           -2.97059898091484       -2.34559883834340        0.40494221435115
C           -1.53692782661564       -2.73944279581408        0.68566552694869
H            5.27001824253013       -2.66669444737983       -1.51532496878490
H            6.14068063422799       -1.50427345316724       -2.52959299452442
H            6.27414890841192       -1.41686774301572       -0.76599100664780
H            3.70819090150381       -0.91299917219834       -2.36687182892565
H            4.72177465017700        0.34947639938678       -1.62255012924201
H            1.02273110281295       -1.82149423077207        2.52448120296443
H            1.56427267216411       -2.31173524528025        0.89075138330672
H            2.75803864200710       -3.62595626310182        2.64631361368205
H            3.89195371202741       -2.59078788565968        1.75694914789488
H            3.34985582685957       -2.12272651625570        3.37540886512778
H           -0.67286884872467        1.23193368622300       -1.62060698997159
H            0.68541203691270        1.94354076937935       -0.66792166390288
H           -2.94810541071375        3.07031207891239        0.10508768839323
H           -4.31583333220538        2.59115038223031       -0.93280058650805
H           -5.01908083721063        4.38218205553077        0.66667048256360
H           -5.86050032417769        2.86513498328682        1.03186865822798
H           -4.49140943338639        3.37635418129171        2.02758200525510
H           -3.67612095380584       -2.94425945398650        0.98277274713339
H           -3.19968583216871       -2.43193325323595       -0.66258967057884
H           -0.86233514004024       -2.15800786360607        0.05773155051518
H           -1.29849465248596       -2.55787317446025        1.73109803942138
H           -1.39998071023926       -3.79365121029921        0.46380028597358
41
 energy: -65.023573941713 gnorm: 0.007045459146 xtb: 6.7.1 (edcfbbe)
C            5.60035425455523       -1.61185024303635       -1.59930418949896
C            4.40593702273146       -0.68463857056893       -1.54233075282909
O            3.75067665526509       -0.89247523215034       -0.26812903941515
P            2.59629812508202        0.08574371143846        0.20773319614809
S            3.04926899470435        1.98705278050435        0.27348139799460
O            2.20415924630702       -0.47039462787754        1.62456419290451
C            1.88325913028268       -1.86935940033121        1.86987248354787
C            3.08187236340395       -2.59663602762307        2.44084434734288
S            1.00587451905895       -0.41678666759667       -1.12914271849932
C            0.00402753554045        1.05011574963018       -0.81395236866317
S           -0.93981526374268        0.95012167574085        0.73287176938256
P           -2.81585660180463        0.25600612684296       -0.03745886455488
S           -2.90911502377862        0.04504051613830       -1.98966306716380
O           -3.85188420887900        1.26936655871283        0.59580847923600
C           -3.92865361627716        2.63063999762622        0.11700014243046
C           -4.89880659945759        3.37049953788502        1.01300825744623
O           -3.24527292512273       -0.99170246135872        0.82484660384988
C           -2.97824382051977       -2.34602972129818        0.39848703134340
C           -1.54264179185805       -2.73997360308741        0.66849924596694
H            5.27393826289696       -2.64475725948574       -1.51967033351420
H            6.11946491958057       -1.47207039139833       -2.54257495741520
H            6.28104464477739       -1.39179407134574       -0.78130855140526
H            3.68467116053555       -0.90229291955421       -2.33565879143395
H            4.70223391728688        0.36713444718369       -1.60839545182496
H            1.05480700326701       -1.83382780042808        2.58215626173787
H            1.55020781009765       -2.32214671262440        0.93126922886720
H            2.80634886387864       -3.62612631134036        2.65028277193879
H            3.90468617778521       -2.58150059349211        1.72927195609615
H            3.40626527668270       -2.11843177721022        3.36184492176733
H           -0.68534912151935        1.15181652018914       -1.65620354071992
H            0.66792679805991        1.91374027483663       -0.72870732667023
H           -2.92778296113834        3.07756017078023        0.15405116455002
H           -4.26819508418587        2.60781325522123       -0.92485150422258
H           -5.01661801322380        4.38916589437684        0.65841715653670
H           -5.86374932649524        2.87127815295672        1.00385918663531
H           -4.52034632097515        3.38497289464166        2.03221863556083
H           -3.67897634139259       -2.94547959281251        0.98113519597990
H           -3.21444438973598       -2.42943808873449       -0.66744719113157
H           -0.87252679411699       -2.16130969801254        0.03394145100166
H           -1.29577264832689       -2.55675839270839        1.71122710033030
H           -1.40957450662245       -3.79434302779159        0.44768460156743
41
 energy: -65.023762262790 gnorm: 0.004634235870 xtb: 6.7.1 (edcfbbe)
C            5.59991133067051       -1.59130444330773       -1.60234649426384
C            4.40067925386303       -0.67049254702166       -1.52379182454622
O            3.76418308611257       -0.88043058539612       -0.24179114832317
P            2.59107762060111        0.08146497426827        0.22466628736024
S            3.01283190734074        1.99109871545871        0.28677782025225
O            2.19424459858662       -0.47715385891594        1.63941324903529