21
 energy: -25.389424057006 gnorm: 0.021264378116 xtb: 6.7.1 (edcfbbe)
C           -2.52547729087573        0.78569184645757       -0.00012986246315
C           -1.22143104471378        0.03247890371795       -0.00007987764457
C           -1.24305725575764       -1.36671767559328        0.00000353996150
C           -0.06372982225404       -2.10246755376761        0.00009662257934
C            1.15901571126316       -1.43961761153424        0.00006320471969
C            1.21338308134821       -0.04378559738169       -0.00003812563673
C            0.01720894969525        0.70208691684417       -0.00008823018457
C            0.09813928300504        2.20401183703962        0.00018413417535
C            2.54416779387308        0.65434892733264       -0.00014173274754
H           -2.62135158437340        1.43020666085902       -0.88099386251511
H           -3.36738080632597        0.08915556297412        0.00000927025731
H           -2.62126503237064        1.43050986743591        0.88051791686329
H           -2.20084629708976       -1.88016795343622        0.00002729681960
H           -0.09735957137632       -3.18796835750732        0.00020605256194
H            2.08607513032759       -2.00682657493860        0.00014232655171
H            0.64750588327171        2.56745913835463       -0.87642166541315
H           -0.88471752312403        2.67441251336941       -0.00224142006902
H            0.64302529534055        2.56727916698190        0.87969894747622
H            3.36254731251877       -0.06951682833573        0.00089037179008
H            2.65875301021202        1.29901336645420       -0.87951365356697
H            2.65803059647655        1.30079943397688        0.87799694812137
21
 energy: -25.390484654392 gnorm: 0.006636804717 xtb: 6.7.1 (edcfbbe)
C           -2.51767675216825        0.78318264308301       -0.00009906115449
C           -1.21445818084084        0.03734938084294       -0.00006463029989
C           -1.23607708083758       -1.35370584152400       -0.00000808377080
C           -0.06328034869743       -2.08574994621152        0.00006674049416
C            1.15254465673789       -1.42661337302292        0.00003988184420
C            1.20614476465915       -0.03845092565185       -0.00003348958332
C            0.01689226504691        0.70319089181308       -0.00007643249826
C            0.09991188743783        2.20056903153070        0.00014411060843
C            2.53543942235905        0.65332797737090       -0.00009944246762
H           -2.60683292724510        1.41776976317294       -0.88314086804886
H           -3.35241905296496        0.08463785688098        0.00005727169359
H           -2.60670989838679        1.41808103695615        0.88272424508067
H           -2.18853627996689       -1.86753635491267        0.00001419594639
H           -0.09675828595493       -3.16685464976694        0.00016579812830
H            2.07412783518220       -1.99399222791143        0.00010999754432
H            0.64594437724297        2.55145557617987       -0.87759070463603
H           -0.88108853799859        2.66404073214132       -0.00226940724831
H            0.64150301956234        2.55130149639948        0.88072505399704
H            3.34676782820471       -0.07206481764769        0.00092246037902
H            2.64327449562593        1.28934385893828       -0.88034551429236
H            2.64252261207302        1.29110388064272        0.87894607992040
21
 energy: -25.390540730877 gnorm: 0.001610680572 xtb: 6.7.1 (edcfbbe)
C           -2.51571049789778        0.78363666355608       -0.00006558035372
C           -1.21264470708878        0.03783373210772       -0.00006757826194
C           -1.23462275359196       -1.35134604236113       -0.00001922376465
C           -0.06308390583936       -2.08300183995298        0.00003590026535
C            1.15119400028410       -1.42400119174226        0.00002450925296
C            1.20370365747595       -0.03744978486920       -0.00003245945778
C            0.01639142282169        0.70287504215948       -0.00009110083612
C            0.10078085953909        2.20051294147709        0.00010246368047
C            2.53268988492586        0.65451032544196       -0.00005608779878
H           -2.60219131279104        1.41507865079553       -0.88333554713893
H           -3.34781813661824        0.08411189657752        0.00012553757840
H           -2.60200748417453        1.41540868621261        0.88297880953112
H           -2.18541116022878       -1.86550141043239        0.00000332530578
H           -0.09643414900305       -3.16277775484418        0.00010998618368
H            2.07123646162173       -1.99132186892964        0.00008367600776
H            0.64628239311623        2.54672446562134       -0.87731098247507
H           -0.87913978734952        2.66288157159845       -0.00229365172608
H            0.64189524134815        2.54661088179270        0.88030744938160
H            3.34133721580134       -0.07176773791101        0.00097433563503
H            2.63779449066640        1.28781752950928       -0.88019577871354
H            2.63699408605314        1.28955123349636        0.87891019934104
21
 energy: -25.390542978990 gnorm: 0.000154840914 xtb: 6.7.1 (edcfbbe)
C           -2.51608904772950        0.78424727332466       -0.00003082496246
C           -1.21274266963746        0.03747005455294       -0.00006849634782
C           -1.23487031673805       -1.35172736507312       -0.00003674994415
C           -0.06301597893250       -2.08354828250675       -0.00000448651744
C            1.15140384957208       -1.42416205234529        0.00000276858281
C            1.20336640577906       -0.03750961038606       -0.00003311278650
C            0.01606417729024        0.70259850419186       -0.00010183617583
C            0.10116873098778        2.20108586622339        0.00005817708736
C            2.53266555729016        0.65537106540370       -0.00001061158839
H           -2.60136001964210        1.41519183991316       -0.88332179291851
H           -3.34800435390900        0.08468148684216        0.00020530709260
H           -2.60110255575372        1.41554692232165        0.88302367113886
H           -2.18535590129424       -1.86633221752971       -0.00000782134860
H           -0.09630881414880       -3.16321539237164        0.00004961027195
H            2.07128048172632       -1.99162980540653        0.00006490704561
H            0.64674838749764        2.54579240768417       -0.87743639391008
H           -0.87856434763060        2.66354927227386       -0.00231441545201
H            0.64243154850871        2.54572910747092        0.88027934194289
H            3.34101195805465       -0.07101443095693        0.00103293842675
H            2.63668294487806        1.28828169552584       -0.88014527781290
H            2.63582578290191        1.28997965015106        0.87898329981245
21
 energy: -25.390543037874 gnorm: 0.000044695924 xtb: 6.7.1 (edcfbbe)
C           -2.51621096933373        0.78432716481389       -0.00000545983262
C           -1.21283752983362        0.03734483544543       -0.00007157003976
C           -1.23495165035923       -1.35187296135370       -0.00005036186203
C           -0.06300460928210       -2.08363236183343       -0.00002986555865
C            1.15148657354107       -1.42427955993983       -0.00000787370579
C            1.20343614146041       -0.03760087998960       -0.00003198103782
C            0.01603010131734        0.70250292638933       -0.00011030539262
C            0.10114760701260        2.20107497878249        0.00002709397166
C            2.53279206011489        0.65541725002579        0.00002258221674
H           -2.60142640188564        1.41536720057367       -0.88333276913807
H           -3.34835602991078        0.08495865670963        0.00027020250739
H           -2.60110974644835        1.41575131570197        0.88307031829052
H           -2.18542059158109       -1.86666071276434       -0.00002309582763
H           -0.09630271545382       -3.16335960751267        0.00000269125873
H            2.07136558653428       -1.99186824974125        0.00005083400753
H            0.64671403290657        2.54581573649095       -0.87755354630712
H           -0.87863050341188        2.66358416818455       -0.00232193053784
H            0.64246016593549        2.54578964115750        0.88028006710145
H            3.34132245350491       -0.07083131900417        0.00107533660483
H            2.63681435175880        1.28844269156591       -0.88013601916983
H            2.63591749248453        1.29011507560124        0.87906385408750
