      -----------------------------------------------------------      
     |                   =====================                   |     
     |                           x T B                           |     
     |                   =====================                   |     
     |                         S. Grimme                         |     
     |          Mulliken Center for Theoretical Chemistry        |     
     |                    University of Bonn                     |     
      -----------------------------------------------------------      

   * xtb version 6.7.1 (edcfbbe) compiled by 'albert@albert-system' on 2024-07-22

   xtb is free software: you can redistribute it and/or modify it under
   the terms of the GNU Lesser General Public License as published by
   the Free Software Foundation, either version 3 of the License, or
   (at your option) any later version.
   
   xtb is distributed in the hope that it will be useful,
   but WITHOUT ANY WARRANTY; without even the implied warranty of
   MERCHANTABILITY or FITNESS FOR A PARTICULAR PURPOSE.  See the
   GNU Lesser General Public License for more details.
   
   Cite this work as:
   * C. Bannwarth, E. Caldeweyher, S. Ehlert, A. Hansen, P. Pracht,
     J. Seibert, S. Spicher, S. Grimme, WIREs Comput. Mol. Sci., 2020, 11,
     e01493. DOI: 10.1002/wcms.1493
   
   for GFN2-xTB:
   * C. Bannwarth, S. Ehlert and S. Grimme., J. Chem. Theory Comput., 2019,
     15, 1652-1671. DOI: 10.1021/acs.jctc.8b01176
   for GFN1-xTB:
   * S. Grimme, C. Bannwarth, P. Shushkov, J. Chem. Theory Comput., 2017,
     13, 1989-2009. DOI: 10.1021/acs.jctc.7b00118
   for GFN0-xTB:
   * P. Pracht, E. Caldeweyher, S. Ehlert, S. Grimme, ChemRxiv, 2019, preprint.
     DOI: 10.26434/chemrxiv.8326202.v1
   for GFN-FF:
   * S. Spicher and S. Grimme, Angew. Chem. Int. Ed., 2020, 59, 15665-15673.
     DOI: 10.1002/anie.202004239
   
   for ALPB and GBSA implicit solvation:
   * S. Ehlert, M. Stahn, S. Spicher, S. Grimme, J. Chem. Theory Comput.,
     2021, 17, 4250-4261. DOI: 10.1021/acs.jctc.1c00471
   
   for ddCOSMO and CPCM-X implicit solvation:
   * M. Stahn, S. Ehlert, S. Grimme, J. Phys. Chem. A,
     2023, XX, XXXX-XXXX. DOI: 10.1021/acs.jpca.3c04382
   
   for DFT-D4:
   * E. Caldeweyher, C. Bannwarth and S. Grimme, J. Chem. Phys., 2017,
     147, 034112. DOI: 10.1063/1.4993215
   * E. Caldeweyher, S. Ehlert, A. Hansen, H. Neugebauer, S. Spicher,
     C. Bannwarth and S. Grimme, J. Chem. Phys., 2019, 150, 154122.
     DOI: 10.1063/1.5090222
   * E. Caldeweyher, J.-M. Mewes, S. Ehlert and S. Grimme, Phys. Chem. Chem. Phys.
     2020, 22, 8499-8512. DOI: 10.1039/D0CP00502A
   
   for sTDA-xTB:
   * S. Grimme and C. Bannwarth, J. Chem. Phys., 2016, 145, 054103.
     DOI: 10.1063/1.4959605
   
   in the mass-spec context:
   * V. Asgeirsson, C. Bauer and S. Grimme, Chem. Sci., 2017, 8, 4879.
     DOI: 10.1039/c7sc00601b
   * J. Koopman and S. Grimme, ACS Omega 2019, 4, 12, 15120-15133.
     DOI: 10.1021/acsomega.9b02011
   
   for metadynamics refer to:
   * S. Grimme, J. Chem. Theory Comput., 2019, 155, 2847-2862
     DOI: 10.1021/acs.jctc.9b00143
   
   for SPH calculations refer to:
   * S. Spicher and S. Grimme, J. Chem. Theory Comput., 2021, 17, 1701-1714
     DOI: 10.1021/acs.jctc.0c01306
   
   for ONIOM refer to:
   * C. Plett, A. Katbashev, S. Ehlert, S. Grimme, M. Bursch,
     Phys. Chem. Chem. Phys., 2023, 25, 17860-17868. DOI: 10.1039/D3CP02178E
   
   for DIPRO refer to:
   * J. Kohn, N. Gildemeister, S. Grimme, D. Fazzi, A. Hansen,
     J. Chem. Phys., 2023, just accepted.
   
   for PTB refer to:
   * S. Grimme, M. Mueller, A. Hansen, J. Chem. Phys., 2023, 158, 124111.
     DOI: 10.1063/5.0137838
   
   with help from (in alphabetical order)
   P. Atkinson, C. Bannwarth, F. Bohle, G. Brandenburg, E. Caldeweyher
   M. Checinski, S. Dohm, S. Ehlert, S. Ehrlich, I. Gerasimov, C. Hölzer
   A. Katbashev, J. Kohn, J. Koopman, C. Lavigne, S. Lehtola, F. März, M. Müller,
   F. Musil, H. Neugebauer, J. Pisarek, C. Plett, P. Pracht, F. Pultar,
   J. Seibert, P. Shushkov, S. Spicher, M. Stahn, M. Steiner, T. Strunk,
   J. Stückrath, T. Rose, and J. Unsleber
   
 * started run on 2025/04/03 at 19:44:54.496     
   ID    Z sym.   atoms
    1    6 C      1
    2    7 N      2
    3    8 O      3, 4
    4    1 H      5-7

           -------------------------------------------------
          |                Calculation Setup                |
           -------------------------------------------------

          program call               : /srv/scratch/z5358697/.xtb/bin/xtb gas.coord --gfn2 --sp --chrg 0 --norestart --parallel 1
          hostname                   : k141
          coordinate file            : gas.coord
          omp threads                :                     1


           -------------------------------------------------
          |                 G F N 2 - x T B                 |
           -------------------------------------------------

        Reference                      10.1021/acs.jctc.8b01176
      * Hamiltonian:
        H0-scaling (s, p, d)           1.850000    2.230000    2.230000
        zeta-weighting                 0.500000
      * Dispersion:
        s8                             2.700000
        a1                             0.520000
        a2                             5.000000
        s9                             5.000000
      * Repulsion:
        kExp                           1.500000    1.000000
        rExp                           1.000000
      * Coulomb:
        alpha                          2.000000
        third order                    shell-resolved
        anisotropic                    true
        a3                             3.000000
        a5                             4.000000
        cn-shift                       1.200000
        cn-exp                         4.000000
        max-rad                        5.000000


          ...................................................
          :                      SETUP                      :
          :.................................................:
          :  # basis functions                  19          :
          :  # atomic orbitals                  19          :
          :  # shells                           11          :
          :  # electrons                        24          :
          :  max. iterations                   250          :
          :  Hamiltonian                  GFN2-xTB          :
          :  restarted?                      false          :
          :  GBSA solvation                  false          :
          :  PC potential                    false          :
          :  electronic temp.          300.0000000     K    :
          :  accuracy                    1.0000000          :
          :  -> integral cutoff          0.2500000E+02      :
          :  -> integral neglect         0.1000000E-07      :
          :  -> SCF convergence          0.1000000E-05 Eh   :
          :  -> wf. convergence          0.1000000E-03 e    :
          :  Broyden damping             0.4000000          :
          :  net charge                          0          :
          :  unpaired electrons                  0          :
          ...................................................

 iter      E             dE          RMSdq      gap      omega  full diag
   1    -14.5869660 -0.145870E+02  0.689E+00    5.40       0.0  T
   2    -14.7185401 -0.131574E+00  0.270E+00    3.90       1.0  T
   3    -14.7194121 -0.872061E-03  0.164E+00    3.81       1.0  T
   4    -14.7196612 -0.249131E-03  0.151E-01    3.79       1.0  T
   5    -14.7196691 -0.783466E-05  0.925E-02    3.79       1.0  T
   6    -14.7196705 -0.137490E-05  0.122E-02    3.79       3.1  T
   7    -14.7196706 -0.119050E-06  0.327E-03    3.79      11.6  T
   8    -14.7196706 -0.116853E-07  0.133E-03    3.79      28.5  T
   9    -14.7196706 -0.139674E-08  0.649E-04    3.79      58.2  T
  10    -14.7196706 -0.374159E-09  0.645E-05    3.79     585.7  T

   *** convergence criteria satisfied after 10 iterations ***

         #    Occupation            Energy/Eh            Energy/eV
      -------------------------------------------------------------
         1        2.0000           -0.7851337             -21.3646
       ...           ...                  ...                  ...
         6        2.0000           -0.6084153             -16.5558
         7        2.0000           -0.5994915             -16.3130
         8        2.0000           -0.5327824             -14.4977
         9        2.0000           -0.5304118             -14.4332
        10        2.0000           -0.4808907             -13.0857
        11        2.0000           -0.4601963             -12.5226
        12        2.0000           -0.4555878             -12.3972 (HOMO)
        13                         -0.3163827              -8.6092 (LUMO)
        14                         -0.0127581              -0.3472
        15                          0.1059164               2.8821
        16                          0.1512675               4.1162
        17                          0.1592203               4.3326
       ...                                ...                  ...
        19                          0.4160789              11.3221
      -------------------------------------------------------------
                  HL-Gap            0.1392051 Eh            3.7880 eV
             Fermi-level           -0.3859852 Eh          -10.5032 eV

 SCC (total)                   0 d,  0 h,  0 min,  0.016 sec
 SCC setup                      ...        0 min,  0.000 sec (  0.918%)
 Dispersion                     ...        0 min,  0.000 sec (  0.193%)
 classical contributions        ...        0 min,  0.000 sec (  0.070%)
 integral evaluation            ...        0 min,  0.000 sec (  3.131%)
 iterations                     ...        0 min,  0.014 sec ( 89.641%)
 molecular gradient             ...        0 min,  0.001 sec (  5.241%)
 printout                       ...        0 min,  0.000 sec (  0.751%)

         :::::::::::::::::::::::::::::::::::::::::::::::::::::
         ::                     SUMMARY                     ::
         :::::::::::::::::::::::::::::::::::::::::::::::::::::
         :: total energy             -14.622291890483 Eh    ::
         :: gradient norm              0.030840350542 Eh/a0 ::
         :: HOMO-LUMO gap              3.787963022599 eV    ::
         ::.................................................::
         :: SCC energy               -14.719670378660 Eh    ::
         :: -> isotropic ES            0.049824914536 Eh    ::
         :: -> anisotropic ES          0.008744257184 Eh    ::
         :: -> anisotropic XC         -0.002160787481 Eh    ::
         :: -> dispersion             -0.002391387189 Eh    ::
         :: repulsion energy           0.097378488176 Eh    ::
         :: add. restraining           0.000000000000 Eh    ::
         :: total charge              -0.000000000000 e     ::
         :::::::::::::::::::::::::::::::::::::::::::::::::::::

           -------------------------------------------------
          |                Property Printout                |
           -------------------------------------------------

    * Orbital Energies and Occupations

         #    Occupation            Energy/Eh            Energy/eV
      -------------------------------------------------------------
         1        2.0000           -0.7851337             -21.3646
         2        2.0000           -0.7633825             -20.7727
         3        2.0000           -0.7172600             -19.5176
         4        2.0000           -0.6595326             -17.9468
         5        2.0000           -0.6347534             -17.2725
         6        2.0000           -0.6084153             -16.5558
         7        2.0000           -0.5994915             -16.3130
         8        2.0000           -0.5327824             -14.4977
         9        2.0000           -0.5304118             -14.4332
        10        2.0000           -0.4808907             -13.0857
        11        2.0000           -0.4601963             -12.5226
        12        2.0000           -0.4555878             -12.3972 (HOMO)
        13                         -0.3163827              -8.6092 (LUMO)
        14                         -0.0127581              -0.3472
        15                          0.1059164               2.8821
        16                          0.1512675               4.1162
        17                          0.1592203               4.3326
        18                          0.2406505               6.5484
        19                          0.4160789              11.3221
      -------------------------------------------------------------
                  HL-Gap            0.1392051 Eh            3.7880 eV
             Fermi-level           -0.3859852 Eh          -10.5032 eV

     #   Z          covCN         q      C6AA      α(0)
     1   6 C        3.690    -0.128    23.167     6.888
     2   7 N        2.753     0.560    13.370     5.431
     3   8 O        0.929    -0.376    21.180     6.172
     4   8 O        0.929    -0.377    21.184     6.173
     5   1 H        0.925     0.105     1.737     2.061
     6   1 H        0.925     0.106     1.735     2.060
     7   1 H        0.924     0.110     1.696     2.037

 Mol. C6AA /au·bohr⁶  :        464.713100
 Mol. C8AA /au·bohr⁸  :       9581.522436
 Mol. α(0) /au        :         30.821058


Wiberg/Mayer (AO) data.
largest (>0.10) Wiberg bond orders for each atom

 ---------------------------------------------------------------------------
     #   Z sym  total        # sym  WBO       # sym  WBO       # sym  WBO
 ---------------------------------------------------------------------------
     1   6 C    3.959 --     5 H    0.971     6 H    0.971     2 N    0.962
                             7 H    0.945
     2   7 N    3.918 --     3 O    1.475     4 O    1.475     1 C    0.962
     3   8 O    1.941 --     2 N    1.475     4 O    0.377
     4   8 O    1.941 --     2 N    1.475     3 O    0.377
     5   1 H    0.989 --     1 C    0.971
     6   1 H    0.989 --     1 C    0.971
     7   1 H    0.988 --     1 C    0.945
 ---------------------------------------------------------------------------

Topologies differ in total number of bonds
Writing topology from bond orders to xtbtopo.mol

molecular dipole:
                 x           y           z       tot (Debye)
 q only:        1.556      -0.001      -0.014
   full:        1.687      -0.001      -0.033       4.289
molecular quadrupole (traceless):
                xx          xy          yy          xz          yz          zz
 q only:        2.368      -0.003      -3.486      -0.096       0.000       1.118
  q+dip:        1.887       0.001      -4.714      -0.193       0.000       2.828
   full:        1.758      -0.000      -4.876      -0.199       0.000       3.118


           -------------------------------------------------
          | TOTAL ENERGY              -14.622291890483 Eh   |
          | GRADIENT NORM               0.030840350542 Eh/α |
          | HOMO-LUMO GAP               3.787963022599 eV   |
           -------------------------------------------------

------------------------------------------------------------------------
 * finished run on 2025/04/03 at 19:44:54.540     
------------------------------------------------------------------------
 total:
 * wall-time:     0 d,  0 h,  0 min,  0.043 sec
 *  cpu-time:     0 d,  0 h,  0 min,  0.011 sec
 * ratio c/w:     0.253 speedup
 SCF:
 * wall-time:     0 d,  0 h,  0 min,  0.016 sec
 *  cpu-time:     0 d,  0 h,  0 min,  0.004 sec
 * ratio c/w:     0.281 speedup

