      -----------------------------------------------------------      
     |                   =====================                   |     
     |                           x T B                           |     
     |                   =====================                   |     
     |                         S. Grimme                         |     
     |          Mulliken Center for Theoretical Chemistry        |     
     |                    University of Bonn                     |     
      -----------------------------------------------------------      

   * xtb version 6.7.1 (edcfbbe) compiled by 'albert@albert-system' on 2024-07-22

   xtb is free software: you can redistribute it and/or modify it under
   the terms of the GNU Lesser General Public License as published by
   the Free Software Foundation, either version 3 of the License, or
   (at your option) any later version.
   
   xtb is distributed in the hope that it will be useful,
   but WITHOUT ANY WARRANTY; without even the implied warranty of
   MERCHANTABILITY or FITNESS FOR A PARTICULAR PURPOSE.  See the
   GNU Lesser General Public License for more details.
   
   Cite this work as:
   * C. Bannwarth, E. Caldeweyher, S. Ehlert, A. Hansen, P. Pracht,
     J. Seibert, S. Spicher, S. Grimme, WIREs Comput. Mol. Sci., 2020, 11,
     e01493. DOI: 10.1002/wcms.1493
   
   for GFN2-xTB:
   * C. Bannwarth, S. Ehlert and S. Grimme., J. Chem. Theory Comput., 2019,
     15, 1652-1671. DOI: 10.1021/acs.jctc.8b01176
   for GFN1-xTB:
   * S. Grimme, C. Bannwarth, P. Shushkov, J. Chem. Theory Comput., 2017,
     13, 1989-2009. DOI: 10.1021/acs.jctc.7b00118
   for GFN0-xTB:
   * P. Pracht, E. Caldeweyher, S. Ehlert, S. Grimme, ChemRxiv, 2019, preprint.
     DOI: 10.26434/chemrxiv.8326202.v1
   for GFN-FF:
   * S. Spicher and S. Grimme, Angew. Chem. Int. Ed., 2020, 59, 15665-15673.
     DOI: 10.1002/anie.202004239
   
   for ALPB and GBSA implicit solvation:
   * S. Ehlert, M. Stahn, S. Spicher, S. Grimme, J. Chem. Theory Comput.,
     2021, 17, 4250-4261. DOI: 10.1021/acs.jctc.1c00471
   
   for ddCOSMO and CPCM-X implicit solvation:
   * M. Stahn, S. Ehlert, S. Grimme, J. Phys. Chem. A,
     2023, XX, XXXX-XXXX. DOI: 10.1021/acs.jpca.3c04382
   
   for DFT-D4:
   * E. Caldeweyher, C. Bannwarth and S. Grimme, J. Chem. Phys., 2017,
     147, 034112. DOI: 10.1063/1.4993215
   * E. Caldeweyher, S. Ehlert, A. Hansen, H. Neugebauer, S. Spicher,
     C. Bannwarth and S. Grimme, J. Chem. Phys., 2019, 150, 154122.
     DOI: 10.1063/1.5090222
   * E. Caldeweyher, J.-M. Mewes, S. Ehlert and S. Grimme, Phys. Chem. Chem. Phys.
     2020, 22, 8499-8512. DOI: 10.1039/D0CP00502A
   
   for sTDA-xTB:
   * S. Grimme and C. Bannwarth, J. Chem. Phys., 2016, 145, 054103.
     DOI: 10.1063/1.4959605
   
   in the mass-spec context:
   * V. Asgeirsson, C. Bauer and S. Grimme, Chem. Sci., 2017, 8, 4879.
     DOI: 10.1039/c7sc00601b
   * J. Koopman and S. Grimme, ACS Omega 2019, 4, 12, 15120-15133.
     DOI: 10.1021/acsomega.9b02011
   
   for metadynamics refer to:
   * S. Grimme, J. Chem. Theory Comput., 2019, 155, 2847-2862
     DOI: 10.1021/acs.jctc.9b00143
   
   for SPH calculations refer to:
   * S. Spicher and S. Grimme, J. Chem. Theory Comput., 2021, 17, 1701-1714
     DOI: 10.1021/acs.jctc.0c01306
   
   for ONIOM refer to:
   * C. Plett, A. Katbashev, S. Ehlert, S. Grimme, M. Bursch,
     Phys. Chem. Chem. Phys., 2023, 25, 17860-17868. DOI: 10.1039/D3CP02178E
   
   for DIPRO refer to:
   * J. Kohn, N. Gildemeister, S. Grimme, D. Fazzi, A. Hansen,
     J. Chem. Phys., 2023, just accepted.
   
   for PTB refer to:
   * S. Grimme, M. Mueller, A. Hansen, J. Chem. Phys., 2023, 158, 124111.
     DOI: 10.1063/5.0137838
   
   with help from (in alphabetical order)
   P. Atkinson, C. Bannwarth, F. Bohle, G. Brandenburg, E. Caldeweyher
   M. Checinski, S. Dohm, S. Ehlert, S. Ehrlich, I. Gerasimov, C. Hölzer
   A. Katbashev, J. Kohn, J. Koopman, C. Lavigne, S. Lehtola, F. März, M. Müller,
   F. Musil, H. Neugebauer, J. Pisarek, C. Plett, P. Pracht, F. Pultar,
   J. Seibert, P. Shushkov, S. Spicher, M. Stahn, M. Steiner, T. Strunk,
   J. Stückrath, T. Rose, and J. Unsleber
   
 * started run on 2025/04/03 at 19:42:34.656     
   ID    Z sym.   atoms
    1    6 C      1, 2, 4, 6, 8
    2    1 H      3, 5, 7, 9, 15-20
    3    8 O      10-14

           -------------------------------------------------
          |                Calculation Setup                |
           -------------------------------------------------

          program call               : /srv/scratch/z5358697/.xtb/bin/xtb gas.coord --gfn2 --sp --chrg 0 --norestart --parallel 1
          hostname                   : k155
          coordinate file            : gas.coord
          omp threads                :                     1


           -------------------------------------------------
          |                 G F N 2 - x T B                 |
           -------------------------------------------------

        Reference                      10.1021/acs.jctc.8b01176
      * Hamiltonian:
        H0-scaling (s, p, d)           1.850000    2.230000    2.230000
        zeta-weighting                 0.500000
      * Dispersion:
        s8                             2.700000
        a1                             0.520000
        a2                             5.000000
        s9                             5.000000
      * Repulsion:
        kExp                           1.500000    1.000000
        rExp                           1.000000
      * Coulomb:
        alpha                          2.000000
        third order                    shell-resolved
        anisotropic                    true
        a3                             3.000000
        a5                             4.000000
        cn-shift                       1.200000
        cn-exp                         4.000000
        max-rad                        5.000000


          ...................................................
          :                      SETUP                      :
          :.................................................:
          :  # basis functions                  50          :
          :  # atomic orbitals                  50          :
          :  # shells                           30          :
          :  # electrons                        60          :
          :  max. iterations                   250          :
          :  Hamiltonian                  GFN2-xTB          :
          :  restarted?                      false          :
          :  GBSA solvation                  false          :
          :  PC potential                    false          :
          :  electronic temp.          300.0000000     K    :
          :  accuracy                    1.0000000          :
          :  -> integral cutoff          0.2500000E+02      :
          :  -> integral neglect         0.1000000E-07      :
          :  -> SCF convergence          0.1000000E-05 Eh   :
          :  -> wf. convergence          0.1000000E-03 e    :
          :  Broyden damping             0.4000000          :
          :  net charge                          0          :
          :  unpaired electrons                  0          :
          ...................................................

 iter      E             dE          RMSdq      gap      omega  full diag
   1    -36.3473463 -0.363473E+02  0.463E+00   10.60       0.0  T
   2    -36.3790415 -0.316952E-01  0.252E+00   10.25       1.0  T
   3    -36.3799041 -0.862560E-03  0.741E-01   10.25       1.0  T
   4    -36.3806732 -0.769117E-03  0.138E-01   10.23       1.0  T
   5    -36.3807244 -0.512278E-04  0.528E-02   10.26       1.0  T
   6    -36.3807348 -0.104480E-04  0.177E-02   10.27       1.3  T
   7    -36.3807353 -0.424841E-06  0.663E-03   10.27       3.4  T
   8    -36.3807356 -0.377224E-06  0.174E-03   10.27      12.9  T
   9    -36.3807357 -0.155708E-08  0.805E-04   10.27      27.8  T
  10    -36.3807357 -0.439936E-08  0.251E-04   10.27      88.9  T

   *** convergence criteria satisfied after 10 iterations ***

         #    Occupation            Energy/Eh            Energy/eV
      -------------------------------------------------------------
         1        2.0000           -0.7292712             -19.8445
       ...           ...                  ...                  ...
        24        2.0000           -0.4801178             -13.0647
        25        2.0000           -0.4773765             -12.9901
        26        2.0000           -0.4582960             -12.4709
        27        2.0000           -0.4471421             -12.1674
        28        2.0000           -0.4284535             -11.6588
        29        2.0000           -0.4261035             -11.5949
        30        2.0000           -0.4078721             -11.0988 (HOMO)
        31                         -0.0305608              -0.8316 (LUMO)
        32                         -0.0048466              -0.1319
        33                          0.0199919               0.5440
        34                          0.0369979               1.0068
        35                          0.0461272               1.2552
       ...                                ...                  ...
        50                          0.2836017               7.7172
      -------------------------------------------------------------
                  HL-Gap            0.3773113 Eh           10.2672 eV
             Fermi-level           -0.2192165 Eh           -5.9652 eV

 SCC (total)                   0 d,  0 h,  0 min,  0.013 sec
 SCC setup                      ...        0 min,  0.000 sec (  1.081%)
 Dispersion                     ...        0 min,  0.000 sec (  0.656%)
 classical contributions        ...        0 min,  0.000 sec (  0.135%)
 integral evaluation            ...        0 min,  0.002 sec ( 13.386%)
 iterations                     ...        0 min,  0.006 sec ( 45.063%)
 molecular gradient             ...        0 min,  0.005 sec ( 38.659%)
 printout                       ...        0 min,  0.000 sec (  0.951%)

         :::::::::::::::::::::::::::::::::::::::::::::::::::::
         ::                     SUMMARY                     ::
         :::::::::::::::::::::::::::::::::::::::::::::::::::::
         :: total energy             -36.130456174561 Eh    ::
         :: gradient norm              0.014795530739 Eh/a0 ::
         :: HOMO-LUMO gap             10.267162473011 eV    ::
         ::.................................................::
         :: SCC energy               -36.380654877258 Eh    ::
         :: -> isotropic ES            0.114046567411 Eh    ::
         :: -> anisotropic ES         -0.001003226527 Eh    ::
         :: -> anisotropic XC         -0.007974155546 Eh    ::
         :: -> dispersion             -0.015356339060 Eh    ::
         :: repulsion energy           0.250198702696 Eh    ::
         :: add. restraining           0.000000000000 Eh    ::
         :: total charge              -0.000000000000 e     ::
         :::::::::::::::::::::::::::::::::::::::::::::::::::::

           -------------------------------------------------
          |                Property Printout                |
           -------------------------------------------------

    * Orbital Energies and Occupations

         #    Occupation            Energy/Eh            Energy/eV
      -------------------------------------------------------------
         1        2.0000           -0.7292712             -19.8445
       ...           ...                  ...                  ...
        18        2.0000           -0.5422077             -14.7542
        19        2.0000           -0.5365714             -14.6009
        20        2.0000           -0.5192734             -14.1301
        21        2.0000           -0.5099975             -13.8777
        22        2.0000           -0.5050417             -13.7429
        23        2.0000           -0.4917598             -13.3815
        24        2.0000           -0.4801178             -13.0647
        25        2.0000           -0.4773765             -12.9901
        26        2.0000           -0.4582960             -12.4709
        27        2.0000           -0.4471421             -12.1674
        28        2.0000           -0.4284535             -11.6588
        29        2.0000           -0.4261035             -11.5949
        30        2.0000           -0.4078721             -11.0988 (HOMO)
        31                         -0.0305608              -0.8316 (LUMO)
        32                         -0.0048466              -0.1319
        33                          0.0199919               0.5440
        34                          0.0369979               1.0068
        35                          0.0461272               1.2552
        36                          0.0593067               1.6138
        37                          0.0732377               1.9929
        38                          0.0804189               2.1883
        39                          0.0868710               2.3639
        40                          0.1047542               2.8505
        41                          0.1316845               3.5833
       ...                                ...                  ...
        50                          0.2836017               7.7172
      -------------------------------------------------------------
                  HL-Gap            0.3773113 Eh           10.2672 eV
             Fermi-level           -0.2192165 Eh           -5.9652 eV

     #   Z          covCN         q      C6AA      α(0)
     1   6 C        3.690     0.060    19.750     6.360
     2   6 C        3.723     0.090    19.197     6.257
     3   1 H        0.923     0.038     2.474     2.460
     4   6 C        3.726     0.092    19.152     6.249
     5   1 H        0.924     0.080     1.981     2.201
     6   6 C        3.724     0.080    19.347     6.281
     7   1 H        0.924     0.043     2.409     2.427
     8   6 C        3.618     0.230    17.424     6.021
     9   1 H        0.924     0.059     2.214     2.327
    10   8 O        1.699    -0.330    19.535     5.967
    11   8 O        1.654    -0.463    22.118     6.349
    12   8 O        1.655    -0.431    21.461     6.254
    13   8 O        1.655    -0.429    21.424     6.248
    14   8 O        1.655    -0.442    21.675     6.285
    15   1 H        0.924     0.033     2.550     2.497
    16   1 H        0.924     0.060     2.200     2.319
    17   1 H        0.803     0.326     0.647     1.263
    18   1 H        0.804     0.308     0.696     1.311
    19   1 H        0.805     0.292     0.745     1.356
    20   1 H        0.804     0.304     0.709     1.322

 Mol. C6AA /au·bohr⁶  :       3261.463079
 Mol. C8AA /au·bohr⁸  :      69320.833956
 Mol. α(0) /au        :         81.754935


Wiberg/Mayer (AO) data.
largest (>0.10) Wiberg bond orders for each atom

 ---------------------------------------------------------------------------
     #   Z sym  total        # sym  WBO       # sym  WBO       # sym  WBO
 ---------------------------------------------------------------------------
     1   6 C    3.956 --     2 C    0.984    10 O    0.976    16 H    0.968
                            15 H    0.967
     2   6 C    3.954 --    14 O    0.988     1 C    0.984     3 H    0.960
                             4 C    0.958
     3   1 H    0.999 --     2 C    0.960
     4   6 C    3.956 --    13 O    1.007     6 C    0.962     2 C    0.958
                             5 H    0.953
     5   1 H    0.994 --     4 C    0.953
     6   6 C    3.964 --    12 O    1.011     4 C    0.962     7 H    0.957
                             8 C    0.948
     7   1 H    0.998 --     6 C    0.957
     8   6 C    3.934 --    11 O    1.006    10 O    0.974     9 H    0.950
                             6 C    0.948
     9   1 H    0.997 --     8 C    0.950
    10   8 O    2.082 --     1 C    0.976     8 C    0.974
    11   8 O    1.971 --     8 C    1.006    17 H    0.844
    12   8 O    1.974 --     6 C    1.011    18 H    0.884
    13   8 O    1.980 --     4 C    1.007    19 H    0.895
    14   8 O    1.988 --     2 C    0.988    20 H    0.889
    15   1 H    0.999 --     1 C    0.967
    16   1 H    0.996 --     1 C    0.968
    17   1 H    0.893 --    11 O    0.844
    18   1 H    0.905 --    12 O    0.884
    19   1 H    0.915 --    13 O    0.895
    20   1 H    0.908 --    14 O    0.889
 ---------------------------------------------------------------------------

Topologies differ in total number of bonds
Writing topology from bond orders to xtbtopo.mol

molecular dipole:
                 x           y           z       tot (Debye)
 q only:        0.970       0.471      -0.337
   full:        1.316       0.766      -0.554       4.118
molecular quadrupole (traceless):
                xx          xy          yy          xz          yz          zz
 q only:        1.011       6.372      -5.536      -1.337       0.556       4.525
  q+dip:        1.592       8.123      -7.684      -0.383       0.619       6.092
   full:        1.402       8.444      -7.787      -1.001       0.854       6.384


           -------------------------------------------------
          | TOTAL ENERGY              -36.130456174561 Eh   |
          | GRADIENT NORM               0.014795530739 Eh/α |
          | HOMO-LUMO GAP              10.267162473011 eV   |
           -------------------------------------------------

------------------------------------------------------------------------
 * finished run on 2025/04/03 at 19:42:34.702     
------------------------------------------------------------------------
 total:
 * wall-time:     0 d,  0 h,  0 min,  0.045 sec
 *  cpu-time:     0 d,  0 h,  0 min,  0.020 sec
 * ratio c/w:     0.433 speedup
 SCF:
 * wall-time:     0 d,  0 h,  0 min,  0.013 sec
 *  cpu-time:     0 d,  0 h,  0 min,  0.013 sec
 * ratio c/w:     0.992 speedup

