      -----------------------------------------------------------      
     |                   =====================                   |     
     |                           x T B                           |     
     |                   =====================                   |     
     |                         S. Grimme                         |     
     |          Mulliken Center for Theoretical Chemistry        |     
     |                    University of Bonn                     |     
      -----------------------------------------------------------      

   * xtb version 6.7.1 (edcfbbe) compiled by 'albert@albert-system' on 2024-07-22

   xtb is free software: you can redistribute it and/or modify it under
   the terms of the GNU Lesser General Public License as published by
   the Free Software Foundation, either version 3 of the License, or
   (at your option) any later version.
   
   xtb is distributed in the hope that it will be useful,
   but WITHOUT ANY WARRANTY; without even the implied warranty of
   MERCHANTABILITY or FITNESS FOR A PARTICULAR PURPOSE.  See the
   GNU Lesser General Public License for more details.
   
   Cite this work as:
   * C. Bannwarth, E. Caldeweyher, S. Ehlert, A. Hansen, P. Pracht,
     J. Seibert, S. Spicher, S. Grimme, WIREs Comput. Mol. Sci., 2020, 11,
     e01493. DOI: 10.1002/wcms.1493
   
   for GFN2-xTB:
   * C. Bannwarth, S. Ehlert and S. Grimme., J. Chem. Theory Comput., 2019,
     15, 1652-1671. DOI: 10.1021/acs.jctc.8b01176
   for GFN1-xTB:
   * S. Grimme, C. Bannwarth, P. Shushkov, J. Chem. Theory Comput., 2017,
     13, 1989-2009. DOI: 10.1021/acs.jctc.7b00118
   for GFN0-xTB:
   * P. Pracht, E. Caldeweyher, S. Ehlert, S. Grimme, ChemRxiv, 2019, preprint.
     DOI: 10.26434/chemrxiv.8326202.v1
   for GFN-FF:
   * S. Spicher and S. Grimme, Angew. Chem. Int. Ed., 2020, 59, 15665-15673.
     DOI: 10.1002/anie.202004239
   
   for ALPB and GBSA implicit solvation:
   * S. Ehlert, M. Stahn, S. Spicher, S. Grimme, J. Chem. Theory Comput.,
     2021, 17, 4250-4261. DOI: 10.1021/acs.jctc.1c00471
   
   for ddCOSMO and CPCM-X implicit solvation:
   * M. Stahn, S. Ehlert, S. Grimme, J. Phys. Chem. A,
     2023, XX, XXXX-XXXX. DOI: 10.1021/acs.jpca.3c04382
   
   for DFT-D4:
   * E. Caldeweyher, C. Bannwarth and S. Grimme, J. Chem. Phys., 2017,
     147, 034112. DOI: 10.1063/1.4993215
   * E. Caldeweyher, S. Ehlert, A. Hansen, H. Neugebauer, S. Spicher,
     C. Bannwarth and S. Grimme, J. Chem. Phys., 2019, 150, 154122.
     DOI: 10.1063/1.5090222
   * E. Caldeweyher, J.-M. Mewes, S. Ehlert and S. Grimme, Phys. Chem. Chem. Phys.
     2020, 22, 8499-8512. DOI: 10.1039/D0CP00502A
   
   for sTDA-xTB:
   * S. Grimme and C. Bannwarth, J. Chem. Phys., 2016, 145, 054103.
     DOI: 10.1063/1.4959605
   
   in the mass-spec context:
   * V. Asgeirsson, C. Bauer and S. Grimme, Chem. Sci., 2017, 8, 4879.
     DOI: 10.1039/c7sc00601b
   * J. Koopman and S. Grimme, ACS Omega 2019, 4, 12, 15120-15133.
     DOI: 10.1021/acsomega.9b02011
   
   for metadynamics refer to:
   * S. Grimme, J. Chem. Theory Comput., 2019, 155, 2847-2862
     DOI: 10.1021/acs.jctc.9b00143
   
   for SPH calculations refer to:
   * S. Spicher and S. Grimme, J. Chem. Theory Comput., 2021, 17, 1701-1714
     DOI: 10.1021/acs.jctc.0c01306
   
   for ONIOM refer to:
   * C. Plett, A. Katbashev, S. Ehlert, S. Grimme, M. Bursch,
     Phys. Chem. Chem. Phys., 2023, 25, 17860-17868. DOI: 10.1039/D3CP02178E
   
   for DIPRO refer to:
   * J. Kohn, N. Gildemeister, S. Grimme, D. Fazzi, A. Hansen,
     J. Chem. Phys., 2023, just accepted.
   
   for PTB refer to:
   * S. Grimme, M. Mueller, A. Hansen, J. Chem. Phys., 2023, 158, 124111.
     DOI: 10.1063/5.0137838
   
   with help from (in alphabetical order)
   P. Atkinson, C. Bannwarth, F. Bohle, G. Brandenburg, E. Caldeweyher
   M. Checinski, S. Dohm, S. Ehlert, S. Ehrlich, I. Gerasimov, C. Hölzer
   A. Katbashev, J. Kohn, J. Koopman, C. Lavigne, S. Lehtola, F. März, M. Müller,
   F. Musil, H. Neugebauer, J. Pisarek, C. Plett, P. Pracht, F. Pultar,
   J. Seibert, P. Shushkov, S. Spicher, M. Stahn, M. Steiner, T. Strunk,
   J. Stückrath, T. Rose, and J. Unsleber
   
 * started run on 2025/04/09 at 07:31:32.230     
   ID    Z sym.   atoms
    1    6 C      1, 2, 4, 6, 7, 9, 12, 13, 18, 20
    2    8 O      3, 5, 10, 11, 17, 19
    3    1 H      8, 21-38
    4   16 S      14, 16
    5   15 P      15

           -------------------------------------------------
          |                Calculation Setup                |
           -------------------------------------------------

          program call               : /software/projects/pawsey0265/mwang1/xtb/bin/xtb solv.coord --gfn2 --sp --chrg 0 --norestart --parallel 1 --alpb water reference -I xtb_sp-xcontrol-inp
          hostname                   : nid002043
          coordinate file            : solv.coord
          omp threads                :                     1


           -------------------------------------------------
          |                 G F N 2 - x T B                 |
           -------------------------------------------------

        Reference                      10.1021/acs.jctc.8b01176
      * Hamiltonian:
        H0-scaling (s, p, d)           1.850000    2.230000    2.230000
        zeta-weighting                 0.500000
      * Dispersion:
        s8                             2.700000
        a1                             0.520000
        a2                             5.000000
        s9                             5.000000
      * Repulsion:
        kExp                           1.500000    1.000000
        rExp                           1.000000
      * Coulomb:
        alpha                          2.000000
        third order                    shell-resolved
        anisotropic                    true
        a3                             3.000000
        a5                             4.000000
        cn-shift                       1.200000
        cn-exp                         4.000000
        max-rad                        5.000000

      * Solvation model:               ALPB
        Solvent                        water
        Parameter file                 internal GFN2-xTB/ALPB
        Dielectric constant                8.0200E+01
        Reference state                gsolv=reference [X=1]
        Free energy shift                  2.8945E-03 Eh       1.8164E+00 kcal/mol
        Temperature                        2.9815E+02 K
        Density                            1.0000E+00 kg/L
        Solvent mass                       1.8000E+01 g/mol
        Interaction kernel             P16
        Born radius scaling (c1)           1.4744E+00
        Born radii integrator          GBOBC
        Born offset                        0.0000E+00 a0       0.0000E+00 AA
        H-bond correction              true
        Ion screening                  false
        Surface tension                    1.0000E-05 Eh       1.5569E+01 dyn/cm
        Grid points                               974 per atom

          ...................................................
          :                      SETUP                      :
          :.................................................:
          :  # basis functions                 113          :
          :  # atomic orbitals                 110          :
          :  # shells                           60          :
          :  # electrons                       112          :
          :  max. iterations                   250          :
          :  Hamiltonian                  GFN2-xTB          :
          :  restarted?                      false          :
          :  GBSA solvation                   true          :
          :  PC potential                    false          :
          :  electronic temp.          300.0000000     K    :
          :  accuracy                    1.0000000          :
          :  -> integral cutoff          0.2500000E+02      :
          :  -> integral neglect         0.1000000E-07      :
          :  -> SCF convergence          0.1000000E-05 Eh   :
          :  -> wf. convergence          0.1000000E-03 e    :
          :  Broyden damping             0.4000000          :
          :  net charge                          0          :
          :  unpaired electrons                  0          :
          ...................................................

 iter      E             dE          RMSdq      gap      omega  full diag
   1    -65.0998376 -0.650998E+02  0.582E+00    4.10       0.0  T
   2    -65.2326408 -0.132803E+00  0.309E+00    3.29       1.0  T
   3    -65.2418819 -0.924109E-02  0.122E+00    3.03       1.0  T
   4    -65.2477218 -0.583992E-02  0.441E-01    2.93       1.0  T
   5    -65.2485092 -0.787463E-03  0.190E-01    3.02       1.0  T
   6    -65.2486177 -0.108478E-03  0.860E-02    3.03       1.0  T
   7    -65.2486375 -0.198053E-04  0.306E-02    3.05       1.0  T
   8    -65.2486400 -0.244887E-05  0.138E-02    3.04       1.2  T
   9    -65.2486408 -0.776875E-06  0.490E-03    3.05       3.3  T
  10    -65.2486408 -0.637084E-07  0.277E-03    3.05       5.9  T
  11    -65.2486408 -0.204563E-07  0.663E-04    3.05      24.5  T
  12    -65.2486408 -0.139072E-08  0.347E-04    3.05      46.7  T

   *** convergence criteria satisfied after 12 iterations ***

         #    Occupation            Energy/Eh            Energy/eV
      -------------------------------------------------------------
         1        2.0000           -0.7712533             -20.9869
       ...           ...                  ...                  ...
        50        2.0000           -0.4491581             -12.2222
        51        2.0000           -0.4480709             -12.1926
        52        2.0000           -0.4440895             -12.0843
        53        2.0000           -0.4373476             -11.9008
        54        2.0000           -0.4061514             -11.0519
        55        2.0000           -0.3911619             -10.6441
        56        2.0000           -0.3871743             -10.5355 (HOMO)
        57                         -0.2752310              -7.4894 (LUMO)
        58                         -0.2630940              -7.1592
        59                         -0.2553931              -6.9496
        60                         -0.2029714              -5.5231
        61                         -0.1682962              -4.5796
       ...                                ...                  ...
       110                          1.4343385              39.0303
      -------------------------------------------------------------
                  HL-Gap            0.1119433 Eh            3.0461 eV
             Fermi-level           -0.3312027 Eh           -9.0125 eV

 SCC (total)                   0 d,  0 h,  0 min,  0.096 sec
 SCC setup                      ...        0 min,  0.005 sec (  4.731%)
 Dispersion                     ...        0 min,  0.000 sec (  0.507%)
 classical contributions        ...        0 min,  0.000 sec (  0.124%)
 integral evaluation            ...        0 min,  0.021 sec ( 22.297%)
 iterations                     ...        0 min,  0.033 sec ( 35.019%)
 molecular gradient             ...        0 min,  0.035 sec ( 36.904%)
 printout                       ...        0 min,  0.000 sec (  0.387%)

         :::::::::::::::::::::::::::::::::::::::::::::::::::::
         ::                     SUMMARY                     ::
         :::::::::::::::::::::::::::::::::::::::::::::::::::::
         :: total energy             -64.677811407479 Eh    ::
         :: total w/o Gsasa/hb       -64.678516208151 Eh    ::
         :: gradient norm              0.000056457350 Eh/a0 ::
         :: HOMO-LUMO gap              3.046132155007 eV    ::
         ::.................................................::
         :: SCC energy               -65.247524469163 Eh    ::
         :: -> isotropic ES            0.182166005922 Eh    ::
         :: -> anisotropic ES         -0.026467903712 Eh    ::
         :: -> anisotropic XC          0.016315820629 Eh    ::
         :: -> dispersion             -0.045565382402 Eh    ::
         :: -> Gsolv                  -0.034663121827 Eh    ::
         ::    -> Gelec               -0.035367922499 Eh    ::
         ::    -> Gsasa                0.003058216195 Eh    ::
         ::    -> Ghb                 -0.005247964684 Eh    ::
         ::    -> Gshift               0.002894549160 Eh    ::
         :: repulsion energy           0.569713061685 Eh    ::
         :: add. restraining           0.000000000000 Eh    ::
         :: total charge              -0.000000000000 e     ::
         :::::::::::::::::::::::::::::::::::::::::::::::::::::

           -------------------------------------------------
          |                Property Printout                |
           -------------------------------------------------

    * Orbital Energies and Occupations

         #    Occupation            Energy/Eh            Energy/eV
      -------------------------------------------------------------
         1        2.0000           -0.7712533             -20.9869
       ...           ...                  ...                  ...
        44        2.0000           -0.4767812             -12.9739
        45        2.0000           -0.4694325             -12.7739
        46        2.0000           -0.4675733             -12.7233
        47        2.0000           -0.4599772             -12.5166
        48        2.0000           -0.4576382             -12.4530
        49        2.0000           -0.4541260             -12.3574
        50        2.0000           -0.4491581             -12.2222
        51        2.0000           -0.4480709             -12.1926
        52        2.0000           -0.4440895             -12.0843
        53        2.0000           -0.4373476             -11.9008
        54        2.0000           -0.4061514             -11.0519
        55        2.0000           -0.3911619             -10.6441
        56        2.0000           -0.3871743             -10.5355 (HOMO)
        57                         -0.2752310              -7.4894 (LUMO)
        58                         -0.2630940              -7.1592
        59                         -0.2553931              -6.9496
        60                         -0.2029714              -5.5231
        61                         -0.1682962              -4.5796
        62                         -0.1471824              -4.0050
        63                         -0.1101664              -2.9978
        64                         -0.0527444              -1.4352
        65                         -0.0365668              -0.9950
        66                         -0.0338944              -0.9223
        67                         -0.0200520              -0.5456
       ...                                ...                  ...
       110                          1.4343385              39.0303
      -------------------------------------------------------------
                  HL-Gap            0.1119433 Eh            3.0461 eV
             Fermi-level           -0.3312027 Eh           -9.0125 eV

     #   Z          covCN         q      C6AA      α(0)
     1   6 C        3.751    -0.123    22.919     6.827
     2   6 C        3.692     0.066    19.641     6.341
     3   8 O        1.703    -0.234    17.886     5.710
     4   6 C        2.712     0.375    20.648     7.438
     5   8 O        0.948    -0.460    22.869     6.414
     6   6 C        3.824    -0.108    22.548     6.757
     7   6 C        3.850     0.002    20.508     6.441
     8   1 H        0.925     0.138     1.474     1.899
     9   6 C        2.772     0.368    20.769     7.464
    10   8 O        0.857    -0.474    23.216     6.460
    11   8 O        1.703    -0.240    17.982     5.725
    12   6 C        3.697     0.077    19.455     6.309
    13   6 C        3.752    -0.134    23.135     6.859
    14  16 S        1.966    -0.121   146.113    20.345
    15  15 P        3.912     0.351   145.573    21.674
    16  16 S        0.925    -0.468   159.868    21.386
    17   8 O        1.657    -0.292    18.875     5.865
    18   6 C        3.787     0.033    20.033     6.375
    19   8 O        1.655    -0.263    18.375     5.787
    20   6 C        3.813     0.017    20.274     6.409
    21   1 H        0.925     0.050     2.315     2.379
    22   1 H        0.925     0.075     2.027     2.226
    23   1 H        0.925     0.073     2.058     2.243
    24   1 H        0.924     0.059     2.206     2.323
    25   1 H        0.924     0.094     1.845     2.124
    26   1 H        0.924     0.130     1.535     1.938
    27   1 H        0.925     0.125     1.572     1.961
    28   1 H        0.924     0.067     2.123     2.279
    29   1 H        0.924     0.066     2.132     2.283
    30   1 H        0.925     0.074     2.047     2.237
    31   1 H        0.925     0.077     2.014     2.219
    32   1 H        0.925     0.082     1.960     2.189
    33   1 H        0.925     0.098     1.802     2.099
    34   1 H        0.925     0.076     2.021     2.223
    35   1 H        0.924     0.064     2.158     2.297
    36   1 H        0.925     0.088     1.899     2.155
    37   1 H        0.925     0.084     1.940     2.178
    38   1 H        0.925     0.110     1.699     2.038

 Mol. C6AA /au·bohr⁶  :      18235.127917
 Mol. C8AA /au·bohr⁸  :     514410.582906
 Mol. α(0) /au        :        207.878421


Wiberg/Mayer (AO) data.
largest (>0.10) Wiberg bond orders for each atom

 ---------------------------------------------------------------------------
     #   Z sym  total        # sym  WBO       # sym  WBO       # sym  WBO
 ---------------------------------------------------------------------------
     1   6 C    3.986 --     2 C    1.013    23 H    0.982    21 H    0.982
                            22 H    0.978
     2   6 C    3.899 --     1 C    1.013    24 H    0.971    25 H    0.965
                             3 O    0.907
     3   8 O    2.366 --     4 C    1.221     2 C    0.907     5 O    0.169
     4   6 C    3.910 --     5 O    1.634     3 O    1.221     6 C    0.975
     5   8 O    2.061 --     4 C    1.634     3 O    0.169    15 P    0.129
     6   6 C    3.979 --     7 C    0.994     4 C    0.975    27 H    0.953
                            26 H    0.937
     7   6 C    3.968 --     6 C    0.994    14 S    0.954     9 C    0.953
                             8 H    0.922
     8   1 H    0.980 --     7 C    0.922
     9   6 C    3.922 --    10 O    1.669    11 O    1.218     7 C    0.953
    10   8 O    1.996 --     9 C    1.669    11 O    0.177
    11   8 O    2.358 --     9 C    1.218    12 C    0.898    10 O    0.177
    12   6 C    3.893 --    13 C    1.019    28 H    0.968    29 H    0.963
                            11 O    0.898
    13   6 C    3.981 --    12 C    1.019    31 H    0.983    30 H    0.982
                            32 H    0.978
    14  16 S    2.263 --    15 P    0.956     7 C    0.954    16 S    0.140
    15  15 P    5.299 --    16 S    1.494    19 O    1.321    17 O    1.257
                            14 S    0.956     5 O    0.129
    16  16 S    1.825 --    15 P    1.494    14 S    0.140
    17   8 O    2.355 --    15 P    1.257    18 C    0.922
    18   6 C    3.896 --    35 H    0.978    34 H    0.978    33 H    0.974
                            17 O    0.922
    19   8 O    2.382 --    15 P    1.321    20 C    0.894
    20   6 C    3.880 --    37 H    0.978    36 H    0.973    38 H    0.972
                            19 O    0.894
    21   1 H    0.997 --     1 C    0.982
    22   1 H    0.994 --     1 C    0.978
    23   1 H    0.995 --     1 C    0.982
    24   1 H    0.996 --     2 C    0.971
    25   1 H    0.991 --     2 C    0.965
    26   1 H    0.983 --     6 C    0.937
    27   1 H    0.984 --     6 C    0.953
    28   1 H    0.995 --    12 C    0.968
    29   1 H    0.996 --    12 C    0.963
    30   1 H    0.995 --    13 C    0.982
    31   1 H    0.994 --    13 C    0.983
    32   1 H    0.992 --    13 C    0.978
    33   1 H    0.990 --    18 C    0.974
    34   1 H    0.994 --    18 C    0.978
    35   1 H    0.996 --    18 C    0.978
    36   1 H    0.992 --    20 C    0.973
    37   1 H    0.993 --    20 C    0.978
    38   1 H    0.988 --    20 C    0.972
 ---------------------------------------------------------------------------

Topologies differ in total number of bonds
Writing topology from bond orders to xtbtopo.mol

molecular dipole:
                 x           y           z       tot (Debye)
 q only:        1.938       0.457      -1.998
   full:        1.583       0.245      -1.943       6.400
molecular quadrupole (traceless):
                xx          xy          yy          xz          yz          zz
 q only:       17.732       6.486      -6.160       6.655       4.882     -11.572
  q+dip:       15.916       5.509      -1.988       0.046       2.611     -13.928
   full:       15.300       6.224      -1.703       0.763       3.216     -13.597


           -------------------------------------------------
          | TOTAL ENERGY              -64.677811407479 Eh   |
          | GRADIENT NORM               0.000056457350 Eh/α |
          | HOMO-LUMO GAP               3.046132155007 eV   |
           -------------------------------------------------

------------------------------------------------------------------------
 * finished run on 2025/04/09 at 07:31:32.375     
------------------------------------------------------------------------
 total:
 * wall-time:     0 d,  0 h,  0 min,  0.143 sec
 *  cpu-time:     0 d,  0 h,  0 min,  0.116 sec
 * ratio c/w:     0.807 speedup
 SCF:
 * wall-time:     0 d,  0 h,  0 min,  0.096 sec
 *  cpu-time:     0 d,  0 h,  0 min,  0.092 sec
 * ratio c/w:     0.954 speedup

