      -----------------------------------------------------------      
     |                   =====================                   |     
     |                           x T B                           |     
     |                   =====================                   |     
     |                         S. Grimme                         |     
     |          Mulliken Center for Theoretical Chemistry        |     
     |                    University of Bonn                     |     
      -----------------------------------------------------------      

   * xtb version 6.7.1 (edcfbbe) compiled by 'albert@albert-system' on 2024-07-22

   xtb is free software: you can redistribute it and/or modify it under
   the terms of the GNU Lesser General Public License as published by
   the Free Software Foundation, either version 3 of the License, or
   (at your option) any later version.
   
   xtb is distributed in the hope that it will be useful,
   but WITHOUT ANY WARRANTY; without even the implied warranty of
   MERCHANTABILITY or FITNESS FOR A PARTICULAR PURPOSE.  See the
   GNU Lesser General Public License for more details.
   
   Cite this work as:
   * C. Bannwarth, E. Caldeweyher, S. Ehlert, A. Hansen, P. Pracht,
     J. Seibert, S. Spicher, S. Grimme, WIREs Comput. Mol. Sci., 2020, 11,
     e01493. DOI: 10.1002/wcms.1493
   
   for GFN2-xTB:
   * C. Bannwarth, S. Ehlert and S. Grimme., J. Chem. Theory Comput., 2019,
     15, 1652-1671. DOI: 10.1021/acs.jctc.8b01176
   for GFN1-xTB:
   * S. Grimme, C. Bannwarth, P. Shushkov, J. Chem. Theory Comput., 2017,
     13, 1989-2009. DOI: 10.1021/acs.jctc.7b00118
   for GFN0-xTB:
   * P. Pracht, E. Caldeweyher, S. Ehlert, S. Grimme, ChemRxiv, 2019, preprint.
     DOI: 10.26434/chemrxiv.8326202.v1
   for GFN-FF:
   * S. Spicher and S. Grimme, Angew. Chem. Int. Ed., 2020, 59, 15665-15673.
     DOI: 10.1002/anie.202004239
   
   for ALPB and GBSA implicit solvation:
   * S. Ehlert, M. Stahn, S. Spicher, S. Grimme, J. Chem. Theory Comput.,
     2021, 17, 4250-4261. DOI: 10.1021/acs.jctc.1c00471
   
   for ddCOSMO and CPCM-X implicit solvation:
   * M. Stahn, S. Ehlert, S. Grimme, J. Phys. Chem. A,
     2023, XX, XXXX-XXXX. DOI: 10.1021/acs.jpca.3c04382
   
   for DFT-D4:
   * E. Caldeweyher, C. Bannwarth and S. Grimme, J. Chem. Phys., 2017,
     147, 034112. DOI: 10.1063/1.4993215
   * E. Caldeweyher, S. Ehlert, A. Hansen, H. Neugebauer, S. Spicher,
     C. Bannwarth and S. Grimme, J. Chem. Phys., 2019, 150, 154122.
     DOI: 10.1063/1.5090222
   * E. Caldeweyher, J.-M. Mewes, S. Ehlert and S. Grimme, Phys. Chem. Chem. Phys.
     2020, 22, 8499-8512. DOI: 10.1039/D0CP00502A
   
   for sTDA-xTB:
   * S. Grimme and C. Bannwarth, J. Chem. Phys., 2016, 145, 054103.
     DOI: 10.1063/1.4959605
   
   in the mass-spec context:
   * V. Asgeirsson, C. Bauer and S. Grimme, Chem. Sci., 2017, 8, 4879.
     DOI: 10.1039/c7sc00601b
   * J. Koopman and S. Grimme, ACS Omega 2019, 4, 12, 15120-15133.
     DOI: 10.1021/acsomega.9b02011
   
   for metadynamics refer to:
   * S. Grimme, J. Chem. Theory Comput., 2019, 155, 2847-2862
     DOI: 10.1021/acs.jctc.9b00143
   
   for SPH calculations refer to:
   * S. Spicher and S. Grimme, J. Chem. Theory Comput., 2021, 17, 1701-1714
     DOI: 10.1021/acs.jctc.0c01306
   
   for ONIOM refer to:
   * C. Plett, A. Katbashev, S. Ehlert, S. Grimme, M. Bursch,
     Phys. Chem. Chem. Phys., 2023, 25, 17860-17868. DOI: 10.1039/D3CP02178E
   
   for DIPRO refer to:
   * J. Kohn, N. Gildemeister, S. Grimme, D. Fazzi, A. Hansen,
     J. Chem. Phys., 2023, just accepted.
   
   for PTB refer to:
   * S. Grimme, M. Mueller, A. Hansen, J. Chem. Phys., 2023, 158, 124111.
     DOI: 10.1063/5.0137838
   
   with help from (in alphabetical order)
   P. Atkinson, C. Bannwarth, F. Bohle, G. Brandenburg, E. Caldeweyher
   M. Checinski, S. Dohm, S. Ehlert, S. Ehrlich, I. Gerasimov, C. Hölzer
   A. Katbashev, J. Kohn, J. Koopman, C. Lavigne, S. Lehtola, F. März, M. Müller,
   F. Musil, H. Neugebauer, J. Pisarek, C. Plett, P. Pracht, F. Pultar,
   J. Seibert, P. Shushkov, S. Spicher, M. Stahn, M. Steiner, T. Strunk,
   J. Stückrath, T. Rose, and J. Unsleber
   
 * started run on 2025/04/09 at 05:20:48.873     
   ID    Z sym.   atoms
    1    6 C      1, 2, 7, 8, 10, 15, 16, 18, 19
    2    8 O      3, 6, 14, 17
    3   15 P      4, 12
    4   16 S      5, 9, 11, 13
    5    1 H      20-41

           -------------------------------------------------
          |                Calculation Setup                |
           -------------------------------------------------

          program call               : /srv/scratch/z5358697/.xtb/bin/xtb gas.coord --gfn2 --sp --chrg 0 --norestart --parallel 1
          hostname                   : k163
          coordinate file            : gas.coord
          omp threads                :                     1


           -------------------------------------------------
          |                 G F N 2 - x T B                 |
           -------------------------------------------------

        Reference                      10.1021/acs.jctc.8b01176
      * Hamiltonian:
        H0-scaling (s, p, d)           1.850000    2.230000    2.230000
        zeta-weighting                 0.500000
      * Dispersion:
        s8                             2.700000
        a1                             0.520000
        a2                             5.000000
        s9                             5.000000
      * Repulsion:
        kExp                           1.500000    1.000000
        rExp                           1.000000
      * Coulomb:
        alpha                          2.000000
        third order                    shell-resolved
        anisotropic                    true
        a3                             3.000000
        a5                             4.000000
        cn-shift                       1.200000
        cn-exp                         4.000000
        max-rad                        5.000000


          ...................................................
          :                      SETUP                      :
          :.................................................:
          :  # basis functions                 134          :
          :  # atomic orbitals                 128          :
          :  # shells                           66          :
          :  # electrons                       116          :
          :  max. iterations                   250          :
          :  Hamiltonian                  GFN2-xTB          :
          :  restarted?                      false          :
          :  GBSA solvation                  false          :
          :  PC potential                    false          :
          :  electronic temp.          300.0000000     K    :
          :  accuracy                    1.0000000          :
          :  -> integral cutoff          0.2500000E+02      :
          :  -> integral neglect         0.1000000E-07      :
          :  -> SCF convergence          0.1000000E-05 Eh   :
          :  -> wf. convergence          0.1000000E-03 e    :
          :  Broyden damping             0.4000000          :
          :  net charge                          0          :
          :  unpaired electrons                  0          :
          ...................................................

 iter      E             dE          RMSdq      gap      omega  full diag
   1    -65.3808494 -0.653808E+02  0.619E+00    4.19       0.0  T
   2    -65.5500299 -0.169181E+00  0.392E+00    3.08       1.0  T
   3    -65.5695122 -0.194822E-01  0.149E+00    3.01       1.0  T
   4    -65.5720242 -0.251200E-02  0.603E-01    2.76       1.0  T
   5    -65.5728874 -0.863228E-03  0.256E-01    2.89       1.0  T
   6    -65.5730369 -0.149524E-03  0.128E-01    2.86       1.0  T
   7    -65.5730892 -0.522848E-04  0.487E-02    2.88       1.0  T
   8    -65.5730996 -0.104031E-04  0.230E-02    2.88       1.0  T
   9    -65.5731012 -0.156296E-05  0.572E-03    2.88       2.7  T
  10    -65.5731013 -0.134160E-06  0.267E-03    2.88       5.9  T
  11    -65.5731013 -0.587661E-08  0.522E-04    2.88      29.9  T
  12    -65.5731013 -0.126497E-08  0.244E-04    2.88      64.1  T

   *** convergence criteria satisfied after 12 iterations ***

         #    Occupation            Energy/Eh            Energy/eV
      -------------------------------------------------------------
         1        2.0000           -0.7587184             -20.6458
       ...           ...                  ...                  ...
        52        2.0000           -0.4349966             -11.8369
        53        2.0000           -0.4065589             -11.0630
        54        2.0000           -0.3964965             -10.7892
        55        2.0000           -0.3732133             -10.1557
        56        2.0000           -0.3712860             -10.1032
        57        2.0000           -0.3664245              -9.9709
        58        2.0000           -0.3642737              -9.9124 (HOMO)
        59                         -0.2583825              -7.0309 (LUMO)
        60                         -0.2459521              -6.6927
        61                         -0.2042130              -5.5569
        62                         -0.1761725              -4.7939
        63                         -0.1669189              -4.5421
       ...                                ...                  ...
       128                          1.2951748              35.2435
      -------------------------------------------------------------
                  HL-Gap            0.1058912 Eh            2.8814 eV
             Fermi-level           -0.3113281 Eh           -8.4717 eV

 SCC (total)                   0 d,  0 h,  0 min,  0.062 sec
 SCC setup                      ...        0 min,  0.000 sec (  0.438%)
 Dispersion                     ...        0 min,  0.000 sec (  0.513%)
 classical contributions        ...        0 min,  0.000 sec (  0.096%)
 integral evaluation            ...        0 min,  0.014 sec ( 21.972%)
 iterations                     ...        0 min,  0.025 sec ( 40.728%)
 molecular gradient             ...        0 min,  0.022 sec ( 35.852%)
 printout                       ...        0 min,  0.000 sec (  0.371%)

         :::::::::::::::::::::::::::::::::::::::::::::::::::::
         ::                     SUMMARY                     ::
         :::::::::::::::::::::::::::::::::::::::::::::::::::::
         :: total energy             -65.010639257436 Eh    ::
         :: gradient norm              0.038846348538 Eh/a0 ::
         :: HOMO-LUMO gap              2.881445736315 eV    ::
         ::.................................................::
         :: SCC energy               -65.571971849706 Eh    ::
         :: -> isotropic ES            0.103913905562 Eh    ::
         :: -> anisotropic ES         -0.011698790748 Eh    ::
         :: -> anisotropic XC          0.031284559180 Eh    ::
         :: -> dispersion             -0.054137552100 Eh    ::
         :: repulsion energy           0.561332592270 Eh    ::
         :: add. restraining           0.000000000000 Eh    ::
         :: total charge               0.000000000000 e     ::
         :::::::::::::::::::::::::::::::::::::::::::::::::::::

           -------------------------------------------------
          |                Property Printout                |
           -------------------------------------------------

    * Orbital Energies and Occupations

         #    Occupation            Energy/Eh            Energy/eV
      -------------------------------------------------------------
         1        2.0000           -0.7587184             -20.6458
       ...           ...                  ...                  ...
        46        2.0000           -0.4645821             -12.6419
        47        2.0000           -0.4636187             -12.6157
        48        2.0000           -0.4587000             -12.4819
        49        2.0000           -0.4572695             -12.4429
        50        2.0000           -0.4489766             -12.2173
        51        2.0000           -0.4392657             -11.9530
        52        2.0000           -0.4349966             -11.8369
        53        2.0000           -0.4065589             -11.0630
        54        2.0000           -0.3964965             -10.7892
        55        2.0000           -0.3732133             -10.1557
        56        2.0000           -0.3712860             -10.1032
        57        2.0000           -0.3664245              -9.9709
        58        2.0000           -0.3642737              -9.9124 (HOMO)
        59                         -0.2583825              -7.0309 (LUMO)
        60                         -0.2459521              -6.6927
        61                         -0.2042130              -5.5569
        62                         -0.1761725              -4.7939
        63                         -0.1669189              -4.5421
        64                         -0.1595116              -4.3405
        65                         -0.1454661              -3.9583
        66                         -0.1426337              -3.8813
        67                         -0.1174390              -3.1957
        68                         -0.1123013              -3.0559
        69                         -0.0421271              -1.1463
       ...                                ...                  ...
       128                          1.2951748              35.2435
      -------------------------------------------------------------
                  HL-Gap            0.1058912 Eh            2.8814 eV
             Fermi-level           -0.3113281 Eh           -8.4717 eV

     #   Z          covCN         q      C6AA      α(0)
     1   6 C        3.751    -0.117    22.800     6.810
     2   6 C        3.844     0.082    19.197     6.232
     3   8 O        1.654    -0.239    17.980     5.724
     4  15 P        3.821     0.367   144.935    21.626
     5  16 S        0.926    -0.362   154.826    21.046
     6   8 O        1.655    -0.242    18.033     5.733
     7   6 C        3.848     0.084    19.157     6.226
     8   6 C        3.751    -0.114    22.736     6.800
     9  16 S        2.050    -0.184   148.848    20.534
    10   6 C        3.810     0.047    19.780     6.331
    11  16 S        2.034    -0.148   147.293    20.427
    12  15 P        3.823     0.374   144.673    21.606
    13  16 S        0.926    -0.393   156.282    21.145
    14   8 O        1.653    -0.240    17.993     5.726
    15   6 C        3.814     0.079    19.251     6.245
    16   6 C        3.751    -0.119    22.833     6.815
    17   8 O        1.655    -0.252    18.185     5.757
    18   6 C        3.859     0.083    19.164     6.226
    19   6 C        3.751    -0.119    22.837     6.815
    20   1 H        0.925     0.057     2.238     2.340
    21   1 H        0.925     0.064     2.157     2.297
    22   1 H        0.925     0.066     2.131     2.283
    23   1 H        0.924     0.056     2.252     2.347
    24   1 H        0.924     0.065     2.145     2.290
    25   1 H        0.924     0.059     2.210     2.325
    26   1 H        0.924     0.071     2.075     2.253
    27   1 H        0.925     0.066     2.132     2.283
    28   1 H        0.925     0.052     2.293     2.368
    29   1 H        0.925     0.058     2.222     2.331
    30   1 H        0.925     0.073     2.056     2.242
    31   1 H        0.924     0.091     1.870     2.138
    32   1 H        0.924     0.069     2.099     2.266
    33   1 H        0.924     0.059     2.205     2.322
    34   1 H        0.925     0.058     2.220     2.330
    35   1 H        0.925     0.065     2.138     2.286
    36   1 H        0.925     0.066     2.130     2.282
    37   1 H        0.924     0.063     2.164     2.301
    38   1 H        0.924     0.064     2.156     2.296
    39   1 H        0.925     0.066     2.131     2.283
    40   1 H        0.925     0.062     2.175     2.306
    41   1 H        0.925     0.061     2.182     2.310

 Mol. C6AA /au·bohr⁶  :      26544.398015
 Mol. C8AA /au·bohr⁸  :     863287.776620
 Mol. α(0) /au        :        258.301398


Wiberg/Mayer (AO) data.
largest (>0.10) Wiberg bond orders for each atom

 ---------------------------------------------------------------------------
     #   Z sym  total        # sym  WBO       # sym  WBO       # sym  WBO
 ---------------------------------------------------------------------------
     1   6 C    3.989 --     2 C    1.021    21 H    0.984    22 H    0.981
                            20 H    0.980
     2   6 C    3.913 --     1 C    1.021    24 H    0.971    23 H    0.965
                             3 O    0.891
     3   8 O    2.408 --     4 P    1.333     2 C    0.891
     4  15 P    5.296 --     5 S    1.588     3 O    1.333     6 O    1.316
                             9 S    0.940
     5  16 S    1.936 --     4 P    1.588     9 S    0.147
     6   8 O    2.418 --     4 P    1.316     7 C    0.900
     7   6 C    3.904 --     8 C    1.020    25 H    0.971    26 H    0.964
                             6 O    0.900
     8   6 C    3.990 --     7 C    1.020    28 H    0.985    29 H    0.980
                            27 H    0.977
     9  16 S    2.259 --    10 C    0.976     4 P    0.940     5 S    0.147
    10   6 C    3.956 --    11 S    0.997     9 S    0.976    30 H    0.970
                            31 H    0.942
    11  16 S    2.260 --    10 C    0.997    12 P    0.937    13 S    0.142
    12  15 P    5.282 --    13 S    1.569    14 O    1.332    17 O    1.308
                            11 S    0.937
    13  16 S    1.895 --    12 P    1.569    11 S    0.142
    14   8 O    2.413 --    12 P    1.332    15 C    0.886
    15   6 C    3.911 --    16 C    1.022    33 H    0.973    32 H    0.970
                            14 O    0.886
    16   6 C    3.990 --    15 C    1.022    36 H    0.982    34 H    0.979
                            35 H    0.978
    17   8 O    2.407 --    12 P    1.308    18 C    0.904
    18   6 C    3.908 --    19 C    1.022    37 H    0.970    38 H    0.969
                            17 O    0.904
    19   6 C    3.990 --    18 C    1.022    40 H    0.983    41 H    0.980
                            39 H    0.976
    20   1 H    0.995 --     1 C    0.980
    21   1 H    0.996 --     1 C    0.984
    22   1 H    0.996 --     1 C    0.981
    23   1 H    0.997 --     2 C    0.965
    24   1 H    0.995 --     2 C    0.971
    25   1 H    0.996 --     7 C    0.971
    26   1 H    0.995 --     7 C    0.964
    27   1 H    0.996 --     8 C    0.977
    28   1 H    0.997 --     8 C    0.985
    29   1 H    0.996 --     8 C    0.980
    30   1 H    0.995 --    10 C    0.970
    31   1 H    0.992 --    10 C    0.942
    32   1 H    0.995 --    15 C    0.970
    33   1 H    0.996 --    15 C    0.973
    34   1 H    0.995 --    16 C    0.979
    35   1 H    0.996 --    16 C    0.978
    36   1 H    0.996 --    16 C    0.982
    37   1 H    0.996 --    18 C    0.970
    38   1 H    0.996 --    18 C    0.969
    39   1 H    0.996 --    19 C    0.976
    40   1 H    0.996 --    19 C    0.983
    41   1 H    0.996 --    19 C    0.980
 ---------------------------------------------------------------------------

Topologies differ in total number of bonds
Writing topology from bond orders to xtbtopo.mol

molecular dipole:
                 x           y           z       tot (Debye)
 q only:       -0.682      -0.736       2.681
   full:       -0.443      -0.563       2.918       7.637
molecular quadrupole (traceless):
                xx          xy          yy          xz          yz          zz
 q only:       22.110       2.912      -7.687      10.167       4.861     -14.424
  q+dip:       26.356       0.736      -7.735       7.157       7.490     -18.622
   full:       26.867       0.465      -8.144       7.222       7.443     -18.723


           -------------------------------------------------
          | TOTAL ENERGY              -65.010639257436 Eh   |
          | GRADIENT NORM               0.038846348538 Eh/α |
          | HOMO-LUMO GAP               2.881445736315 eV   |
           -------------------------------------------------

------------------------------------------------------------------------
 * finished run on 2025/04/09 at 05:20:48.985     
------------------------------------------------------------------------
 total:
 * wall-time:     0 d,  0 h,  0 min,  0.112 sec
 *  cpu-time:     0 d,  0 h,  0 min,  0.069 sec
 * ratio c/w:     0.622 speedup
 SCF:
 * wall-time:     0 d,  0 h,  0 min,  0.062 sec
 *  cpu-time:     0 d,  0 h,  0 min,  0.056 sec
 * ratio c/w:     0.911 speedup

