
                                 *****************
                                 * O   R   C   A *
                                 *****************

                                            #,                                       
                                            ###                                      
                                            ####                                     
                                            #####                                    
                                            ######                                   
                                           ########,                                 
                                     ,,################,,,,,                         
                               ,,#################################,,                 
                          ,,##########################################,,             
                       ,#########################################, ''#####,          
                    ,#############################################,,   '####,        
                  ,##################################################,,,,####,       
                ,###########''''           ''''###############################       
              ,#####''   ,,,,##########,,,,          '''####'''          '####       
            ,##' ,,,,###########################,,,                        '##       
           ' ,,###''''                  '''############,,,                           
         ,,##''                                '''############,,,,        ,,,,,,###''
      ,#''                                            '''#######################'''  
     '                                                          ''''####''''         
             ,#######,   #######,   ,#######,      ##                                
            ,#'     '#,  ##    ##  ,#'     '#,    #''#        ,####,   ,####,        
            ##       ##  ##   ,#'  ##            #'  '#       #'       #'  '#        
            ##       ##  #######   ##           ,######,      #####,   #    #        
            '#,     ,#'  ##    ##  '#,     ,#' ,#      #,     #,   #   #,  ,#        
             '#######'   ##     ##  '#######'  #'      '#     '####' # '####'        



                #########################################################
                #                        -***-                          #
                #          Department of theory and spectroscopy        #
                #                                                       #
                #                      Frank Neese                      #
                #                                                       #
                #     Directorship, Architecture, Infrastructure        #
                #                    SHARK, DRIVERS                     #
                #        Core code/Algorithms in most modules           #
                #                                                       #
                #        Max Planck Institute fuer Kohlenforschung      #
                #                Kaiser Wilhelm Platz 1                 #
                #                 D-45470 Muelheim/Ruhr                 #
                #                      Germany                          #
                #                                                       #
                #                  All rights reserved                  #
                #                        -***-                          #
                #########################################################


                         Program Version 6.0.0  -   RELEASE  -


 With contributions from (in alphabetic order):
   Daniel Aravena         : Magnetic Suceptibility
   Michael Atanasov       : Ab Initio Ligand Field Theory (pilot matlab implementation)
   Alexander A. Auer      : GIAO ZORA, VPT2 properties, NMR spectrum
   Ute Becker             : All parallelization in ORCA, NUMFREQ, NUMCALC
   Giovanni Bistoni       : ED, misc. LED, open-shell LED, HFLD
   Martin Brehm           : Molecular dynamics
   Dmytro Bykov           : pre 5.0 version of the SCF Hessian
   Marcos Casanova-Páez   : Triplet and SCS-CIS(D). UHF-(DLPNO)-IP/EA/STEOM-CCSD. UHF-CVS-IP/STEOM-CCSD
   Vijay G. Chilkuri      : MRCI spin determinant printing, contributions to CSF-ICE
   Pauline Colinet        : FMM embedding
   Dipayan Datta          : RHF DLPNO-CCSD density
   Achintya Kumar Dutta   : EOM-CC, STEOM-CC
   Nicolas Foglia         : Exact transition moments, OPA infrastructure, MCD improvements
   Dmitry Ganyushin       : Spin-Orbit,Spin-Spin,Magnetic field MRCI
   Miquel Garcia          : C-PCM and meta-GGA Hessian, CCSD/C-PCM, Gaussian charge scheme
   Tiago L. C. Gouveia    : GS-ROHF, GS-ROCIS
   Yang Guo               : DLPNO-NEVPT2, F12-NEVPT2, CIM, IAO-localization
   Andreas Hansen         : Spin unrestricted coupled pair/coupled cluster methods
   Ingolf Harden          : AUTO-CI MPn and infrastructure 
   Benjamin Helmich-Paris : MC-RPA, TRAH-(SCF,CASSCF), AVAS, COSX integrals, SCF dyn. polar.
   Lee Huntington         : MR-EOM, pCC
   Robert Izsak           : Overlap fitted RIJCOSX, COSX-SCS-MP3, EOM
   Riya Kayal             : Wick's Theorem for AUTO-CI, AUTO-CI UHF-CCSDT
   Emily Kempfer          : AUTO-CI, RHF CISDT and CCSDT
   Christian Kollmar      : KDIIS, OOCD, Brueckner-CCSD(T), CCSD density, CASPT2, CASPT2-K, improved NEVPT2
   Axel Koslowski         : Symmetry handling
   Simone Kossmann        : Meta GGA functionals, TD-DFT gradient, OOMP2, (MP2 Hessian; deprecated post 5.0)
   Lucas Lang             : DCDCAS
   Marvin Lechner         : AUTO-CI (C++ implementation), FIC-MRCC
   Spencer Leger          : CASSCF response
   Dagmar Lenk            : GEPOL surface, SMD, ORCA-2-JSON
   Dimitrios Liakos       : Extrapolation schemes; Compound Job, initial MDCI parallelization
   Dimitrios Manganas     : Further ROCIS development; embedding schemes. LFT, Crystal Embedding
   Dimitrios Pantazis     : SARC Basis sets
   Anastasios Papadopoulos: AUTO-CI, single reference methods and gradients
   Taras Petrenko         : pre 6.0 DFT Hessian and TD-DFT gradient, (ASA, deprecated), ECA, 1-Electron XAS/XES, NRVS
   Peter Pinski           : DLPNO-MP2, DLPNO-MP2 Gradient
   Christoph Reimann      : Effective Core Potentials
   Marius Retegan         : Local ZFS, SOC
   Christoph Riplinger    : Optimizer, TS searches, QM/MM, DLPNO-CCSD(T), (RO)-DLPNO pert. Triples
   Michael Roemelt        : Original ROCIS implementation
   Masaaki Saitow         : Open-shell DLPNO-CCSD energy and density
   Barbara Sandhoefer     : DKH picture change effects
   Kantharuban Sivalingam : CASSCF convergence/infrastructure, NEVPT2 and variants, FIC-MRCI
   Bernardo de Souza      : ESD, SOC TD-DFT
   Georgi Stoychev        : AutoAux, RI-MP2 NMR, DLPNO-MP2 response, X2C
   Van Anh Tran           : RI-MP2 g-tensors
   Willem Van den Heuvel  : Paramagnetic NMR
   Zikuan Wang            : NOTCH, Electric field optimization 
   Frank Wennmohs         : Technical directorship and infrastructure
   Hang Xu                : AUTO-CI-Response properties 


 We gratefully acknowledge several colleagues who have allowed us to
 interface, adapt or use parts of their codes:
   Stefan Grimme, W. Hujo, H. Kruse, P. Pracht,  : VdW corrections, initial TS optimization,
                  C. Bannwarth, S. Ehlert,         DFT functionals, gCP, sTDA/sTD-DF
                  L. Wittmann, M. Mueller
   Ed Valeev, F. Pavosevic, A. Kumar             : LibInt (2-el integral package), F12 methods
   Garnet Chan, S. Sharma, J. Yang, R. Olivares  : DMRG
   Ulf Ekstrom                                   : XCFun DFT Library
   Mihaly Kallay                                 : mrcc  (arbitrary order and MRCC methods)
   Frank Weinhold                                : gennbo (NPA and NBO analysis)
   Simon Mueller                                 : openCOSMO-RS
   Christopher J. Cramer and Donald G. Truhlar   : smd solvation model
   Lars Goerigk                                  : TD-DFT with DH, B97 family of functionals
   V. Asgeirsson, H. Jonsson                     : NEB implementation
   FAccTs GmbH                                   : IRC, NEB, NEB-TS, DLPNO-Multilevel, CI-OPT
                                                   MM, QMMM, 2- and 3-layer-ONIOM, Crystal-QMMM,
                                                   LR-CPCM, SF, NACMEs, symmetry and pop. for TD-DFT,
                                                   nearIR, NL-DFT gradient (VV10), updates on ESD,
                                                   ML-optimized integration grids, MBIS, APM,
                                                   GOAT, DOCKER, SOLVATOR, interface openCOSMO-RS
   S Lehtola, MJT Oliveira, MAL Marques          : LibXC Library
   Liviu Ungur et al                             : ANISO software


 Your calculation uses the libint2 library for the computation of 2-el integrals
 For citations please refer to: http://libint.valeyev.net

 Your ORCA version has been built with support for libXC version: 6.2.2
 For citations please refer to: https://libxc.gitlab.io

 This ORCA versions uses:
   CBLAS   interface :  Fast vector & matrix operations
   LAPACKE interface :  Fast linear algebra routines
   SCALAPACK package :  Parallel linear algebra routines
   Shared memory     :  Shared parallel matrices
   BLAS/LAPACK       :  OpenBLAS 0.3.27  USE64BITINT DYNAMIC_ARCH NO_AFFINITY SapphireRapids SINGLE_THREADED
        Core in use  :  SapphireRapids
   Copyright (c) 2011-2014, The OpenBLAS Project


Your calculation utilizes the geometrical counterpoise correction gCP
Please cite in your paper:
H.Kruse, S. Grimme J.Chem.Phys., 136, (2012), 154101 
   

Your calculation utilizes the atom-pairwise dispersion correction
based on EEQ partial charges (D4)


================================================================================

----- Orbital basis set information -----
Your calculation utilizes the basis: def2-SV(P)
   F. Weigend and R. Ahlrichs, Phys. Chem. Chem. Phys. 7, 3297 (2005).

----- AuxJ basis set information -----
Your calculation utilizes the auxiliary basis: def2/J
   F. Weigend, Phys. Chem. Chem. Phys. 8, 1057 (2006).

================================================================================
                                        WARNINGS
                       Please study these warnings very carefully!
================================================================================


================================================================================
                                       INPUT FILE
================================================================================
NAME = sp.inp
|  1> ! pbe def2-sv(p) def2/J RI DEFGRID1 loosescf d4 GCP(DFT/SV(P)) printgap
|  2> %output
|  3>     printlevel normal
|  4> end
|  5> * xyz 0 1
|  6> C 3.6390477233 1.555734147 -1.6945807001
|  7> C 2.2614923231 1.7356918984 -1.0936786533
|  8> O 1.639584818 0.4729054631 -0.7876814818
|  9> P 2.1919671844 -0.5120556438 0.3191521595
| 10> S 3.0369923022 0.3199770124 1.8834408594
| 11> O 3.1300420911 -1.4723959148 -0.5274340917
| 12> C 4.0921768041 -2.3486922979 0.08693627
| 13> C 3.4296757029 -3.4731795334 0.8563562297
| 14> S 0.450763635 -1.6524794089 0.6676334607
| 15> C -0.2325170759 -0.5871590728 1.9637125861
| 16> S -0.7342340612 1.0580101486 1.3734822486
| 17> P -2.0279446955 0.4952866038 -0.2195444212
| 18> S -1.3019865854 0.2226938189 -2.0238060142
| 19> O -3.1303891965 1.6390937421 -0.1571115225
| 20> C -3.0087550024 2.8898326946 -0.858886038
| 21> C -4.404900735 3.4142860835 -1.1306121784
| 22> O -2.763099573 -0.7290141849 0.4532690187
| 23> C -3.4153192144 -1.7467442203 -0.338052663
| 24> C -4.6648961874 -1.2123529369 -1.004056181
| 25> H 3.5866882787 0.8956919448 -2.5567133414
| 26> H 4.027410655 2.522388577 -1.999505577
| 27> H 4.31067861 1.1200873879 -0.9552963971
| 28> H 1.5676722691 2.1990216858 -1.7974938051
| 29> H 2.3089763822 2.3272799656 -0.1731921385
| 30> H 4.6775518989 -2.7239295078 -0.753474195
| 31> H 4.7279044144 -1.7523710155 0.7494258348
| 32> H 4.1878607422 -4.172073449 1.1947501091
| 33> H 2.9050181988 -3.0731276899 1.7231109253
| 34> H 2.7142019843 -3.9927797731 0.2237534063
| 35> H 0.5282897875 -0.4045322326 2.7238178227
| 36> H -1.0938901207 -1.1030283609 2.378780814
| 37> H -2.4402915025 3.5776017636 -0.226934607
| 38> H -2.4577936387 2.7167513072 -1.7902521297
| 39> H -4.3327004643 4.3800520303 -1.6198125291
| 40> H -4.9460350661 2.7263650919 -1.7741012125
| 41> H -4.946549005 3.5228820037 -0.1956124143
| 42> H -2.7036521723 -2.1162001303 -1.0832490799
| 43> H -3.6400093579 -2.5338914612 0.3825104541
| 44> H -5.3257737711 -0.7707117944 -0.2630914863
| 45> H -4.3933525631 -0.4507359149 -1.7340094365
| 46> H -5.1776805868 -2.0225549067 -1.5127360364
| 47> *
| 48> 
| 49>                          ****END OF INPUT****
================================================================================

                       ****************************
                       * Single Point Calculation *
                       ****************************

---------------------------------
CARTESIAN COORDINATES (ANGSTROEM)
---------------------------------
  C      3.639048    1.555734   -1.694581
  C      2.261492    1.735692   -1.093679
  O      1.639585    0.472905   -0.787681
  P      2.191967   -0.512056    0.319152
  S      3.036992    0.319977    1.883441
  O      3.130042   -1.472396   -0.527434
  C      4.092177   -2.348692    0.086936
  C      3.429676   -3.473180    0.856356
  S      0.450764   -1.652479    0.667633
  C     -0.232517   -0.587159    1.963713
  S     -0.734234    1.058010    1.373482
  P     -2.027945    0.495287   -0.219544
  S     -1.301987    0.222694   -2.023806
  O     -3.130389    1.639094   -0.157112
  C     -3.008755    2.889833   -0.858886
  C     -4.404901    3.414286   -1.130612
  O     -2.763100   -0.729014    0.453269
  C     -3.415319   -1.746744   -0.338053
  C     -4.664896   -1.212353   -1.004056
  H      3.586688    0.895692   -2.556713
  H      4.027411    2.522389   -1.999506
  H      4.310679    1.120087   -0.955296
  H      1.567672    2.199022   -1.797494
  H      2.308976    2.327280   -0.173192
  H      4.677552   -2.723930   -0.753474
  H      4.727904   -1.752371    0.749426
  H      4.187861   -4.172073    1.194750
  H      2.905018   -3.073128    1.723111
  H      2.714202   -3.992780    0.223753
  H      0.528290   -0.404532    2.723818
  H     -1.093890   -1.103028    2.378781
  H     -2.440292    3.577602   -0.226935
  H     -2.457794    2.716751   -1.790252
  H     -4.332700    4.380052   -1.619813
  H     -4.946035    2.726365   -1.774101
  H     -4.946549    3.522882   -0.195612
  H     -2.703652   -2.116200   -1.083249
  H     -3.640009   -2.533891    0.382510
  H     -5.325774   -0.770712   -0.263091
  H     -4.393353   -0.450736   -1.734009
  H     -5.177681   -2.022555   -1.512736

----------------------------
CARTESIAN COORDINATES (A.U.)
----------------------------
  NO LB      ZA    FRAG     MASS         X           Y           Z
   0 C     6.0000    0    12.011    6.876804    2.939911   -3.202293
   1 C     6.0000    0    12.011    4.273601    3.279982   -2.066753
   2 O     8.0000    0    15.999    3.098366    0.893662   -1.488502
   3 P    15.0000    0    30.974    4.142218   -0.967645    0.603110
   4 S    16.0000    0    32.060    5.739084    0.604669    3.559187
   5 O     8.0000    0    15.999    5.914922   -2.782425   -0.996706
   6 C     6.0000    0    12.011    7.733093   -4.438385    0.164286
   7 C     6.0000    0    12.011    6.481148   -6.563358    1.618279
   8 S    16.0000    0    32.060    0.851820   -3.122734    1.261644
   9 C     6.0000    0    12.011   -0.439394   -1.109570    3.710879
  10 S    16.0000    0    32.060   -1.387501    1.999349    2.595505
  11 P    15.0000    0    30.974   -3.832260    0.935956   -0.414879
  12 S    16.0000    0    32.060   -2.460398    0.420830   -3.824439
  13 O     8.0000    0    15.999   -5.915578    3.097438   -0.296898
  14 C     6.0000    0    12.011   -5.685723    5.460992   -1.623059
  15 C     6.0000    0    12.011   -8.324056    6.452066   -2.136547
  16 O     8.0000    0    15.999   -5.221501   -1.377637    0.856554
  17 C     6.0000    0    12.011   -6.454018   -3.300868   -0.638827
  18 C     6.0000    0    12.011   -8.815376   -2.291015   -1.897391
  19 H     1.0000    0     1.008    6.777859    1.692612   -4.831488
  20 H     1.0000    0     1.008    7.610703    4.766624   -3.778518
  21 H     1.0000    0     1.008    8.146002    2.116658   -1.805249
  22 H     1.0000    0     1.008    2.962471    4.155549   -3.396771
  23 H     1.0000    0     1.008    4.363333    4.397922   -0.327286
  24 H     1.0000    0     1.008    8.839292   -5.147481   -1.423860
  25 H     1.0000    0     1.008    8.934445   -3.311501    1.416210
  26 H     1.0000    0     1.008    7.913910   -7.884076    2.257751
  27 H     1.0000    0     1.008    5.489689   -5.807370    3.256208
  28 H     1.0000    0     1.008    5.129098   -7.545260    0.422833
  29 H     1.0000    0     1.008    0.998323   -0.764455    5.147270
  30 H     1.0000    0     1.008   -2.067153   -2.084422    4.495244
  31 H     1.0000    0     1.008   -4.611483    6.760688   -0.428844
  32 H     1.0000    0     1.008   -4.644557    5.133916   -3.383086
  33 H     1.0000    0     1.008   -8.187617    8.277099   -3.061002
  34 H     1.0000    0     1.008   -9.346652    5.152083   -3.352565
  35 H     1.0000    0     1.008   -9.347623    6.657282   -0.369654
  36 H     1.0000    0     1.008   -5.109162   -3.999039   -2.047044
  37 H     1.0000    0     1.008   -6.878621   -4.788361    0.722840
  38 H     1.0000    0     1.008  -10.064254   -1.456434   -0.497171
  39 H     1.0000    0     1.008   -8.302233   -0.851767   -3.276803
  40 H     1.0000    0     1.008   -9.784398   -3.822075   -2.858657

--------------------------------
INTERNAL COORDINATES (ANGSTROEM)
--------------------------------
 C      0   0   0     0.000000000000     0.00000000     0.00000000
 C      1   0   0     1.513646901611     0.00000000     0.00000000
 O      2   1   0     1.440497412370   111.90209416     0.00000000
 P      3   2   1     1.581251204056   122.95143528    65.97386196
 S      4   3   2     1.962993868389   116.36956544    33.11137324
 O      4   3   2     1.587118851065   102.12283457   266.66546544
 C      6   4   3     1.439114136658   122.40377418   165.48767354
 C      7   6   4     1.515053242061   112.11085903    68.87128257
 S      4   3   2     2.110401710986    99.43729206   159.59031003
 C      9   4   3     1.811518989051    96.40488821   270.90969094
 S     10   9   4     1.818426119392   113.82160781    66.67810650
 P     11  10   9     2.127928326769    99.87411056    53.89526203
 S     12  11  10     1.963843654667   119.98404634   271.01164445
 O     12  11  10     1.589835373317   101.64982998   145.46418764
 C     14  12  11     1.439315905241   123.19162050    88.13247556
 C     15  14  12     1.515951634836   108.07100740   153.29065116
 O     12  11  10     1.578620613078    99.73846362    40.30268501
 C     17  12  11     1.444768109252   121.54109618   201.35902386
 C     18  17  12     1.513465341927   111.40882815   289.72843638
 H      1   2   3     1.087046416359   110.07218337    53.96833536
 H      1   2   3     1.085461069919   109.34537050   174.39811799
 H      1   2   3     1.089686848294   109.82417003   293.99837817
 H      2   1   3     1.091520282509   111.89961919   244.26571448
 H      2   1   3     1.095229017626   111.00267885   121.09860798
 H      7   6   4     1.090759696261   103.84784554   189.68041678
 H      7   6   4     1.094824684509   108.35347282   306.60848205
 H      8   7   6     1.085268481389   109.31923856   173.00685455
 H      8   7   6     1.089298249535   110.00665645   292.61256863
 H      8   7   6     1.087231982273   110.30264597    52.58320476
 H     10   9   4     1.090843534548   109.50730981   308.88998459
 H     10   9   4     1.086446629396   107.04666110   187.89059948
 H     15  14  12     1.093407359649   107.98310384   273.91101433
 H     15  14  12     1.095882469849   108.64001221    32.25187590
 H     16  15  14     1.085004021289   109.11523237   177.44661777
 H     16  15  14     1.086342391691   110.23414379   297.42495592
 H     16  15  14     1.086002063140   109.85313583    57.50435194
 H     18  17  12     1.094662207261   108.48874735    52.05314840
 H     18  17  12     1.090549240139   103.86075894   168.91955036
 H     19  18  17     1.086662209786   110.21690003   305.82522666
 H     19  18  17     1.089324645509   109.62930609    65.71533509
 H     19  18  17     1.085417093760   109.43426413   185.21568423

---------------------------
INTERNAL COORDINATES (A.U.)
---------------------------
 C      0   0   0     0.000000000000     0.00000000     0.00000000
 C      1   0   0     2.860378107504     0.00000000     0.00000000
 O      2   1   0     2.722145606001   111.90209416     0.00000000
 P      3   2   1     2.988131724599   122.95143528    65.97386196
 S      4   3   2     3.709520813821   116.36956544    33.11137324
 O      4   3   2     2.999219970496   102.12283457   266.66546544
 C      6   4   3     2.719531593738   122.40377418   165.48767354
 C      7   6   4     2.863035705804   112.11085903    68.87128257
 S      4   3   2     3.988081266323    99.43729206   159.59031003
 C      9   4   3     3.423274775705    96.40488821   270.90969094
 S     10   9   4     3.436327360419   113.82160781    66.67810650
 P     11  10   9     4.021201770207    99.87411056    53.89526203
 S     12  11  10     3.711126677159   119.98404634   271.01164445
 O     12  11  10     3.004353453590   101.64982998   145.46418764
 C     14  12  11     2.719912881103   123.19162050    88.13247556
 C     15  14  12     2.864733422111   108.07100740   153.29065116
 O     12  11  10     2.983160628080    99.73846362    40.30268501
 C     17  12  11     2.730216053510   121.54109618   201.35902386
 C     18  17  12     2.860035009423   111.40882815   289.72843638
 H      1   2   3     2.054220021779   110.07218337    53.96833536
 H      1   2   3     2.051224151180   109.34537050   174.39811799
 H      1   2   3     2.059209715012   109.82417003   293.99837817
 H      2   1   3     2.062674403562   111.89961919   244.26571448
 H      2   1   3     2.069682897237   111.00267885   121.09860798
 H      7   6   4     2.061237103852   103.84784554   189.68041678
 H      7   6   4     2.068918818378   108.35347282   306.60848205
 H      8   7   6     2.050860211602   109.31923856   173.00685455
 H      8   7   6     2.058475369782   110.00665645   292.61256863
 H      8   7   6     2.054570690536   110.30264597    52.58320476
 H     10   9   4     2.061395535254   109.50730981   308.88998459
 H     10   9   4     2.053086588679   107.04666110   187.89059948
 H     15  14  12     2.066240462551   107.98310384   273.91101433
 H     15  14  12     2.070917742980   108.64001221    32.25187590
 H     16  15  14     2.050360454439   109.11523237   177.44661777
 H     16  15  14     2.052889607966   110.23414379   297.42495592
 H     16  15  14     2.052246480209   109.85313583    57.50435194
 H     18  17  12     2.068611780877   108.48874735    52.05314840
 H     18  17  12     2.060839399418   103.86075894   168.91955036
 H     19  18  17     2.053493976578   110.21690003   305.82522666
 H     19  18  17     2.058525250943   109.62930609    65.71533509
 H     19  18  17     2.051141048282   109.43426413   185.21568423

---------------------
BASIS SET INFORMATION
---------------------
There are 5 groups of distinct atoms

 Group   1 Type C   : 7s4p1d contracted to 3s2p1d pattern {511/31/1}
 Group   2 Type O   : 7s4p1d contracted to 3s2p1d pattern {511/31/1}
 Group   3 Type P   : 10s7p1d contracted to 4s3p1d pattern {5311/511/1}
 Group   4 Type S   : 10s7p1d contracted to 4s3p1d pattern {5311/511/1}
 Group   5 Type H   : 4s contracted to 2s pattern {31}

Atom   0C    basis set group =>   1
Atom   1C    basis set group =>   1
Atom   2O    basis set group =>   2
Atom   3P    basis set group =>   3
Atom   4S    basis set group =>   4
Atom   5O    basis set group =>   2
Atom   6C    basis set group =>   1
Atom   7C    basis set group =>   1
Atom   8S    basis set group =>   4
Atom   9C    basis set group =>   1
Atom  10S    basis set group =>   4
Atom  11P    basis set group =>   3
Atom  12S    basis set group =>   4
Atom  13O    basis set group =>   2
Atom  14C    basis set group =>   1
Atom  15C    basis set group =>   1
Atom  16O    basis set group =>   2
Atom  17C    basis set group =>   1
Atom  18C    basis set group =>   1
Atom  19H    basis set group =>   5
Atom  20H    basis set group =>   5
Atom  21H    basis set group =>   5
Atom  22H    basis set group =>   5
Atom  23H    basis set group =>   5
Atom  24H    basis set group =>   5
Atom  25H    basis set group =>   5
Atom  26H    basis set group =>   5
Atom  27H    basis set group =>   5
Atom  28H    basis set group =>   5
Atom  29H    basis set group =>   5
Atom  30H    basis set group =>   5
Atom  31H    basis set group =>   5
Atom  32H    basis set group =>   5
Atom  33H    basis set group =>   5
Atom  34H    basis set group =>   5
Atom  35H    basis set group =>   5
Atom  36H    basis set group =>   5
Atom  37H    basis set group =>   5
Atom  38H    basis set group =>   5
Atom  39H    basis set group =>   5
Atom  40H    basis set group =>   5
---------------------------------
AUXILIARY/J BASIS SET INFORMATION
---------------------------------
There are 5 groups of distinct atoms

 Group   1 Type C   : 12s5p4d2f1g contracted to 6s4p3d1f1g pattern {711111/2111/211/2/1}
 Group   2 Type O   : 12s5p4d2f1g contracted to 6s4p3d1f1g pattern {711111/2111/211/2/1}
 Group   3 Type P   : 14s5p5d2f1g contracted to 8s4p3d1f1g pattern {71111111/2111/311/2/1}
 Group   4 Type S   : 14s5p5d2f1g contracted to 8s4p3d1f1g pattern {71111111/2111/311/2/1}
 Group   5 Type H   : 5s2p1d contracted to 3s1p1d pattern {311/2/1}

Atom   0C    basis set group =>   1
Atom   1C    basis set group =>   1
Atom   2O    basis set group =>   2
Atom   3P    basis set group =>   3
Atom   4S    basis set group =>   4
Atom   5O    basis set group =>   2
Atom   6C    basis set group =>   1
Atom   7C    basis set group =>   1
Atom   8S    basis set group =>   4
Atom   9C    basis set group =>   1
Atom  10S    basis set group =>   4
Atom  11P    basis set group =>   3
Atom  12S    basis set group =>   4
Atom  13O    basis set group =>   2
Atom  14C    basis set group =>   1
Atom  15C    basis set group =>   1
Atom  16O    basis set group =>   2
Atom  17C    basis set group =>   1
Atom  18C    basis set group =>   1
Atom  19H    basis set group =>   5
Atom  20H    basis set group =>   5
Atom  21H    basis set group =>   5
Atom  22H    basis set group =>   5
Atom  23H    basis set group =>   5
Atom  24H    basis set group =>   5
Atom  25H    basis set group =>   5
Atom  26H    basis set group =>   5
Atom  27H    basis set group =>   5
Atom  28H    basis set group =>   5
Atom  29H    basis set group =>   5
Atom  30H    basis set group =>   5
Atom  31H    basis set group =>   5
Atom  32H    basis set group =>   5
Atom  33H    basis set group =>   5
Atom  34H    basis set group =>   5
Atom  35H    basis set group =>   5
Atom  36H    basis set group =>   5
Atom  37H    basis set group =>   5
Atom  38H    basis set group =>   5
Atom  39H    basis set group =>   5
Atom  40H    basis set group =>   5
------------------------------------------------------------------------------
                             ORCA STARTUP CALCULATIONS
                           -- RI-GTO INTEGRALS CHOSEN --
------------------------------------------------------------------------------
------------------------------------------------------------------------------
                   ___                                                        
                  /   \      - P O W E R E D   B Y -                         
                 /     \                                                     
                 |  |  |   _    _      __       _____    __    __             
                 |  |  |  | |  | |    /  \     |  _  \  |  |  /  |          
                  \  \/   | |  | |   /    \    | | | |  |  | /  /          
                 / \  \   | |__| |  /  /\  \   | |_| |  |  |/  /          
                |  |  |   |  __  | /  /__\  \  |    /   |      \           
                |  |  |   | |  | | |   __   |  |    \   |  |\   \          
                \     /   | |  | | |  |  |  |  | |\  \  |  | \   \       
                 \___/    |_|  |_| |__|  |__|  |_| \__\ |__|  \__/        
                                                                              
                      - O R C A' S   B I G   F R I E N D -                    
                                      &                                       
                       - I N T E G R A L  F E E D E R -                       
                                                                              
 v1 FN, 2020, v2 2021, v3 2022-2024                                           
------------------------------------------------------------------------------


----------------------
SHARK INTEGRAL PACKAGE
----------------------

Number of atoms                             ...     41
Number of basis functions                   ...    334
Number of shells                            ...    170
Maximum angular momentum                    ...      2
Integral batch strategy                     ... SHARK/LIBINT Hybrid
RI-J (if used) integral strategy            ... SPLIT-RIJ (Revised 2003 algorithm where possible)
Printlevel                                  ...      1
Contraction scheme used                     ... SEGMENTED contraction
Prescreening option                         ... SCHWARTZ
   Thresh                                   ... 1.000e-09
   Tcut                                     ... 1.000e-10
   Tpresel                                  ... 1.000e-10 
Coulomb Range Separation                    ... NOT USED
Exchange Range Separation                   ... NOT USED
Multipole approximations                    ... NOT USED
Finite Nucleus Model                        ... NOT USED
CABS basis                                  ... NOT available
Auxiliary Coulomb fitting basis             ... AVAILABLE
   # of basis functions in Aux-J            ...   1185
   # of shells in Aux-J                     ...    407
   Maximum angular momentum in Aux-J        ...      4
Auxiliary J/K fitting basis                 ... NOT available
Auxiliary Correlation fitting basis         ... NOT available
Auxiliary 'external' fitting basis          ... NOT available

Checking pre-screening integrals            ... done (  0.0 sec) Dimension = 170
Check shell pair data                       ... done (  0.0 sec)
Shell pair information
Shell pair cut-off parameter TPreSel        ...   1.0e-10
Total number of shell pairs                 ...     14535
Shell pairs after pre-screening             ...      9978
Total number of primitive shell pairs       ...     62501
Primitive shell pairs kept                  ...     24830
          la=0 lb=0:   3837 shell pairs
          la=1 lb=0:   3405 shell pairs
          la=1 lb=1:    790 shell pairs
          la=2 lb=0:   1255 shell pairs
          la=2 lb=1:    585 shell pairs
          la=2 lb=2:    106 shell pairs

Calculating one electron integrals          ... done (  0.1 sec)
Calculating RI/J V-Matrix + Cholesky decomp.... done (  0.1 sec)
Calculating Nuclear repulsion               ... done (  0.0 sec) ENN=   2773.428038601508 Eh

Diagonalization of the overlap matrix:
Smallest eigenvalue                        ... 3.364e-03
Time for diagonalization                   ...    0.010 sec
Threshold for overlap eigenvalues          ... 1.000e-07
Number of eigenvalues below threshold      ... 0
Time for construction of square roots      ...    0.045 sec
Total time needed                          ...    0.076 sec

-------------------
DFT GRID GENERATION
-------------------

General Integration Accuracy     IntAcc      ... 4.159
Radial Grid Type                 RadialGrid  ... OptM3 with GC (2021)
Angular Grid (max. ang.)         AngularGrid ... 3 (Lebedev-194)
Angular grid pruning method      GridPruning ... 4 (adaptive)
Weight generation scheme         WeightScheme... mBecke (2022)
Basis function cutoff            BFCut       ... 1.0000e-10
Integration weight cutoff        WCut        ... 1.0000e-14
Partially contracted basis set               ... off
Rotationally invariant grid construction     ... off
Angular grids for H and He will be reduced by one unit

Total number of grid points                  ...    97618
Total number of batches                      ...     1548
Average number of points per batch           ...       63
Average number of grid points per atom       ...     2381
Initializing property integral containers    ... done (  0.0 sec)

SHARK setup successfully completed in   1.6 seconds

Maximum memory used throughout the entire STARTUP-calculation: 51.1 MB
-------------------------------------------------------------------------------
                                 ORCA GUESS
                   Start orbitals & Density for SCF / CASSCF
-------------------------------------------------------------------------------

------------
SCF SETTINGS
------------
Hamiltonian:
 Density Functional     Method          .... DFT(GTOs)
 Exchange Functional    Exchange        .... PBE
   PBE kappa parameter   XKappa         ....  0.804000
   PBE mue parameter    XMuePBE         ....  0.219520
 Correlation Functional Correlation     .... PBE
   PBE beta parameter  CBetaPBE         ....  0.066725
 LDA part of GGA corr.  LDAOpt          .... PW91-LDA
 Gradients option       PostSCFGGA      .... off
   NL short-range parameter             ....  6.400000
 RI-approximation to the Coulomb term is turned on
   Number of AuxJ basis functions       .... 1185


General Settings:
 Integral files         IntName         .... sp
 Hartree-Fock type      HFTyp           .... RHF
 Total Charge           Charge          ....    0
 Multiplicity           Mult            ....    1
 Number of Electrons    NEL             ....  202
 Basis Dimension        Dim             ....  334
 Nuclear Repulsion      ENuc            ....   2773.4280386015 Eh

Convergence Acceleration:
 AO-DIIS                CNVDIIS         .... on
   Start iteration      DIISMaxIt       ....    12
   Startup error        DIISStart       ....  0.200000
   # of expansion vecs  DIISMaxEq       ....     5
   Bias factor          DIISBfac        ....   1.050
   Max. coefficient     DIISMaxC        ....  10.000
 MO-DIIS                CNVKDIIS        .... off
 Trust-Rad. Augm. Hess. CNVTRAH         .... auto
   Auto Start mean grad. ratio tolernc. ....  1.125000
   Auto Start start iteration           ....    50
   Auto Start num. interpolation iter.  ....    10
   Max. Number of Micro iterations      ....    24
   Max. Number of Macro iterations      .... Maxiter - #DIIS iter
   Number of Davidson start vectors     ....     2
   Converg. threshold    (grad. norm)   ....   1.000e-04
   Grad. Scal. Fac. for Micro threshold ....   0.100
   Minimum threshold for Micro iter.    ....   1.000e-02
   NR start threshold (gradient norm)   ....   1.000e-04
   Initial trust radius                 ....   0.400
   Minimum AH scaling param. (alpha)    ....   1.000
   Maximum AH scaling param. (alpha)    .... 1000.000
   Quad. conv. algorithm                .... NR
   White noise on init. David. guess    .... on
   Maximum white noise                  ....   0.010
   Pseudo random numbers                .... off
   Inactive MOs                         .... canonical
   Orbital update algorithm             .... Taylor
   Preconditioner                       .... Diag
   Full preconditioner red. dimension   ....   250
 SOSCF                  CNVSOSCF        .... on
   Start iteration      SOSCFMaxIt      ....   150
   Startup grad/error   SOSCFStart      ....  0.003300
   Hessian update       SOSCFHessUp     .... L-BFGS
 Level Shifting         CNVShift        .... on
   Level shift para.    LevelShift      ....    0.2500
   Turn off err/grad.   ShiftErr        ....    0.0010
 Zerner damping         CNVZerner       .... off
 Static damping         CNVDamp         .... on
   Fraction old density DampFac         ....    0.7000
   Max. Damping (<1)    DampMax         ....    0.9800
   Min. Damping (>=0)   DampMin         ....    0.0000
   Turn off err/grad.   DampErr         ....    0.1000

SCF Procedure:
 Maximum # iterations   MaxIter         ....   125
 SCF integral mode      SCFMode         .... Direct
   Integral package                     .... SHARK and LIBINT hybrid scheme
 Reset frequency        DirectResetFreq ....    20
 Integral Threshold     Thresh          ....  1.000e-09 Eh
 Primitive CutOff       TCut            ....  1.000e-10 Eh

Convergence Tolerance:
 Convergence Check Mode ConvCheckMode   .... Total+1el-Energy
 Convergence forced     ConvForced      .... 0
 Energy Change          TolE            ....  1.000e-05 Eh
 1-El. energy change                    ....  1.000e-02 Eh
 Orbital Gradient       TolG            ....  1.000e-04
 Orbital Rotation angle TolX            ....  1.000e-04
 DIIS Error             TolErr          ....  5.000e-04

------------------------------
INITIAL GUESS: MODEL POTENTIAL
------------------------------
Loading Hartree-Fock densities                     ... done
Calculating cut-offs                               ... done
Initializing the effective Hamiltonian             ... done
Setting up the integral package (SHARK)            ... done
Starting the Coulomb interaction                   ... done (   0.6 sec)
Making the grid                                    ... done (   0.6 sec)
Mapping shells                                     ... done
Starting the XC term evaluation                    ... done (   0.3 sec)
  promolecular density results
     # of electrons  =    201.993888597
     EX              =   -229.997164195
     EC              =     -7.283830220
     EX+EC           =   -237.280994415
Transforming the Hamiltonian                       ... done (   0.0 sec)
Diagonalizing the Hamiltonian                      ... done (   0.0 sec)
Back transforming the eigenvectors                 ... done (   0.0 sec)
Now organizing SCF variables                       ... done
                      ------------------
                      INITIAL GUESS DONE (   1.6 sec)
                      ------------------
             **** ENERGY FILE WAS UPDATED (sp.en.tmp) ****
Finished Guess after   1.8 sec
Maximum memory used throughout the entire GUESS-calculation: 38.8 MB

-------------------------------------------------------------------------------------------
                                      ORCA LEAN-SCF
                              memory conserving SCF solver
-------------------------------------------------------------------------------------------

----------------------------------------D-I-I-S--------------------------------------------
Iteration    Energy (Eh)           Delta-E    RMSDP     MaxDP     DIISErr   Damp  Time(sec)
-------------------------------------------------------------------------------------------
               ***  Starting incremental Fock matrix formation  ***
    1    -2929.1951535806601896     0.00e+00  2.67e-03  1.38e-01  1.84e-01  0.700   2.2
    2    -2929.4178892269574135    -2.23e-01  1.73e-03  7.08e-02  7.53e-02  0.700   2.0
                               ***Turning on AO-DIIS***
    3    -2929.4888874862936063    -7.10e-02  6.91e-04  1.58e-02  2.21e-02  0.700   1.9
    4    -2929.5336175017882852    -4.47e-02  1.05e-03  3.02e-02  1.03e-02  0.000   1.8
    5    -2929.6377017150462052    -1.04e-01  3.10e-04  9.32e-03  8.33e-03  0.000   1.9
                              *** Initializing SOSCF ***
---------------------------------------S-O-S-C-F--------------------------------------
Iteration    Energy (Eh)           Delta-E    RMSDP     MaxDP     MaxGrad    Time(sec)
--------------------------------------------------------------------------------------
    6    -2929.6387752084310705    -1.07e-03  1.09e-04  3.46e-03  2.15e-03     1.9
               *** Restarting incremental Fock matrix formation ***
    7    -2929.6389117110638836    -1.37e-04  7.02e-05  1.56e-03  1.93e-04     2.2
    8    -2929.6389172611816321    -5.55e-06  2.47e-05  7.19e-04  1.54e-04     1.8
                 **** Energy Check signals convergence ****

               *****************************************************
               *                     SUCCESS                       *
               *           SCF CONVERGED AFTER   8 CYCLES          *
               *****************************************************

             **** ENERGY FILE WAS UPDATED (sp.en.tmp) ****

----------------
TOTAL SCF ENERGY
----------------

Total Energy       :      -2929.63891726118163 Eh          -79719.52780 eV

Components:
Nuclear Repulsion  :       2773.42803860150798 Eh           75468.81369 eV
Electronic Energy  :      -5703.06695586268961 Eh         -155188.34149 eV
One Electron Energy:      -9566.01900047371782 Eh         -260304.61063 eV
Two Electron Energy:       3862.95204461102821 Eh          105116.26914 eV

Virial components:
Potential Energy   :      -5848.93088744769011 Eh         -159157.50086 eV
Kinetic Energy     :       2919.29197018650802 Eh           79437.97306 eV
Virial Ratio       :          2.00354433444148

DFT components:
N(Alpha)           :      100.999711823928 electrons
N(Beta)            :      100.999711823928 electrons
N(Total)           :      201.999423647857 electrons
E(X)               :     -231.804893188482 Eh       
E(C)               :       -7.293649964517 Eh       
E(XC)              :     -239.098543153000 Eh       

---------------
SCF CONVERGENCE
---------------

  Last Energy change         ...    5.5501e-06  Tolerance :   1.0000e-05
  Last MAX-Density change    ...    7.1892e-04  Tolerance :   1.0000e-03
  Last RMS-Density change    ...    2.4692e-05  Tolerance :   1.0000e-04
  Last DIIS Error            ...    2.1532e-03  Tolerance :   5.0000e-04
  Last Orbital Gradient      ...    1.5363e-04  Tolerance :   1.0000e-04
  Last Orbital Rotation      ...    2.6222e-04  Tolerance :   1.0000e-04


----------------
ORBITAL ENERGIES
----------------

  NO   OCC          E(Eh)            E(eV) 
   0   2.0000     -88.040612     -2395.7068 
   1   2.0000     -88.034745     -2395.5472 
   2   2.0000     -87.986777     -2394.2419 
   3   2.0000     -87.981048     -2394.0860 
   4   2.0000     -76.423647     -2079.5932 
   5   2.0000     -76.423395     -2079.5863 
   6   2.0000     -18.795463      -511.4506 
   7   2.0000     -18.792458      -511.3688 
   8   2.0000     -18.788690      -511.2663 
   9   2.0000     -18.781249      -511.0638 
  10   2.0000      -9.954119      -270.8654 
  11   2.0000      -9.953552      -270.8499 
  12   2.0000      -9.951852      -270.8036 
  13   2.0000      -9.951531      -270.7949 
  14   2.0000      -9.942409      -270.5467 
  15   2.0000      -9.887569      -269.0544 
  16   2.0000      -9.884550      -268.9723 
  17   2.0000      -9.883667      -268.9482 
  18   2.0000      -9.877632      -268.7840 
  19   2.0000      -7.685732      -209.1394 
  20   2.0000      -7.680063      -208.9851 
  21   2.0000      -7.631736      -207.6701 
  22   2.0000      -7.626031      -207.5149 
  23   2.0000      -6.421213      -174.7301 
  24   2.0000      -6.420967      -174.7234 
  25   2.0000      -5.713561      -155.4739 
  26   2.0000      -5.710385      -155.3875 
  27   2.0000      -5.708203      -155.3281 
  28   2.0000      -5.704666      -155.2319 
  29   2.0000      -5.702541      -155.1740 
  30   2.0000      -5.696643      -155.0135 
  31   2.0000      -5.660486      -154.0297 
  32   2.0000      -5.654811      -153.8752 
  33   2.0000      -5.652488      -153.8120 
  34   2.0000      -5.651958      -153.7976 
  35   2.0000      -5.646824      -153.6579 
  36   2.0000      -5.646172      -153.6402 
  37   2.0000      -4.643646      -126.3600 
  38   2.0000      -4.643554      -126.3575 
  39   2.0000      -4.642905      -126.3399 
  40   2.0000      -4.642782      -126.3365 
  41   2.0000      -4.641957      -126.3141 
  42   2.0000      -4.641243      -126.2946 
  43   2.0000      -0.987318       -26.8663 
  44   2.0000      -0.983206       -26.7544 
  45   2.0000      -0.946889       -25.7662 
  46   2.0000      -0.941436       -25.6178 
  47   2.0000      -0.761362       -20.7177 
  48   2.0000      -0.719991       -19.5920 
  49   2.0000      -0.705738       -19.2041 
  50   2.0000      -0.689145       -18.7526 
  51   2.0000      -0.683534       -18.5999 
  52   2.0000      -0.668919       -18.2022 
  53   2.0000      -0.648575       -17.6486 
  54   2.0000      -0.636476       -17.3194 
  55   2.0000      -0.600042       -16.3280 
  56   2.0000      -0.593648       -16.1540 
  57   2.0000      -0.568641       -15.4735 
  58   2.0000      -0.566238       -15.4081 
  59   2.0000      -0.560135       -15.2421 
  60   2.0000      -0.502380       -13.6705 
  61   2.0000      -0.488934       -13.3046 
  62   2.0000      -0.479943       -13.0599 
  63   2.0000      -0.469034       -12.7631 
  64   2.0000      -0.455214       -12.3870 
  65   2.0000      -0.441904       -12.0248 
  66   2.0000      -0.437126       -11.8948 
  67   2.0000      -0.435194       -11.8422 
  68   2.0000      -0.424096       -11.5402 
  69   2.0000      -0.410757       -11.1773 
  70   2.0000      -0.407569       -11.0905 
  71   2.0000      -0.397681       -10.8215 
  72   2.0000      -0.388481       -10.5711 
  73   2.0000      -0.382925       -10.4199 
  74   2.0000      -0.379890       -10.3373 
  75   2.0000      -0.374566       -10.1925 
  76   2.0000      -0.370046       -10.0695 
  77   2.0000      -0.357285        -9.7222 
  78   2.0000      -0.355453        -9.6724 
  79   2.0000      -0.349467        -9.5095 
  80   2.0000      -0.346478        -9.4281 
  81   2.0000      -0.344654        -9.3785 
  82   2.0000      -0.342465        -9.3190 
  83   2.0000      -0.337581        -9.1860 
  84   2.0000      -0.329900        -8.9770 
  85   2.0000      -0.318865        -8.6767 
  86   2.0000      -0.307499        -8.3675 
  87   2.0000      -0.296981        -8.0813 
  88   2.0000      -0.293814        -7.9951 
  89   2.0000      -0.286788        -7.8039 
  90   2.0000      -0.278551        -7.5798 
  91   2.0000      -0.274240        -7.4625 
  92   2.0000      -0.268523        -7.3069 
  93   2.0000      -0.262274        -7.1368 
  94   2.0000      -0.258457        -7.0330 
  95   2.0000      -0.232692        -6.3319 
  96   2.0000      -0.215498        -5.8640 
  97   2.0000      -0.208501        -5.6736 
  98   2.0000      -0.204026        -5.5518 
  99   2.0000      -0.195382        -5.3166 
 100   2.0000      -0.189613        -5.1596 
 101   0.0000      -0.045434        -1.2363 
 102   0.0000      -0.019333        -0.5261 
 103   0.0000      -0.014785        -0.4023 
 104   0.0000       0.006727         0.1831 
 105   0.0000       0.023339         0.6351 
 106   0.0000       0.028901         0.7864 
 107   0.0000       0.036490         0.9929 
 108   0.0000       0.042004         1.1430 
 109   0.0000       0.047523         1.2932 
 110   0.0000       0.052218         1.4209 
 111   0.0000       0.055917         1.5216 
*Only the first 10 virtual orbitals were printed.

                    ********************************
                    * MULLIKEN POPULATION ANALYSIS *
                    ********************************

-----------------------
MULLIKEN ATOMIC CHARGES
-----------------------
   0 C :   -0.311032
   1 C :    0.005241
   2 O :   -0.343080
   3 P :    0.620839
   4 S :   -0.342638
   5 O :   -0.368436
   6 C :   -0.005148
   7 C :   -0.314467
   8 S :   -0.082654
   9 C :   -0.347895
  10 S :   -0.099781
  11 P :    0.623697
  12 S :   -0.313462
  13 O :   -0.375876
  14 C :   -0.009670
  15 C :   -0.285130
  16 O :   -0.375532
  17 C :   -0.005367
  18 C :   -0.308195
  19 H :    0.118777
  20 H :    0.109487
  21 H :    0.119211
  22 H :    0.102812
  23 H :    0.107873
  24 H :    0.106568
  25 H :    0.111153
  26 H :    0.113015
  27 H :    0.125103
  28 H :    0.119035
  29 H :    0.190698
  30 H :    0.186894
  31 H :    0.100948
  32 H :    0.103369
  33 H :    0.110946
  34 H :    0.119628
  35 H :    0.117866
  36 H :    0.117010
  37 H :    0.103266
  38 H :    0.117282
  39 H :    0.125016
  40 H :    0.112630
Sum of atomic charges:   -0.0000000

--------------------------------
MULLIKEN REDUCED ORBITAL CHARGES
--------------------------------
  0 C s       :     3.101918  s :     3.101918
      pz      :     1.077868  p :     3.181090
      px      :     1.035195
      py      :     1.068027
      dz2     :     0.003909  d :     0.028024
      dxz     :     0.006827
      dyz     :     0.006966
      dx2y2   :     0.005899
      dxy     :     0.004423

  1 C s       :     3.074822  s :     3.074822
      pz      :     1.057039  p :     2.859521
      px      :     0.999905
      py      :     0.802578
      dz2     :     0.007994  d :     0.060415
      dxz     :     0.009830
      dyz     :     0.014196
      dx2y2   :     0.013074
      dxy     :     0.015320

  2 O s       :     3.756496  s :     3.756496
      pz      :     1.569934  p :     4.572994
      px      :     1.660945
      py      :     1.342115
      dz2     :     0.002589  d :     0.013591
      dxz     :     0.002555
      dyz     :     0.002789
      dx2y2   :     0.002036
      dxy     :     0.003622

  3 P s       :     5.199352  s :     5.199352
      pz      :     2.842960  p :     8.587782
      px      :     2.891299
      py      :     2.853523
      dz2     :     0.117912  d :     0.592027
      dxz     :     0.113607
      dyz     :     0.139734
      dx2y2   :     0.090819
      dxy     :     0.129955

  4 S s       :     5.923241  s :     5.923241
      pz      :     3.295747  p :    10.376681
      px      :     3.525837
      py      :     3.555097
      dz2     :     0.011375  d :     0.042715
      dxz     :     0.011499
      dyz     :     0.011212
      dx2y2   :     0.003779
      dxy     :     0.004850

  5 O s       :     3.758301  s :     3.758301
      pz      :     1.606720  p :     4.597003
      px      :     1.470339
      py      :     1.519944
      dz2     :     0.002115  d :     0.013132
      dxz     :     0.003623
      dyz     :     0.003416
      dx2y2   :     0.001895
      dxy     :     0.002083

  6 C s       :     3.075974  s :     3.075974
      pz      :     1.021746  p :     2.868745
      px      :     0.924265
      py      :     0.922734
      dz2     :     0.006608  d :     0.060429
      dxz     :     0.015247
      dyz     :     0.013433
      dx2y2   :     0.009396
      dxy     :     0.015746

  7 C s       :     3.105803  s :     3.105803
      pz      :     1.077130  p :     3.180647
      px      :     1.066225
      py      :     1.037292
      dz2     :     0.003875  d :     0.028018
      dxz     :     0.007789
      dyz     :     0.006104
      dx2y2   :     0.001804
      dxy     :     0.008446

  8 S s       :     5.885871  s :     5.885871
      pz      :     3.431110  p :    10.120576
      px      :     3.256073
      py      :     3.433393
      dz2     :     0.013183  d :     0.076207
      dxz     :     0.011868
      dyz     :     0.018166
      dx2y2   :     0.012064
      dxy     :     0.020926

  9 C s       :     3.208761  s :     3.208761
      pz      :     1.051218  p :     3.098747
      px      :     1.116060
      py      :     0.931469
      dz2     :     0.006123  d :     0.040387
      dxz     :     0.008670
      dyz     :     0.008879
      dx2y2   :     0.006892
      dxy     :     0.009823

 10 S s       :     5.878812  s :     5.878812
      pz      :     3.382261  p :    10.148360
      px      :     3.551280
      py      :     3.214820
      dz2     :     0.011875  d :     0.072609
      dxz     :     0.015178
      dyz     :     0.014707
      dx2y2   :     0.017893
      dxy     :     0.012956

 11 P s       :     5.208847  s :     5.208847
      pz      :     2.909073  p :     8.582481
      px      :     2.864514
      py      :     2.808894
      dz2     :     0.113591  d :     0.584975
      dxz     :     0.126804
      dyz     :     0.111819
      dx2y2   :     0.098359
      dxy     :     0.134402

 12 S s       :     5.921423  s :     5.921423
      pz      :     3.086917  p :    10.349006
      px      :     3.618316
      py      :     3.643772
      dz2     :     0.017453  d :     0.043033
      dxz     :     0.012926
      dyz     :     0.008268
      dx2y2   :     0.002447
      dxy     :     0.001939

 13 O s       :     3.763296  s :     3.763296
      pz      :     1.697636  p :     4.599757
      px      :     1.587929
      py      :     1.314192
      dz2     :     0.001957  d :     0.012823
      dxz     :     0.001909
      dyz     :     0.002738
      dx2y2   :     0.002462
      dxy     :     0.003758

 14 C s       :     3.070606  s :     3.070606
      pz      :     1.006373  p :     2.878890
      px      :     1.087490
      py      :     0.785026
      dz2     :     0.008227  d :     0.060174
      dxz     :     0.011140
      dyz     :     0.015773
      dx2y2   :     0.012841
      dxy     :     0.012193

 15 C s       :     3.094215  s :     3.094215
      pz      :     1.083570  p :     3.163074
      px      :     1.021427
      py      :     1.058076
      dz2     :     0.003459  d :     0.027841
      dxz     :     0.008262
      dyz     :     0.005682
      dx2y2   :     0.005918
      dxy     :     0.004520

 16 O s       :     3.755691  s :     3.755691
      pz      :     1.606418  p :     4.606612
      px      :     1.619769
      py      :     1.380425
      dz2     :     0.002309  d :     0.013229
      dxz     :     0.002590
      dyz     :     0.004198
      dx2y2   :     0.001952
      dxy     :     0.002179

 17 C s       :     3.080998  s :     3.080998
      pz      :     0.979279  p :     2.864548
      px      :     0.986872
      py      :     0.898397
      dz2     :     0.005968  d :     0.059822
      dxz     :     0.013961
      dyz     :     0.017130
      dx2y2   :     0.010737
      dxy     :     0.012026

 18 C s       :     3.102186  s :     3.102186
      pz      :     1.075331  p :     3.178107
      px      :     1.029096
      py      :     1.073680
      dz2     :     0.001998  d :     0.027903
      dxz     :     0.007212
      dyz     :     0.008778
      dx2y2   :     0.003983
      dxy     :     0.005932

 19 H s       :     0.881223  s :     0.881223

 20 H s       :     0.890513  s :     0.890513

 21 H s       :     0.880789  s :     0.880789

 22 H s       :     0.897188  s :     0.897188

 23 H s       :     0.892127  s :     0.892127

 24 H s       :     0.893432  s :     0.893432

 25 H s       :     0.888847  s :     0.888847

 26 H s       :     0.886985  s :     0.886985

 27 H s       :     0.874897  s :     0.874897

 28 H s       :     0.880965  s :     0.880965

 29 H s       :     0.809302  s :     0.809302

 30 H s       :     0.813106  s :     0.813106

 31 H s       :     0.899052  s :     0.899052

 32 H s       :     0.896631  s :     0.896631

 33 H s       :     0.889054  s :     0.889054

 34 H s       :     0.880372  s :     0.880372

 35 H s       :     0.882134  s :     0.882134

 36 H s       :     0.882990  s :     0.882990

 37 H s       :     0.896734  s :     0.896734

 38 H s       :     0.882718  s :     0.882718

 39 H s       :     0.874984  s :     0.874984

 40 H s       :     0.887370  s :     0.887370


------------------------
MULLIKEN OVERLAP CHARGES
------------------------
B(  0-C ,  1-C ) :   0.8935 B(  0-C ,  2-O ) :  -0.0942 B(  0-C , 19-H ) :   0.7274 
B(  0-C , 20-H ) :   0.6988 B(  0-C , 21-H ) :   0.7239 B(  0-C , 23-H ) :  -0.0723 
B(  1-C ,  2-O ) :   0.5685 B(  1-C ,  3-P ) :  -0.0868 B(  1-C , 22-H ) :   0.7161 
B(  1-C , 23-H ) :   0.7264 B(  2-O ,  3-P ) :   0.6596 B(  2-O ,  4-S ) :  -0.0682 
B(  2-O ,  5-O ) :  -0.0597 B(  2-O ,  8-S ) :  -0.0740 B(  2-O , 22-H ) :  -0.0649 
B(  2-O , 23-H ) :  -0.0658 B(  3-P ,  4-S ) :   0.9139 B(  3-P ,  5-O ) :   0.6449 
B(  3-P ,  6-C ) :  -0.0776 B(  3-P ,  8-S ) :   0.5066 B(  3-P ,  9-C ) :  -0.0766 
B(  4-S ,  5-O ) :  -0.0713 B(  4-S ,  8-S ) :  -0.0897 B(  4-S , 23-H ) :   0.0513 
B(  4-S , 25-H ) :   0.0608 B(  4-S , 29-H ) :   0.0834 B(  5-O ,  6-C ) :   0.5582 
B(  5-O ,  7-C ) :  -0.0918 B(  5-O ,  8-S ) :  -0.0602 B(  5-O , 24-H ) :  -0.0576 
B(  5-O , 25-H ) :  -0.0679 B(  6-C ,  7-C ) :   0.9368 B(  6-C , 24-H ) :   0.7276 
B(  6-C , 25-H ) :   0.7206 B(  7-C , 25-H ) :  -0.0698 B(  7-C , 26-H ) :   0.6909 
B(  7-C , 27-H ) :   0.7258 B(  7-C , 28-H ) :   0.7304 B(  8-S ,  9-C ) :   0.4886 
B(  8-S , 10-S ) :  -0.1646 B(  8-S , 29-H ) :  -0.0562 B(  8-S , 30-H ) :  -0.0633 
B(  9-C , 10-S ) :   0.4826 B(  9-C , 11-P ) :  -0.0760 B(  9-C , 29-H ) :   0.6663 
B(  9-C , 30-H ) :   0.7131 B( 10-S , 11-P ) :   0.5317 B( 10-S , 12-S ) :  -0.0691 
B( 10-S , 13-O ) :  -0.0701 B( 10-S , 16-O ) :  -0.0869 B( 10-S , 29-H ) :  -0.0665 
B( 10-S , 30-H ) :  -0.0614 B( 11-P , 12-S ) :   0.9484 B( 11-P , 13-O ) :   0.6228 
B( 11-P , 14-C ) :  -0.0847 B( 11-P , 16-O ) :   0.6191 B( 11-P , 17-C ) :  -0.0894 
B( 12-S , 13-O ) :  -0.0805 B( 12-S , 16-O ) :  -0.0692 B( 12-S , 32-H ) :   0.0877 
B( 12-S , 36-H ) :   0.0582 B( 13-O , 14-C ) :   0.5602 B( 13-O , 15-C ) :  -0.1158 
B( 13-O , 31-H ) :  -0.0648 B( 13-O , 32-H ) :  -0.0721 B( 14-C , 15-C ) :   0.8716 
B( 14-C , 31-H ) :   0.7320 B( 14-C , 32-H ) :   0.6832 B( 15-C , 31-H ) :  -0.0582 
B( 15-C , 33-H ) :   0.6979 B( 15-C , 34-H ) :   0.7490 B( 15-C , 35-H ) :   0.7428 
B( 16-O , 17-C ) :   0.5464 B( 16-O , 18-C ) :  -0.0921 B( 16-O , 36-H ) :  -0.0653 
B( 16-O , 37-H ) :  -0.0595 B( 17-C , 18-C ) :   0.8974 B( 17-C , 36-H ) :   0.7199 
B( 17-C , 37-H ) :   0.7279 B( 18-C , 36-H ) :  -0.0658 B( 18-C , 37-H ) :  -0.0528 
B( 18-C , 38-H ) :   0.7292 B( 18-C , 39-H ) :   0.7142 B( 18-C , 40-H ) :   0.6984 
B( 19-H , 21-H ) :  -0.0538 B( 22-H , 23-H ) :  -0.0677 B( 24-H , 25-H ) :  -0.0643 
B( 27-H , 28-H ) :  -0.0538 B( 31-H , 32-H ) :  -0.0735 B( 34-H , 35-H ) :  -0.0538 
B( 36-H , 37-H ) :  -0.0644 B( 38-H , 39-H ) :  -0.0521 


                     *******************************
                     * LOEWDIN POPULATION ANALYSIS *
                     *******************************

----------------------
LOEWDIN ATOMIC CHARGES
----------------------
   0 C :   -0.365823
   1 C :   -0.115816
   2 O :   -0.226775
   3 P :    0.576883
   4 S :   -0.328093
   5 O :   -0.240656
   6 C :   -0.118803
   7 C :   -0.369445
   8 S :    0.094965
   9 C :   -0.476485
  10 S :    0.069595
  11 P :    0.568966
  12 S :   -0.308462
  13 O :   -0.249587
  14 C :   -0.121419
  15 C :   -0.350950
  16 O :   -0.239282
  17 C :   -0.117004
  18 C :   -0.365152
  19 H :    0.127144
  20 H :    0.129043
  21 H :    0.120126
  22 H :    0.117370
  23 H :    0.109360
  24 H :    0.119376
  25 H :    0.110478
  26 H :    0.131030
  27 H :    0.120540
  28 H :    0.124938
  29 H :    0.129220
  30 H :    0.133350
  31 H :    0.111010
  32 H :    0.104876
  33 H :    0.130274
  34 H :    0.127413
  35 H :    0.127222
  36 H :    0.113081
  37 H :    0.117543
  38 H :    0.126713
  39 H :    0.122267
  40 H :    0.130969

-------------------------------
LOEWDIN REDUCED ORBITAL CHARGES
-------------------------------
  0 C s       :     2.953052  s :     2.953052
      pz      :     1.126993  p :     3.343348
      px      :     1.087641
      py      :     1.128714
      dz2     :     0.008822  d :     0.069423
      dxz     :     0.017236
      dyz     :     0.017103
      dx2y2   :     0.015527
      dxy     :     0.010734

  1 C s       :     2.926989  s :     2.926989
      pz      :     1.118171  p :     3.054682
      px      :     1.060510
      py      :     0.876002
      dz2     :     0.016485  d :     0.134146
      dxz     :     0.023073
      dyz     :     0.031419
      dx2y2   :     0.030901
      dxy     :     0.032268

  2 O s       :     3.499893  s :     3.499893
      pz      :     1.619815  p :     4.702270
      px      :     1.676896
      py      :     1.405559
      dz2     :     0.004193  d :     0.024612
      dxz     :     0.003940
      dyz     :     0.006112
      dx2y2   :     0.003588
      dxy     :     0.006779

  3 P s       :     5.053160  s :     5.053160
      pz      :     2.860402  p :     8.550747
      px      :     2.861803
      py      :     2.828542
      dz2     :     0.154313  d :     0.819211
      dxz     :     0.159666
      dyz     :     0.203460
      dx2y2   :     0.115370
      dxy     :     0.186402

  4 S s       :     5.766800  s :     5.766800
      pz      :     3.361405  p :    10.503781
      px      :     3.558964
      py      :     3.583413
      dz2     :     0.014548  d :     0.057512
      dxz     :     0.016529
      dyz     :     0.015854
      dx2y2   :     0.004102
      dxy     :     0.006479

  5 O s       :     3.500256  s :     3.500256
      pz      :     1.648994  p :     4.716425
      px      :     1.519597
      py      :     1.547834
      dz2     :     0.002740  d :     0.023975
      dxz     :     0.006693
      dyz     :     0.006251
      dx2y2   :     0.003559
      dxy     :     0.004733

  6 C s       :     2.927235  s :     2.927235
      pz      :     1.082273  p :     3.056646
      px      :     0.975023
      py      :     0.999349
      dz2     :     0.012160  d :     0.134922
      dxz     :     0.035899
      dyz     :     0.031473
      dx2y2   :     0.019422
      dxy     :     0.035968

  7 C s       :     2.954122  s :     2.954122
      pz      :     1.123074  p :     3.346110
      px      :     1.125606
      py      :     1.097431
      dz2     :     0.008313  d :     0.069213
      dxz     :     0.019058
      dyz     :     0.016116
      dx2y2   :     0.004318
      dxy     :     0.021407

  8 S s       :     5.643439  s :     5.643439
      pz      :     3.442840  p :    10.165394
      px      :     3.260531
      py      :     3.462023
      dz2     :     0.016363  d :     0.096202
      dxz     :     0.015071
      dyz     :     0.023319
      dx2y2   :     0.014573
      dxy     :     0.026876

  9 C s       :     3.059963  s :     3.059963
      pz      :     1.107789  p :     3.327645
      px      :     1.166974
      py      :     1.052882
      dz2     :     0.012603  d :     0.088877
      dxz     :     0.019370
      dyz     :     0.020433
      dx2y2   :     0.015261
      dxy     :     0.021209

 10 S s       :     5.643768  s :     5.643768
      pz      :     3.383609  p :    10.195256
      px      :     3.544015
      py      :     3.267632
      dz2     :     0.015665  d :     0.091381
      dxz     :     0.019600
      dyz     :     0.017840
      dx2y2   :     0.022497
      dxy     :     0.015779

 11 P s       :     5.061136  s :     5.061136
      pz      :     2.925432  p :     8.557133
      px      :     2.858962
      py      :     2.772740
      dz2     :     0.161177  d :     0.812764
      dxz     :     0.173966
      dyz     :     0.152798
      dx2y2   :     0.127398
      dxy     :     0.197426

 12 S s       :     5.770245  s :     5.770245
      pz      :     3.200854  p :    10.480282
      px      :     3.627038
      py      :     3.652390
      dz2     :     0.025808  d :     0.057935
      dxz     :     0.017513
      dyz     :     0.009782
      dx2y2   :     0.002791
      dxy     :     0.002041

 13 O s       :     3.503145  s :     3.503145
      pz      :     1.715848  p :     4.722956
      px      :     1.629189
      py      :     1.377919
      dz2     :     0.003386  d :     0.023486
      dxz     :     0.002379
      dyz     :     0.005308
      dx2y2   :     0.004348
      dxy     :     0.008066

 14 C s       :     2.929734  s :     2.929734
      pz      :     1.065559  p :     3.057459
      px      :     1.117824
      py      :     0.874076
      dz2     :     0.018376  d :     0.134226
      dxz     :     0.024543
      dyz     :     0.034388
      dx2y2   :     0.029298
      dxy     :     0.027621

 15 C s       :     2.951122  s :     2.951122
      pz      :     1.131367  p :     3.330733
      px      :     1.081227
      py      :     1.118139
      dz2     :     0.008911  d :     0.069096
      dxz     :     0.019174
      dyz     :     0.013844
      dx2y2   :     0.015544
      dxy     :     0.011623

 16 O s       :     3.497782  s :     3.497782
      pz      :     1.643922  p :     4.717379
      px      :     1.633259
      py      :     1.440198
      dz2     :     0.003167  d :     0.024121
      dxz     :     0.004196
      dyz     :     0.008164
      dx2y2   :     0.003529
      dxy     :     0.005065

 17 C s       :     2.929645  s :     2.929645
      pz      :     1.047556  p :     3.053905
      px      :     1.052452
      py      :     0.953897
      dz2     :     0.010854  d :     0.133454
      dxz     :     0.032826
      dyz     :     0.039524
      dx2y2   :     0.024097
      dxy     :     0.026153

 18 C s       :     2.952890  s :     2.952890
      pz      :     1.123333  p :     3.343046
      px      :     1.090464
      py      :     1.129248
      dz2     :     0.004142  d :     0.069216
      dxz     :     0.018660
      dyz     :     0.021246
      dx2y2   :     0.009961
      dxy     :     0.015206

 19 H s       :     0.872856  s :     0.872856

 20 H s       :     0.870957  s :     0.870957

 21 H s       :     0.879874  s :     0.879874

 22 H s       :     0.882630  s :     0.882630

 23 H s       :     0.890640  s :     0.890640

 24 H s       :     0.880624  s :     0.880624

 25 H s       :     0.889522  s :     0.889522

 26 H s       :     0.868970  s :     0.868970

 27 H s       :     0.879460  s :     0.879460

 28 H s       :     0.875062  s :     0.875062

 29 H s       :     0.870780  s :     0.870780

 30 H s       :     0.866650  s :     0.866650

 31 H s       :     0.888990  s :     0.888990

 32 H s       :     0.895124  s :     0.895124

 33 H s       :     0.869726  s :     0.869726

 34 H s       :     0.872587  s :     0.872587

 35 H s       :     0.872778  s :     0.872778

 36 H s       :     0.886919  s :     0.886919

 37 H s       :     0.882457  s :     0.882457

 38 H s       :     0.873287  s :     0.873287

 39 H s       :     0.877733  s :     0.877733

 40 H s       :     0.869031  s :     0.869031


---------------------------------
LOEWDIN BOND ORDERS (THRESH 0.050000)
---------------------------------
B(  0-C ,  1-C ) :   1.1580 B(  0-C ,  2-O ) :   0.0586 B(  0-C , 19-H ) :   0.9359 
B(  0-C , 20-H ) :   0.9265 B(  0-C , 21-H ) :   0.9294 B(  1-C ,  2-O ) :   1.0822 
B(  1-C ,  3-P ) :   0.0652 B(  1-C , 22-H ) :   0.9143 B(  1-C , 23-H ) :   0.9100 
B(  2-O ,  3-P ) :   1.3068 B(  2-O ,  4-S ) :   0.0947 B(  2-O ,  5-O ) :   0.0514 
B(  2-O ,  8-S ) :   0.0504 B(  3-P ,  4-S ) :   1.6970 B(  3-P ,  5-O ) :   1.2808 
B(  3-P ,  6-C ) :   0.0645 B(  3-P ,  8-S ) :   1.0566 B(  4-S ,  5-O ) :   0.0916 
B(  4-S ,  8-S ) :   0.1258 B(  5-O ,  6-C ) :   1.0909 B(  5-O ,  7-C ) :   0.0588 
B(  5-O ,  8-S ) :   0.0577 B(  6-C ,  7-C ) :   1.1578 B(  6-C , 24-H ) :   0.9172 
B(  6-C , 25-H ) :   0.9079 B(  7-C , 26-H ) :   0.9252 B(  7-C , 27-H ) :   0.9281 
B(  7-C , 28-H ) :   0.9355 B(  8-S ,  9-C ) :   1.1699 B(  8-S , 10-S ) :   0.1036 
B(  9-C , 10-S ) :   1.1629 B(  9-C , 29-H ) :   0.9091 B(  9-C , 30-H ) :   0.9243 
B( 10-S , 11-P ) :   1.0517 B( 10-S , 12-S ) :   0.1164 B( 10-S , 13-O ) :   0.0608 
B( 10-S , 16-O ) :   0.0512 B( 11-P , 12-S ) :   1.7357 B( 11-P , 13-O ) :   1.2683 
B( 11-P , 14-C ) :   0.0662 B( 11-P , 16-O ) :   1.2871 B( 11-P , 17-C ) :   0.0663 
B( 12-S , 13-O ) :   0.0980 B( 12-S , 16-O ) :   0.0938 B( 13-O , 14-C ) :   1.0851 
B( 13-O , 15-C ) :   0.0595 B( 14-C , 15-C ) :   1.1552 B( 14-C , 31-H ) :   0.9179 
B( 14-C , 32-H ) :   0.9020 B( 15-C , 33-H ) :   0.9291 B( 15-C , 34-H ) :   0.9373 
B( 15-C , 35-H ) :   0.9370 B( 16-O , 17-C ) :   1.0782 B( 16-O , 18-C ) :   0.0587 
B( 17-C , 18-C ) :   1.1581 B( 17-C , 36-H ) :   0.9076 B( 17-C , 37-H ) :   0.9180 
B( 18-C , 38-H ) :   0.9361 B( 18-C , 39-H ) :   0.9270 B( 18-C , 40-H ) :   0.9257 


------------------------------------------
LOEWDIN REDUCED ORBITAL POPULATIONS PER MO
-------------------------------------------
THRESHOLD FOR PRINTING IS 0.1%%
                      0         1         2         3         4         5   
                 -88.04061 -88.03474 -87.98678 -87.98105 -76.42365 -76.42339
                   2.00000   2.00000   2.00000   2.00000   2.00000   2.00000
                  --------  --------  --------  --------  --------  --------
 3 P  s               0.0       0.0       0.0       0.0      99.9       0.1
 4 S  s               0.0       0.0     100.0       0.0       0.0       0.0
 8 S  s             100.0       0.0       0.0       0.0       0.0       0.0
10 S  s               0.0     100.0       0.0       0.0       0.0       0.0
11 P  s               0.0       0.0       0.0       0.0       0.1      99.9
12 S  s               0.0       0.0       0.0     100.0       0.0       0.0

                      6         7         8         9        10        11   
                 -18.79546 -18.79246 -18.78869 -18.78125  -9.95412  -9.95355
                   2.00000   2.00000   2.00000   2.00000   2.00000   2.00000
                  --------  --------  --------  --------  --------  --------
 2 O  s               0.0       0.0       0.0      99.9       0.0       0.0
 5 O  s               0.0      99.9       0.0       0.0       0.0       0.0
 9 C  s               0.0       0.0       0.0       0.0      99.8       0.0
13 O  s               0.0       0.0      99.9       0.0       0.0       0.0
16 O  s              99.9       0.0       0.0       0.0       0.0       0.0
17 C  s               0.0       0.0       0.0       0.0       0.0      99.6

                     12        13        14        15        16        17   
                  -9.95185  -9.95153  -9.94241  -9.88757  -9.88455  -9.88367
                   2.00000   2.00000   2.00000   2.00000   2.00000   2.00000
                  --------  --------  --------  --------  --------  --------
 1 C  s               0.0       0.0      99.7       0.0       0.0       0.0
 6 C  s              99.7       0.0       0.0       0.0       0.0       0.0
 7 C  s               0.0       0.0       0.0       0.0       0.0      99.7
14 C  s               0.0      99.7       0.0       0.0       0.0       0.0
15 C  s               0.0       0.0       0.0      99.7       0.0       0.0
18 C  s               0.0       0.0       0.0       0.0      99.7       0.0

                     18        19        20        21        22        23   
                  -9.87763  -7.68573  -7.68006  -7.63174  -7.62603  -6.42121
                   2.00000   2.00000   2.00000   2.00000   2.00000   2.00000
                  --------  --------  --------  --------  --------  --------
 0 C  s              99.7       0.0       0.0       0.0       0.0       0.0
 2 O  pz              0.0       0.0       0.0       0.0       0.0       0.1
 3 P  s               0.0       0.0       0.0       0.0       0.0      99.3
 4 S  s               0.0       0.0       0.0      99.9       0.0       0.0
 8 S  s               0.0      99.7       0.0       0.0       0.0       0.0
 9 C  py              0.0       0.1       0.1       0.0       0.0       0.0
10 S  s               0.0       0.0      99.8       0.0       0.0       0.0
12 S  s               0.0       0.0       0.0       0.0      99.9       0.0

                     24        25        26        27        28        29   
                  -6.42097  -5.71356  -5.71038  -5.70820  -5.70467  -5.70254
                   2.00000   2.00000   2.00000   2.00000   2.00000   2.00000
                  --------  --------  --------  --------  --------  --------
 8 S  pz              0.0      32.7      17.7       0.0       0.0      49.6
 8 S  px              0.0      67.2      11.0       0.0       0.0      21.9
 8 S  py              0.0       0.1      71.3       0.0       0.0      28.6
10 S  pz              0.0       0.0       0.0      51.4      11.4       0.0
10 S  px              0.0       0.0       0.0      32.3       5.0       0.0
10 S  py              0.0       0.0       0.0      16.2      83.7       0.0
11 P  s              99.3       0.0       0.0       0.0       0.0       0.0
13 O  px              0.1       0.0       0.0       0.0       0.0       0.0
13 O  py              0.1       0.0       0.0       0.0       0.0       0.0
16 O  py              0.1       0.0       0.0       0.0       0.0       0.0

                     30        31        32        33        34        35   
                  -5.69664  -5.66049  -5.65481  -5.65249  -5.65196  -5.64682
                   2.00000   2.00000   2.00000   2.00000   2.00000   2.00000
                  --------  --------  --------  --------  --------  --------
 4 S  pz              0.0      57.7       0.0      39.6       2.7       0.0
 4 S  px              0.0      22.1       0.0      49.9      28.0       0.0
 4 S  py              0.0      20.1       0.0      10.6      69.3       0.0
10 S  pz             37.2       0.0       0.0       0.0       0.0       0.0
10 S  px             62.7       0.0       0.0       0.0       0.0       0.0
10 S  py              0.1       0.0       0.0       0.0       0.0       0.0
12 S  pz              0.0       0.0      88.5       0.0       0.0       0.2
12 S  px              0.0       0.0       9.5       0.0       0.0       8.7
12 S  py              0.0       0.0       2.0       0.0       0.0      91.1

                     36        37        38        39        40        41   
                  -5.64617  -4.64365  -4.64355  -4.64291  -4.64278  -4.64196
                   2.00000   2.00000   2.00000   2.00000   2.00000   2.00000
                  --------  --------  --------  --------  --------  --------
 3 P  pz              0.0       0.0       0.1      90.1       0.0       9.7
 3 P  px              0.0       0.0      45.8       4.3       0.0      49.8
 3 P  py              0.0       0.0      53.9       5.5       0.0      40.5
11 P  pz              0.0       6.6       0.0       0.0       0.3       0.0
11 P  px              0.0       0.2       0.0       0.0      99.3       0.0
11 P  py              0.0      93.1       0.0       0.0       0.4       0.0
12 S  pz             11.2       0.0       0.0       0.0       0.0       0.0
12 S  px             81.8       0.0       0.0       0.0       0.0       0.0
12 S  py              6.9       0.0       0.0       0.0       0.0       0.0

                     42        43        44        45        46        47   
                  -4.64124  -0.98732  -0.98321  -0.94689  -0.94144  -0.76136
                   2.00000   2.00000   2.00000   2.00000   2.00000   2.00000
                  --------  --------  --------  --------  --------  --------
 0 C  s               0.0       0.0       0.2       0.0       0.4       0.2
 0 C  pz              0.0       0.0       0.1       0.0       0.1       0.0
 0 C  px              0.0       0.0       0.2       0.0       0.5       0.1
 1 C  s               0.0       0.0       2.5       0.0       5.2       0.7
 1 C  pz              0.0       0.0       0.2       0.0       0.3       0.0
 1 C  px              0.0       0.0       0.3       0.0       0.7       0.0
 1 C  py              0.0       0.0       2.4       0.0       3.8       0.1
 1 C  dx2y2           0.0       0.0       0.1       0.0       0.1       0.0
 1 C  dxy             0.0       0.0       0.1       0.0       0.2       0.0
 2 O  s               0.0       0.0      22.0       0.0      36.4       0.3
 2 O  pz              0.0       0.0       0.6       0.0       0.3       0.3
 2 O  px              0.0       0.0       0.9       0.0       0.8       0.1
 2 O  py              0.0       0.0       0.1       0.0       0.2       0.6
 3 P  s               0.0       0.0      14.1       0.0       0.2       3.1
 3 P  pz              0.0       0.0       4.3       0.0       0.4       0.7
 3 P  px              0.0       0.0       0.4       0.0       3.5       1.7
 3 P  py              0.0       0.0       0.1       0.0       7.0       0.3
 3 P  dz2             0.0       0.0       0.0       0.0       0.2       0.0
 3 P  dxz             0.0       0.0       0.0       0.0       0.9       0.0
 3 P  dyz             0.0       0.0       0.0       0.0       2.1       0.0
 3 P  dxy             0.0       0.0       0.9       0.0       0.0       0.2
 4 S  s               0.0       0.0       0.3       0.0       0.0       0.6
 4 S  pz              0.0       0.0       0.3       0.0       0.0       0.1
 5 O  s               0.0       0.1      34.8       0.0      24.1       0.2
 5 O  pz              0.0       0.0       1.5       0.0       0.9       0.0
 5 O  px              0.0       0.0       0.1       0.0       0.2       0.3
 5 O  py              0.0       0.0       0.1       0.0       0.2       0.2
 6 C  s               0.0       0.0       4.1       0.0       3.9       0.4
 6 C  pz              0.0       0.0       0.6       0.0       0.5       0.0
 6 C  px              0.0       0.0       2.2       0.0       1.7       0.0
 6 C  py              0.0       0.0       1.7       0.0       1.2       0.0
 6 C  dxy             0.0       0.0       0.2       0.0       0.2       0.0
 7 C  s               0.0       0.0       0.3       0.0       0.3       0.1
 7 C  pz              0.0       0.0       0.1       0.0       0.1       0.0
 7 C  py              0.0       0.0       0.4       0.0       0.3       0.0
 8 S  s               0.0       0.0       0.3       0.0       0.0      20.1
 8 S  pz              0.0       0.0       0.0       0.0       0.0       1.0
 8 S  px              0.0       0.0       0.3       0.0       0.0       0.0
 8 S  py              0.0       0.0       0.1       0.0       0.0       2.0
 8 S  dyz             0.0       0.0       0.0       0.0       0.0       0.1
 9 C  s               0.0       0.0       0.0       0.0       0.0      25.5
 9 C  pz              0.0       0.0       0.0       0.0       0.0       2.5
 9 C  py              0.0       0.0       0.0       0.0       0.0       0.1
10 S  s               0.0       0.3       0.0       0.0       0.0      16.1
10 S  pz              0.0       0.2       0.0       0.0       0.0       0.0
10 S  px              0.0       0.2       0.0       0.0       0.0       0.0
10 S  py              0.0       0.0       0.0       0.0       0.0       2.7
11 P  s               0.0      14.1       0.0       0.1       0.0       2.2
11 P  pz             93.1       0.8       0.0       0.5       0.0       0.7
11 P  px              0.4       3.9       0.0       0.3       0.0       1.3
11 P  py              6.4       0.2       0.0      10.1       0.0       0.0
11 P  dz2             0.0       0.5       0.0       0.1       0.0       0.1
11 P  dxz             0.0       0.1       0.0       0.1       0.0       0.1
11 P  dyz             0.0       0.3       0.0       0.3       0.0       0.0
11 P  dx2y2           0.0       0.2       0.0       0.1       0.0       0.0
11 P  dxy             0.0       0.0       0.0       2.7       0.0       0.0
12 S  s               0.0       0.3       0.0       0.0       0.0       0.3
[...]
 1 C  py              0.0       2.0       0.3       0.2
 1 C  dz2             0.0       1.7       0.1       0.1
 1 C  dxz             0.0       0.2       0.1       0.0
 1 C  dyz             0.0       1.0       0.3       0.1
 1 C  dx2y2           0.0       2.8       0.7       0.4
 1 C  dxy             0.0       4.3       0.2       0.2
 2 O  s               0.0       2.6       0.3       0.1
 2 O  pz              0.0       0.5       0.7       0.3
 2 O  px              0.0       0.4       0.0       0.0
 2 O  py              0.0       2.7       1.5       0.8
 2 O  dz2             0.1      12.2       2.5       1.4
 2 O  dxz             0.0       2.1       3.5       1.7
 2 O  dyz             0.0       3.3       3.4       1.3
 2 O  dx2y2           0.1      12.7       0.0       0.1
 2 O  dxy             0.2      24.3       9.9       5.1
 3 P  s               0.0       0.4       0.0       0.0
 3 P  pz              0.0       0.3       0.1       0.0
 3 P  px              0.0       0.1       0.7       0.3
 3 P  py              0.0       0.0       1.4       0.7
 3 P  dz2             0.0       0.1       0.3       0.1
 3 P  dxz             0.0       0.2       0.2       0.1
 3 P  dyz             0.0       0.0       0.7       0.3
 3 P  dx2y2           0.0       0.2       0.1       0.0
 3 P  dxy             0.0       0.2       0.1       0.0
 5 O  s               0.0       0.1       0.1       0.0
 5 O  px              0.0       0.7       1.6       0.7
 5 O  py              0.0       0.7       1.6       0.7
 5 O  dz2             0.0       0.4       0.7       0.3
 5 O  dxz             0.0       7.7      14.5       6.3
 5 O  dyz             0.0       6.1      13.8       6.1
 5 O  dxy             0.0       2.3       2.0       0.9
 6 C  s               0.0       0.4       0.8       0.3
 6 C  pz              0.0       0.1       0.2       0.1
 6 C  px              0.0       0.3       0.5       0.2
 6 C  py              0.0       0.3       0.6       0.2
 6 C  dz2             0.0       0.2       0.5       0.2
 6 C  dxz             0.0       0.5       0.8       0.4
 6 C  dyz             0.0       0.4       0.5       0.2
 6 C  dxy             0.0       1.4       2.2       1.0
11 P  s               0.6       0.0       0.0       0.0
11 P  pz              0.0       0.0       0.1       0.1
11 P  px              0.3       0.0       0.0       0.0
11 P  py              0.1       0.0       0.9       2.1
11 P  dz2             0.5       0.0       0.0       0.0
11 P  dxz             0.0       0.0       0.1       0.2
11 P  dx2y2           0.2       0.0       0.0       0.0
11 P  dxy             0.0       0.0       0.5       1.1
13 O  s               0.2       0.0       0.1       0.1
13 O  pz              0.1       0.0       0.1       0.3
13 O  px              0.1       0.0       0.2       0.4
13 O  py              0.9       0.0       1.5       3.0
13 O  dz2             0.0       0.0       0.3       0.6
13 O  dyz             7.5       0.1       6.4      12.5
13 O  dx2y2           5.4       0.1       4.5       8.8
13 O  dxy             1.5       0.0       5.5      11.4
14 C  s               0.3       0.0       0.4       0.7
14 C  pz              0.2       0.0       0.2       0.3
14 C  py              0.5       0.0       0.5       1.0
14 C  dyz             1.1       0.0       0.9       1.8
14 C  dx2y2           1.4       0.0       1.4       2.7
15 C  dxy             0.1       0.0       0.1       0.2
16 O  s               1.6       0.0       0.1       0.3
16 O  pz              0.4       0.0       0.0       0.0
16 O  px              1.4       0.0       0.2       0.5
16 O  py              2.7       0.0       0.5       1.4
16 O  dz2             0.0       0.0       0.3       0.6
16 O  dxz            14.1       0.0       1.3       3.6
16 O  dyz            33.0       0.1       4.1      11.0
16 O  dx2y2           2.1       0.0       0.5       0.9
16 O  dxy             7.6       0.0       0.3       0.6
17 C  s               1.6       0.0       0.1       0.2
17 C  pz              0.9       0.0       0.0       0.1
17 C  px              0.7       0.0       0.0       0.1
17 C  py              1.3       0.0       0.1       0.2
17 C  dz2             0.1       0.0       0.1       0.1
17 C  dxz             1.5       0.0       0.0       0.1
17 C  dyz             4.4       0.0       0.1       0.4
17 C  dx2y2           0.7       0.0       0.0       0.1
17 C  dxy             3.3       0.0       0.1       0.4
18 C  dxz             0.1       0.0       0.0       0.0
18 C  dx2y2           0.1       0.0       0.0       0.0


                      *****************************
                      * MAYER POPULATION ANALYSIS *
                      *****************************

  NA   - Mulliken gross atomic population
  ZA   - Total nuclear charge
  QA   - Mulliken gross atomic charge
  VA   - Mayer's total valence
  BVA  - Mayer's bonded valence
  FA   - Mayer's free valence

  ATOM       NA         ZA         QA         VA         BVA        FA
  0 C      6.3110     6.0000    -0.3110     3.9974     3.9974    -0.0000
  1 C      5.9948     6.0000     0.0052     3.9997     3.9997     0.0000
  2 O      8.3431     8.0000    -0.3431     2.2105     2.2105     0.0000
  3 P     14.3792    15.0000     0.6208     4.9551     4.9551    -0.0000
  4 S     16.3426    16.0000    -0.3426     2.0486     2.0486    -0.0000
  5 O      8.3684     8.0000    -0.3684     2.1877     2.1877    -0.0000
  6 C      6.0051     6.0000    -0.0051     4.0048     4.0048     0.0000
  7 C      6.3145     6.0000    -0.3145     3.9894     3.9894    -0.0000
  8 S     16.0827    16.0000    -0.0827     2.2873     2.2873     0.0000
  9 C      6.3479     6.0000    -0.3479     3.8541     3.8541     0.0000
 10 S     16.0998    16.0000    -0.0998     2.2386     2.2386    -0.0000
 11 P     14.3763    15.0000     0.6237     4.9576     4.9576    -0.0000
 12 S     16.3135    16.0000    -0.3135     2.0834     2.0834    -0.0000
 13 O      8.3759     8.0000    -0.3759     2.1636     2.1636    -0.0000
 14 C      6.0097     6.0000    -0.0097     3.9699     3.9699     0.0000
 15 C      6.2851     6.0000    -0.2851     4.0049     4.0049     0.0000
 16 O      8.3755     8.0000    -0.3755     2.1756     2.1756     0.0000
 17 C      6.0054     6.0000    -0.0054     3.9952     3.9952     0.0000
 18 C      6.3082     6.0000    -0.3082     3.9902     3.9902    -0.0000
 19 H      0.8812     1.0000     0.1188     0.9596     0.9596     0.0000
 20 H      0.8905     1.0000     0.1095     0.9540     0.9540     0.0000
 21 H      0.8808     1.0000     0.1192     0.9797     0.9797     0.0000
 22 H      0.8972     1.0000     0.1028     0.9635     0.9635     0.0000
 23 H      0.8921     1.0000     0.1079     0.9788     0.9788     0.0000
 24 H      0.8934     1.0000     0.1066     0.9490     0.9490    -0.0000
 25 H      0.8888     1.0000     0.1112     0.9810     0.9810     0.0000
 26 H      0.8870     1.0000     0.1130     0.9549     0.9549     0.0000
 27 H      0.8749     1.0000     0.1251     0.9832     0.9832    -0.0000
 28 H      0.8810     1.0000     0.1190     0.9609     0.9609     0.0000
 29 H      0.8093     1.0000     0.1907     0.9715     0.9715    -0.0000
 30 H      0.8131     1.0000     0.1869     0.9410     0.9410     0.0000
 31 H      0.8991     1.0000     0.1009     0.9486     0.9486     0.0000
 32 H      0.8966     1.0000     0.1034     1.0023     1.0023     0.0000
 33 H      0.8891     1.0000     0.1109     0.9545     0.9545     0.0000
 34 H      0.8804     1.0000     0.1196     0.9614     0.9614     0.0000
 35 H      0.8821     1.0000     0.1179     0.9581     0.9581     0.0000
 36 H      0.8830     1.0000     0.1170     0.9831     0.9831    -0.0000
 37 H      0.8967     1.0000     0.1033     0.9491     0.9491    -0.0000
 38 H      0.8827     1.0000     0.1173     0.9595     0.9595    -0.0000
 39 H      0.8750     1.0000     0.1250     0.9884     0.9884     0.0000
 40 H      0.8874     1.0000     0.1126     0.9538     0.9538     0.0000

  Mayer bond orders larger than 0.100000
B(  0-C ,  1-C ) :   1.1635 B(  0-C , 19-H ) :   0.9456 B(  0-C , 20-H ) :   0.9396 
B(  0-C , 21-H ) :   0.9366 B(  1-C ,  2-O ) :   0.9071 B(  1-C , 22-H ) :   0.9293 
B(  1-C , 23-H ) :   0.9201 B(  2-O ,  3-P ) :   1.1498 B(  3-P ,  4-S ) :   1.5820 
B(  3-P ,  5-O ) :   1.1129 B(  3-P ,  8-S ) :   0.9500 B(  4-S ,  8-S ) :   0.1090 
B(  5-O ,  6-C ) :   0.9077 B(  6-C ,  7-C ) :   1.1667 B(  6-C , 24-H ) :   0.9337 
B(  6-C , 25-H ) :   0.9157 B(  7-C , 26-H ) :   0.9379 B(  7-C , 27-H ) :   0.9352 
B(  7-C , 28-H ) :   0.9447 B(  8-S ,  9-C ) :   1.0109 B(  9-C , 10-S ) :   1.0034 
B(  9-C , 29-H ) :   0.8796 B(  9-C , 30-H ) :   0.9031 B( 10-S , 11-P ) :   0.9529 
B( 10-S , 12-S ) :   0.1062 B( 11-P , 12-S ) :   1.6322 B( 11-P , 13-O ) :   1.0992 
B( 11-P , 16-O ) :   1.1157 B( 13-O , 14-C ) :   0.9099 B( 14-C , 15-C ) :   1.1617 
B( 14-C , 31-H ) :   0.9308 B( 14-C , 32-H ) :   0.9029 B( 15-C , 33-H ) :   0.9417 
B( 15-C , 34-H ) :   0.9514 B( 15-C , 35-H ) :   0.9505 B( 16-O , 17-C ) :   0.8976 
B( 17-C , 18-C ) :   1.1657 B( 17-C , 36-H ) :   0.9150 B( 17-C , 37-H ) :   0.9341 
B( 18-C , 38-H ) :   0.9459 B( 18-C , 39-H ) :   0.9329 B( 18-C , 40-H ) :   0.9384 


-------
TIMINGS
-------

Total SCF time: 0 days 0 hours 0 min 16 sec 

Total time                  ....      16.299 sec
Sum of individual times     ....      15.795 sec  ( 96.9%)

SCF preparation             ....       0.216 sec  (  1.3%)
Fock matrix formation       ....      14.421 sec  ( 88.5%)
  Startup                   ....       0.061 sec  (  0.4% of F)
  Split-RI-J                ....       8.596 sec  ( 59.6% of F)
  XC integration            ....       5.235 sec  ( 36.3% of F)
    Basis function eval.    ....       1.977 sec  ( 37.8% of XC)
    Density eval.           ....       0.989 sec  ( 18.9% of XC)
    XC-Functional eval.     ....       0.395 sec  (  7.5% of XC)
    XC-Potential eval.      ....       1.151 sec  ( 22.0% of XC)
Diagonalization             ....       0.000 sec  (  0.0%)
Density matrix formation    ....       0.238 sec  (  1.5%)
Total Energy calculation    ....       0.042 sec  (  0.3%)
Population analysis         ....       0.210 sec  (  1.3%)
Orbital Transformation      ....       0.088 sec  (  0.5%)
Orbital Orthonormalization  ....       0.000 sec  (  0.0%)
DIIS solution               ....       0.450 sec  (  2.8%)
  MO trafo                  ....       0.000 sec  (  0.0 % of DIIS)
  Orb grad                  ....       0.000 sec  (  0.0 % of DIIS)
  Energy W gradient         ....       0.000 sec  (  0.0 % of DIIS)
  DIIS error                ....       0.021 sec  (  4.7 % of DIIS)
  DIIS work                 ....       0.375 sec  ( 83.4 % of DIIS)
  Form Q                    ....       0.000 sec  (  0.0 % of DIIS)
  Form QpQm                 ....       0.000 sec  (  0.0 % of DIIS)
  Exp/Cayley                ....       0.000 sec  (  0.0 % of DIIS)
  Orb update                ....       0.000 sec  (  0.0 % of DIIS)
  Wake-sleep                ....       0.014 sec  (  3.2 % of DIIS)
SOSCF solution              ....       0.130 sec  (  0.8%)
  MO trafo                  ....       0.066 sec  ( 50.5 % of SOSCF)
  Orb grad                  ....       0.002 sec  (  1.3 % of SOSCF)
  Rot update                ....       0.027 sec  ( 20.5 % of SOSCF)
  Step                      ....       0.036 sec  ( 27.6 % of SOSCF)
Finished LeanSCF after  16.4 sec

Maximum memory used throughout the entire LEANSCF-calculation: 34.3 MB


-------------------------------------------------------------------------------
                          DFT DISPERSION CORRECTION                            
                                                                               
                                DFTD4 V3.4.0                                   
-------------------------------------------------------------------------------
The PBE functional is recognized
Active option DFTDOPT                   ...         5   

-------------------------   ----------------
Dispersion correction           -0.065883341
-------------------------   ----------------

------------------   -----------------
gCP correction             0.183709741
------------------   -----------------

-------------------------   --------------------
FINAL SINGLE POINT ENERGY     -2929.521090861530
-------------------------   --------------------


------------------------------------------------------------------------------
                              ORCA PROPERTY CALCULATIONS
------------------------------------------------------------------------------

GBWName                                 ... sp.gbw
Number of atoms                         ...     41
Number of basis functions               ...    334
Max core memory                         ...   1024 MB

Electric properties:
Dipole moment                           ... YES
Quadrupole moment                       ...  NO
Static polarizability (Dipole/Dipole)   ...  NO
Static polarizability (Dipole/Quad.)    ...  NO
Static polarizability (Quad./Quad.)     ...  NO
Static polarizability (Velocity)        ...  NO

Atomic electric properties:
Dipole moment                           ...  NO
Quadrupole moment                       ...  NO
Static polarizability                   ...  NO

Choice of electric origin               ... Center of mass
Position of electric origin             ...    -0.000001     0.000001    -0.000002

General magnetic properties:
Magnetizability                         ...  NO

EPR properties:
g-Tensor (aka g-matrix)                 ...  NO
Zero-Field splitting spin-orbit         ...  NO
Zero-field splitting spin-spin          ...  NO
Hyperfine couplings                     ...  NO (   0 nuclei)
Quadrupole couplings                    ...  NO (   0 nuclei)
Contact density                         ...  NO (   0 nuclei)

NMR properties:
Chemical shifts                         ...  NO (   0 nuclei)
Spin-rotation constants                 ...  NO (   0 nuclei)
Spin-spin couplings                     ...  NO (   0 nuclei,    0 pairs)

Choice of magnetic origin               ... GIAO
Position of magnetic origin             ...     0.000000     0.000000     0.000000

Properties with geometric perturbations:
SCF Hessian                             ...  NO
IR spectrum                             ...  NO
VCD spectrum                            ...  NO
X-ray spectroscopy properties:
SCF XES/XAS/RIXS spectra                ...  NO


-------------
DIPOLE MOMENT
-------------

Method             : SCF
Type of density    : Electron Density
Multiplicity       :   1
Irrep              :   0
Energy             : -2929.6389172611816321 Eh
Relativity type    : 
Basis              : AO
                                X                 Y                 Z
Electronic contribution:      5.218914194      -1.104177769       8.426883042
Nuclear contribution   :     -5.754949236       0.833418307      -8.658315792
                        -----------------------------------------
Total Dipole Moment    :     -0.536035043      -0.270759461      -0.231432750
                        -----------------------------------------
Magnitude (a.u.)       :      0.643587889
Magnitude (Debye)      :      1.635870408



--------------------
Rotational spectrum 
--------------------
 
Rotational constants in cm-1:             0.013227             0.004938             0.004447 
Rotational constants in MHz :           396.529522           148.030234           133.329261 

Dipole components along the rotational axes: 
x,y,z [a.u.] :    -0.468762    -0.354412     0.262413 
x,y,z [Debye]:    -1.191497    -0.900843     0.667000 

 

Dipole moment calculation done in   0.0 sec 

Maximum memory used throughout the entire PROP-calculation: 23.5 MB

--------------------------------
SUGGESTED CITATIONS FOR THIS RUN
--------------------------------

Below you find a list of papers that are relevant to this ORCA run
We neither can nor want to force you to cite these papers, but we appreciate if you do
You receive ORCA, which is the product of decades of hard work by many enthusiastic individuals, for free
The only thing we kindly ask in return is that you cite our papers,
We deeply appreciate it, if you show your appreciation for ORCA by not just citing the generic ORCA reference.

Please note that relegating all ORCA citations to the supporting information does *not* help us.
SI sections are not indexed - citations you put there will not count into any citation statistics
But we need these citations in order to attract the funding resources that allow us to do what we are doing

Therefore, if you are a happy ORCA user, please consider citing a few of the papers listed below in the main body of your paper

In addition to the list printed below, the program has created the file sp.bibtex that contains the list in bibtex format
You can import this file easily into all common literature databanks and citation aid programs


List of essential papers. We consider these as the minimum necessary citations

  1. Neese,F.
     Software update: the ORCA program system, version 5.0
     WIRES Comput. Molec. Sci., 2022 12(1)e1606
     doi.org/10.1002/wcms.1606

List of papers to cite with high priority. The work reported in these papers was absolutely
necessary for this run to complete.
Our perspective: the developers of density functionals and basis sets usually get cited in chemistry papers
Good! But without the algorithms to do something with them, the functionals or basis sets would not do anything.
Hence, in our opinion, the algorithm design and method developments papers are equally worthy of getting cited

  1. Neese,F.
     An improvement of the resolution of the identity approximation for the formation of the Coulomb matrix
     J. Comp. Chem., 2003 24(14)1740-1747
     doi.org/10.1002/jcc.10318
  2. Neese,F.
     The SHARK Integral Generation and Digestion System
     J. Comp. Chem., 2022  1-16
     doi.org/10.1002/jcc.26942
  3. Caldeweyher,E.; Bannwarth,C.; Grimme,S.
     Extension of the D3 dispersion coefficient model
     J. Chem. Phys., 2017 147 034112-XXXX
     doi.org/10.1063/1.4993215
  4. Caldeweyher,E.; Ehlert,S.; Hansen,A.; Neugebauer,H.; Spicher,S.; Bannwarth,C.; Grimme,S.
     A generally applicable atomic-charge dependent London dispersion correction
     J. Chem. Phys., 2019 150 154122-XXXX
     doi.org/10.1063/1.5090222
  5. Caldeweyher,E.; Mewes,J.; Ehlert,S.; Grimme,S.
     Extension and evaluation of the D4 London-dispersion model for periodic systems
     Phys. Chem. Chem. Phys., 2020 22(16)8499-8512
     doi.org/10.1039/D0CP00502A

List of suggested additional citations. These are papers that are important in the 'surrounding' of 
of this run, or papers that preceded the highly important papers. If you like your results we are grateful for a citation.

  1. Neese,F.
     The ORCA program system
     WIRES Comput. Molec. Sci., 2012 2(1)73-78
     doi.org/10.1002/wcms.81
  2. Neese,F.
     Software update: the ORCA program system, version 4.0
     WIRES Comput. Molec. Sci., 2018 8(1)1-6
     doi.org/10.1002/wcms.1327
  3. Neese,F.; Wennmohs,F.; Becker,U.; Riplinger,C.
     The ORCA quantum chemistry program package
     J. Chem. Phys., 2020 152 Art. No. L224108
     doi.org/10.1063/5.0004608

List of optional additional citations

  1. Neese,F.
     Approximate second-order SCF convergence for spin unrestricted wavefunctions
     Chem. Phys. Lett., 2000 325(1-3)93-98
     doi.org/10.1016/s0009-2614(00)00662-x

Timings for individual modules:

Sum of individual times          ...       20.060 sec (=   0.334 min)
Startup calculation              ...        1.644 sec (=   0.027 min)   8.2 %
SCF iterations                   ...       18.282 sec (=   0.305 min)  91.1 %
Property calculations            ...        0.134 sec (=   0.002 min)   0.7 %
                             ****ORCA TERMINATED NORMALLY****
TOTAL RUN TIME: 0 days 0 hours 0 minutes 20 seconds 888 msec
