      -----------------------------------------------------------      
     |                   =====================                   |     
     |                           x T B                           |     
     |                   =====================                   |     
     |                         S. Grimme                         |     
     |          Mulliken Center for Theoretical Chemistry        |     
     |                    University of Bonn                     |     
      -----------------------------------------------------------      

   * xtb version 6.7.1 (edcfbbe) compiled by 'albert@albert-system' on 2024-07-22

   xtb is free software: you can redistribute it and/or modify it under
   the terms of the GNU Lesser General Public License as published by
   the Free Software Foundation, either version 3 of the License, or
   (at your option) any later version.
   
   xtb is distributed in the hope that it will be useful,
   but WITHOUT ANY WARRANTY; without even the implied warranty of
   MERCHANTABILITY or FITNESS FOR A PARTICULAR PURPOSE.  See the
   GNU Lesser General Public License for more details.
   
   Cite this work as:
   * C. Bannwarth, E. Caldeweyher, S. Ehlert, A. Hansen, P. Pracht,
     J. Seibert, S. Spicher, S. Grimme, WIREs Comput. Mol. Sci., 2020, 11,
     e01493. DOI: 10.1002/wcms.1493
   
   for GFN2-xTB:
   * C. Bannwarth, S. Ehlert and S. Grimme., J. Chem. Theory Comput., 2019,
     15, 1652-1671. DOI: 10.1021/acs.jctc.8b01176
   for GFN1-xTB:
   * S. Grimme, C. Bannwarth, P. Shushkov, J. Chem. Theory Comput., 2017,
     13, 1989-2009. DOI: 10.1021/acs.jctc.7b00118
   for GFN0-xTB:
   * P. Pracht, E. Caldeweyher, S. Ehlert, S. Grimme, ChemRxiv, 2019, preprint.
     DOI: 10.26434/chemrxiv.8326202.v1
   for GFN-FF:
   * S. Spicher and S. Grimme, Angew. Chem. Int. Ed., 2020, 59, 15665-15673.
     DOI: 10.1002/anie.202004239
   
   for ALPB and GBSA implicit solvation:
   * S. Ehlert, M. Stahn, S. Spicher, S. Grimme, J. Chem. Theory Comput.,
     2021, 17, 4250-4261. DOI: 10.1021/acs.jctc.1c00471
   
   for ddCOSMO and CPCM-X implicit solvation:
   * M. Stahn, S. Ehlert, S. Grimme, J. Phys. Chem. A,
     2023, XX, XXXX-XXXX. DOI: 10.1021/acs.jpca.3c04382
   
   for DFT-D4:
   * E. Caldeweyher, C. Bannwarth and S. Grimme, J. Chem. Phys., 2017,
     147, 034112. DOI: 10.1063/1.4993215
   * E. Caldeweyher, S. Ehlert, A. Hansen, H. Neugebauer, S. Spicher,
     C. Bannwarth and S. Grimme, J. Chem. Phys., 2019, 150, 154122.
     DOI: 10.1063/1.5090222
   * E. Caldeweyher, J.-M. Mewes, S. Ehlert and S. Grimme, Phys. Chem. Chem. Phys.
     2020, 22, 8499-8512. DOI: 10.1039/D0CP00502A
   
   for sTDA-xTB:
   * S. Grimme and C. Bannwarth, J. Chem. Phys., 2016, 145, 054103.
     DOI: 10.1063/1.4959605
   
   in the mass-spec context:
   * V. Asgeirsson, C. Bauer and S. Grimme, Chem. Sci., 2017, 8, 4879.
     DOI: 10.1039/c7sc00601b
   * J. Koopman and S. Grimme, ACS Omega 2019, 4, 12, 15120-15133.
     DOI: 10.1021/acsomega.9b02011
   
   for metadynamics refer to:
   * S. Grimme, J. Chem. Theory Comput., 2019, 155, 2847-2862
     DOI: 10.1021/acs.jctc.9b00143
   
   for SPH calculations refer to:
   * S. Spicher and S. Grimme, J. Chem. Theory Comput., 2021, 17, 1701-1714
     DOI: 10.1021/acs.jctc.0c01306
   
   for ONIOM refer to:
   * C. Plett, A. Katbashev, S. Ehlert, S. Grimme, M. Bursch,
     Phys. Chem. Chem. Phys., 2023, 25, 17860-17868. DOI: 10.1039/D3CP02178E
   
   for DIPRO refer to:
   * J. Kohn, N. Gildemeister, S. Grimme, D. Fazzi, A. Hansen,
     J. Chem. Phys., 2023, just accepted.
   
   for PTB refer to:
   * S. Grimme, M. Mueller, A. Hansen, J. Chem. Phys., 2023, 158, 124111.
     DOI: 10.1063/5.0137838
   
   with help from (in alphabetical order)
   P. Atkinson, C. Bannwarth, F. Bohle, G. Brandenburg, E. Caldeweyher
   M. Checinski, S. Dohm, S. Ehlert, S. Ehrlich, I. Gerasimov, C. Hölzer
   A. Katbashev, J. Kohn, J. Koopman, C. Lavigne, S. Lehtola, F. März, M. Müller,
   F. Musil, H. Neugebauer, J. Pisarek, C. Plett, P. Pracht, F. Pultar,
   J. Seibert, P. Shushkov, S. Spicher, M. Stahn, M. Steiner, T. Strunk,
   J. Stückrath, T. Rose, and J. Unsleber
   
 * started run on 2025/04/03 at 20:24:25.723     
   ID    Z sym.   atoms
    1    6 C      1-3, 5, 6
    2    8 O      4
    3    1 H      7-16

           -------------------------------------------------
          |                Calculation Setup                |
           -------------------------------------------------

          program call               : /srv/scratch/z5358697/.xtb/bin/xtb xtb_opt.coord --opt normal --orca -I xtb_opt-xcontrol-inp
          hostname                   : k158
          coordinate file            : xtb_opt.coord
          omp threads                :                     3

           -------------------------------------------------
          |                   Orca driver                   |
           -------------------------------------------------
orca executable           : /apps/z_install_tree/linux-rocky8-ivybridge/gcc-12.2.0/orca-6.0.0-srtngmq3qlimg2qxbl6avaaiffipurdx/bin/orca
orca input file           : xtb_opt.inp
orca input line           : 
orca parallel             : true
orca number of threads    : 3
                         * ORCA takes the control...
  ------------------------------------------------------------------------

                                 *****************
                                 * O   R   C   A *
                                 *****************

                                            #,                                       
                                            ###                                      
                                            ####                                     
                                            #####                                    
                                            ######                                   
                                           ########,                                 
                                     ,,################,,,,,                         
                               ,,#################################,,                 
                          ,,##########################################,,             
                       ,#########################################, ''#####,          
                    ,#############################################,,   '####,        
                  ,##################################################,,,,####,       
                ,###########''''           ''''###############################       
              ,#####''   ,,,,##########,,,,          '''####'''          '####       
            ,##' ,,,,###########################,,,                        '##       
           ' ,,###''''                  '''############,,,                           
         ,,##''                                '''############,,,,        ,,,,,,###''
      ,#''                                            '''#######################'''  
     '                                                          ''''####''''         
             ,#######,   #######,   ,#######,      ##                                
            ,#'     '#,  ##    ##  ,#'     '#,    #''#        ,####,   ,####,        
            ##       ##  ##   ,#'  ##            #'  '#       #'       #'  '#        
            ##       ##  #######   ##           ,######,      #####,   #    #        
            '#,     ,#'  ##    ##  '#,     ,#' ,#      #,     #,   #   #,  ,#        
             '#######'   ##     ##  '#######'  #'      '#     '####' # '####'        



                #########################################################
                #                        -***-                          #
                #          Department of theory and spectroscopy        #
                #                                                       #
                #                      Frank Neese                      #
                #                                                       #
                #     Directorship, Architecture, Infrastructure        #
                #                    SHARK, DRIVERS                     #
                #        Core code/Algorithms in most modules           #
                #                                                       #
                #        Max Planck Institute fuer Kohlenforschung      #
                #                Kaiser Wilhelm Platz 1                 #
                #                 D-45470 Muelheim/Ruhr                 #
                #                      Germany                          #
                #                                                       #
                #                  All rights reserved                  #
                #                        -***-                          #
                #########################################################


                         Program Version 6.0.0  -   RELEASE  -


 With contributions from (in alphabetic order):
   Daniel Aravena         : Magnetic Suceptibility
   Michael Atanasov       : Ab Initio Ligand Field Theory (pilot matlab implementation)
   Alexander A. Auer      : GIAO ZORA, VPT2 properties, NMR spectrum
   Ute Becker             : All parallelization in ORCA, NUMFREQ, NUMCALC
   Giovanni Bistoni       : ED, misc. LED, open-shell LED, HFLD
   Martin Brehm           : Molecular dynamics
   Dmytro Bykov           : pre 5.0 version of the SCF Hessian
   Marcos Casanova-Páez   : Triplet and SCS-CIS(D). UHF-(DLPNO)-IP/EA/STEOM-CCSD. UHF-CVS-IP/STEOM-CCSD
   Vijay G. Chilkuri      : MRCI spin determinant printing, contributions to CSF-ICE
   Pauline Colinet        : FMM embedding
   Dipayan Datta          : RHF DLPNO-CCSD density
   Achintya Kumar Dutta   : EOM-CC, STEOM-CC
   Nicolas Foglia         : Exact transition moments, OPA infrastructure, MCD improvements
   Dmitry Ganyushin       : Spin-Orbit,Spin-Spin,Magnetic field MRCI
   Miquel Garcia          : C-PCM and meta-GGA Hessian, CCSD/C-PCM, Gaussian charge scheme
   Tiago L. C. Gouveia    : GS-ROHF, GS-ROCIS
   Yang Guo               : DLPNO-NEVPT2, F12-NEVPT2, CIM, IAO-localization
   Andreas Hansen         : Spin unrestricted coupled pair/coupled cluster methods
   Ingolf Harden          : AUTO-CI MPn and infrastructure 
   Benjamin Helmich-Paris : MC-RPA, TRAH-(SCF,CASSCF), AVAS, COSX integrals, SCF dyn. polar.
   Lee Huntington         : MR-EOM, pCC
   Robert Izsak           : Overlap fitted RIJCOSX, COSX-SCS-MP3, EOM
   Riya Kayal             : Wick's Theorem for AUTO-CI, AUTO-CI UHF-CCSDT
   Emily Kempfer          : AUTO-CI, RHF CISDT and CCSDT
   Christian Kollmar      : KDIIS, OOCD, Brueckner-CCSD(T), CCSD density, CASPT2, CASPT2-K, improved NEVPT2
   Axel Koslowski         : Symmetry handling
   Simone Kossmann        : Meta GGA functionals, TD-DFT gradient, OOMP2, (MP2 Hessian; deprecated post 5.0)
   Lucas Lang             : DCDCAS
   Marvin Lechner         : AUTO-CI (C++ implementation), FIC-MRCC
   Spencer Leger          : CASSCF response
   Dagmar Lenk            : GEPOL surface, SMD, ORCA-2-JSON
   Dimitrios Liakos       : Extrapolation schemes; Compound Job, initial MDCI parallelization
   Dimitrios Manganas     : Further ROCIS development; embedding schemes. LFT, Crystal Embedding
   Dimitrios Pantazis     : SARC Basis sets
   Anastasios Papadopoulos: AUTO-CI, single reference methods and gradients
   Taras Petrenko         : pre 6.0 DFT Hessian and TD-DFT gradient, (ASA, deprecated), ECA, 1-Electron XAS/XES, NRVS
   Peter Pinski           : DLPNO-MP2, DLPNO-MP2 Gradient
   Christoph Reimann      : Effective Core Potentials
   Marius Retegan         : Local ZFS, SOC
   Christoph Riplinger    : Optimizer, TS searches, QM/MM, DLPNO-CCSD(T), (RO)-DLPNO pert. Triples
   Michael Roemelt        : Original ROCIS implementation
   Masaaki Saitow         : Open-shell DLPNO-CCSD energy and density
   Barbara Sandhoefer     : DKH picture change effects
   Kantharuban Sivalingam : CASSCF convergence/infrastructure, NEVPT2 and variants, FIC-MRCI
   Bernardo de Souza      : ESD, SOC TD-DFT
   Georgi Stoychev        : AutoAux, RI-MP2 NMR, DLPNO-MP2 response, X2C
   Van Anh Tran           : RI-MP2 g-tensors
   Willem Van den Heuvel  : Paramagnetic NMR
   Zikuan Wang            : NOTCH, Electric field optimization 
   Frank Wennmohs         : Technical directorship and infrastructure
   Hang Xu                : AUTO-CI-Response properties 


 We gratefully acknowledge several colleagues who have allowed us to
 interface, adapt or use parts of their codes:
   Stefan Grimme, W. Hujo, H. Kruse, P. Pracht,  : VdW corrections, initial TS optimization,
                  C. Bannwarth, S. Ehlert,         DFT functionals, gCP, sTDA/sTD-DF
                  L. Wittmann, M. Mueller
   Ed Valeev, F. Pavosevic, A. Kumar             : LibInt (2-el integral package), F12 methods
   Garnet Chan, S. Sharma, J. Yang, R. Olivares  : DMRG
   Ulf Ekstrom                                   : XCFun DFT Library
   Mihaly Kallay                                 : mrcc  (arbitrary order and MRCC methods)
   Frank Weinhold                                : gennbo (NPA and NBO analysis)
   Simon Mueller                                 : openCOSMO-RS
   Christopher J. Cramer and Donald G. Truhlar   : smd solvation model
   Lars Goerigk                                  : TD-DFT with DH, B97 family of functionals
   V. Asgeirsson, H. Jonsson                     : NEB implementation
   FAccTs GmbH                                   : IRC, NEB, NEB-TS, DLPNO-Multilevel, CI-OPT
                                                   MM, QMMM, 2- and 3-layer-ONIOM, Crystal-QMMM,
                                                   LR-CPCM, SF, NACMEs, symmetry and pop. for TD-DFT,
                                                   nearIR, NL-DFT gradient (VV10), updates on ESD,
                                                   ML-optimized integration grids, MBIS, APM,
                                                   GOAT, DOCKER, SOLVATOR, interface openCOSMO-RS
   S Lehtola, MJT Oliveira, MAL Marques          : LibXC Library
   Liviu Ungur et al                             : ANISO software


 Your calculation uses the libint2 library for the computation of 2-el integrals
 For citations please refer to: http://libint.valeyev.net

 Your ORCA version has been built with support for libXC version: 6.2.2
 For citations please refer to: https://libxc.gitlab.io

 This ORCA versions uses:
   CBLAS   interface :  Fast vector & matrix operations
   LAPACKE interface :  Fast linear algebra routines
   SCALAPACK package :  Parallel linear algebra routines
   Shared memory     :  Shared parallel matrices
   BLAS/LAPACK       :  OpenBLAS 0.3.27  USE64BITINT DYNAMIC_ARCH NO_AFFINITY SkylakeX SINGLE_THREADED
        Core in use  :  SkylakeX
   Copyright (c) 2011-2014, The OpenBLAS Project




***************************************
The coordinates will be read from file: xtb_opt.xyz
***************************************


Your calculation utilizes the geometrical counterpoise correction gCP
Please cite in your paper:
H.Kruse, S. Grimme J.Chem.Phys., 136, (2012), 154101 
   

Your calculation utilizes the atom-pairwise dispersion correction
based on EEQ partial charges (D4)


Your calculation utilizes the SMD solvation module
Please cite in your paper:
A.V. Marenich, C.J. Cramer, D.G. Truhlar J. Phys. Chem. B, 113, (2009), 6378 

================================================================================

----- Orbital basis set information -----
Your calculation utilizes the basis: def2-mTZVPP
   Stefan Grimme, Andreas Hansen, Sebastian Ehlert, and Jan-Michael Mewes 
   J. Chem. Phys. 154, 064103 (2021). DOI: 10.1063/5.0040021

----- AuxJ basis set information -----
Your calculation utilizes the auxiliary basis: def2/J
   F. Weigend, Phys. Chem. Chem. Phys. 8, 1057 (2006).

================================================================================
                                        WARNINGS
                       Please study these warnings very carefully!
================================================================================

Using LibXC functional ID 497 : Re-regularized SCAN exchange by Furness et al
[ 1]  J. W. Furness, A. D. Kaplan, J. Ning, J. P. Perdew, and J. Sun.,  J. Phys. Chem. Lett. 11, 8208-8215 (2020)
[ 2]  J. W. Furness, A. D. Kaplan, J. Ning, J. P. Perdew, and J. Sun.,  J. Phys. Chem. Lett. 11, 9248-9248 (2020)
Using LibXC functional ID 498 : Re-regularized SCAN correlation by Furness et al
[ 1]  J. W. Furness, A. D. Kaplan, J. Ning, J. P. Perdew, and J. Sun.,  J. Phys. Chem. Lett. 11, 8208-8215 (2020)
[ 2]  J. W. Furness, A. D. Kaplan, J. Ning, J. P. Perdew, and J. Sun.,  J. Phys. Chem. Lett. 11, 9248-9248 (2020)
Using LibXC functional ID 497 : Re-regularized SCAN exchange by Furness et al
[ 1]  J. W. Furness, A. D. Kaplan, J. Ning, J. P. Perdew, and J. Sun.,  J. Phys. Chem. Lett. 11, 8208-8215 (2020)
[ 2]  J. W. Furness, A. D. Kaplan, J. Ning, J. P. Perdew, and J. Sun.,  J. Phys. Chem. Lett. 11, 9248-9248 (2020)
Using LibXC functional ID 498 : Re-regularized SCAN correlation by Furness et al
[ 1]  J. W. Furness, A. D. Kaplan, J. Ning, J. P. Perdew, and J. Sun.,  J. Phys. Chem. Lett. 11, 8208-8215 (2020)
[ 2]  J. W. Furness, A. D. Kaplan, J. Ning, J. P. Perdew, and J. Sun.,  J. Phys. Chem. Lett. 11, 9248-9248 (2020)

================================================================================
                                       INPUT FILE
================================================================================
NAME = xtb_opt.inp
|  1> ! r2scan-3c def2/J RI DEFGRID2 scfconv7 ENGRAD tightSCF miniprint
|  2> %cpcm
|  3>     smd true
|  4>     smdsolvent "water"
|  5> end
|  6> * xyzfile 0 1 xtb_opt.xyz
|  7> 
|  8>                          ****END OF INPUT****
================================================================================

                     *******************************
                     * Energy+Gradient Calculation *
                     *******************************

---------------------------------
CARTESIAN COORDINATES (ANGSTROEM)
---------------------------------
  C     -1.480296   -0.001736   -0.243877
  C     -0.732312   -1.244648    0.235916
  C      0.723307   -1.171282   -0.224831
  O      1.367317    0.001596    0.239603
  C      0.720383    1.172922   -0.224837
  C     -0.735375    1.242951    0.235946
  H     -2.501928   -0.002870    0.137535
  H     -1.523232   -0.001818   -1.335742
  H     -0.755199   -1.286909    1.326285
  H     -1.189796   -2.151499   -0.158860
  H      1.309116   -2.000386    0.175685
  H      0.767227   -1.198256   -1.324896
  H      1.304228    2.003533    0.175652
  H      0.764372    1.200499   -1.324810
  H     -0.758361    1.285081    1.326328
  H     -1.195020    2.148669   -0.158877

----------------------------
CARTESIAN COORDINATES (A.U.)
----------------------------
  NO LB      ZA    FRAG     MASS         X           Y           Z
   0 C     6.0000    0    12.011   -2.797355   -0.003281   -0.460861
   1 C     6.0000    0    12.011   -1.383870   -2.352044    0.445816
   2 C     6.0000    0    12.011    1.366852   -2.213403   -0.424868
   3 O     8.0000    0    15.999    2.583856    0.003016    0.452785
   4 C     6.0000    0    12.011    1.361327    2.216501   -0.424881
   5 C     6.0000    0    12.011   -1.389657    2.348837    0.445873
   6 H     1.0000    0     1.008   -4.727958   -0.005424    0.259903
   7 H     1.0000    0     1.008   -2.878490   -0.003435   -2.524186
   8 H     1.0000    0     1.008   -1.427120   -2.431905    2.506315
   9 H     1.0000    0     1.008   -2.248388   -4.065744   -0.300201
  10 H     1.0000    0     1.008    2.473871   -3.780182    0.331997
  11 H     1.0000    0     1.008    1.449849   -2.264376   -2.503691
  12 H     1.0000    0     1.008    2.464633    3.786128    0.331934
  13 H     1.0000    0     1.008    1.444455    2.268615   -2.503528
  14 H     1.0000    0     1.008   -1.433095    2.428451    2.506397
  15 H     1.0000    0     1.008   -2.258261    4.060396   -0.300233

------------------------------------------------------------------------------
                   ___                                                        
                  /   \      - P O W E R E D   B Y -                         
                 /     \                                                     
                 |  |  |   _    _      __       _____    __    __             
                 |  |  |  | |  | |    /  \     |  _  \  |  |  /  |          
                  \  \/   | |  | |   /    \    | | | |  |  | /  /          
                 / \  \   | |__| |  /  /\  \   | |_| |  |  |/  /          
                |  |  |   |  __  | /  /__\  \  |    /   |      \           
                |  |  |   | |  | | |   __   |  |    \   |  |\   \          
                \     /   | |  | | |  |  |  |  | |\  \  |  | \   \       
                 \___/    |_|  |_| |__|  |__|  |_| \__\ |__|  \__/        
                                                                              
                      - O R C A' S   B I G   F R I E N D -                    
                                      &                                       
                       - I N T E G R A L  F E E D E R -                       
                                                                              
 v1 FN, 2020, v2 2021, v3 2022-2024                                           
------------------------------------------------------------------------------


----------------------
SHARK INTEGRAL PACKAGE
----------------------

Number of atoms                             ...     16
Number of basis functions                   ...    169
Number of shells                            ...     85
Maximum angular momentum                    ...      2
Integral batch strategy                     ... SHARK/LIBINT Hybrid
RI-J (if used) integral strategy            ... SPLIT-RIJ (Revised 2003 algorithm where possible)
Printlevel                                  ...      1
Contraction scheme used                     ... SEGMENTED contraction
Prescreening option                         ... SCHWARTZ
   Thresh                                   ... 3.000e-11
   Tcut                                     ... 1.000e-12
   Tpresel                                  ... 1.000e-12 
Coulomb Range Separation                    ... NOT USED
Exchange Range Separation                   ... NOT USED
Multipole approximations                    ... NOT USED
Finite Nucleus Model                        ... NOT USED
CABS basis                                  ... NOT available
Auxiliary Coulomb fitting basis             ... AVAILABLE
   # of basis functions in Aux-J            ...    404
   # of shells in Aux-J                     ...    140
   Maximum angular momentum in Aux-J        ...      4
Auxiliary J/K fitting basis                 ... NOT available
Auxiliary Correlation fitting basis         ... NOT available
Auxiliary 'external' fitting basis          ... NOT available

Checking pre-screening integrals            ... done (  0.0 sec) Dimension = 85
Check shell pair data                       ... done (  0.0 sec)
Shell pair information
Shell pair cut-off parameter TPreSel        ...   1.0e-12
Total number of shell pairs                 ...      3655
Shell pairs after pre-screening             ...      3553
Total number of primitive shell pairs       ...     12882
Primitive shell pairs kept                  ...      9501
          la=0 lb=0:   1221 shell pairs
          la=1 lb=0:   1359 shell pairs
          la=1 lb=1:    400 shell pairs
          la=2 lb=0:    349 shell pairs
          la=2 lb=1:    196 shell pairs
          la=2 lb=2:     28 shell pairs

Calculating one electron integrals          ... done (  0.0 sec)
Calculating RI/J V-Matrix + Cholesky decomp.... done (  0.5 sec)
Calculating Nuclear repulsion               ... done (  0.0 sec) ENN=    260.849595416978 Eh

Diagonalization of the overlap matrix:
Smallest eigenvalue                        ... 1.042e-04
Time for diagonalization                   ...    0.003 sec
Threshold for overlap eigenvalues          ... 1.000e-07
Number of eigenvalues below threshold      ... 0
Time for construction of square roots      ...    0.014 sec
Total time needed                          ...    0.024 sec

-------------------
DFT GRID GENERATION
-------------------

General Integration Accuracy     IntAcc      ... 4.388
Radial Grid Type                 RadialGrid  ... OptM3 with GC (2021)
Angular Grid (max. ang.)         AngularGrid ... 4 (Lebedev-302)
Angular grid pruning method      GridPruning ... 4 (adaptive)
Weight generation scheme         WeightScheme... mBecke (2022)
Basis function cutoff            BFCut       ... 1.0000e-11
Integration weight cutoff        WCut        ... 1.0000e-14
Partially contracted basis set               ... off
Rotationally invariant grid construction     ... off
Angular grids for H and He will be reduced by one unit
Diffuse basis detected: some atoms will have their outermost
                        angular grid increased by 1.

Total number of grid points                  ...    68289
Total number of batches                      ...     1076
Average number of points per batch           ...       63
Average number of grid points per atom       ...     4268
Initializing property integral containers    ... done (  0.0 sec)

SHARK setup successfully completed in   3.0 seconds

Maximum memory used throughout the entire STARTUP-calculation: 30.6 MB
Occupation numbers will be reassigned to an Aufbau configuration
             **** ENERGY FILE WAS UPDATED (xtb_opt.en.tmp) ****
Finished Guess after   0.3 sec
Maximum memory used throughout the entire GUESS-calculation: 11.9 MB
--------------------
CPCM SOLVATION MODEL
--------------------
CPCM parameters:
  Epsilon                                         ...      78.3550
  Refrac                                          ...       1.3328
  Rsolv                                           ...       1.3000
  Surface type                                    ... GAUSSIAN VDW
  Discretization scheme                           ... Constant charge density
    Threshold for H atoms                         ...       5.0000 (charges/Ang^2)
    Threshold for non-H atoms                     ...       5.0000 (charges/Ang^2)
  Epsilon function type                           ...         CPCM
Solvent:                                          ... WATER
SMD-CDS solvent descriptors:
  Soln                                            ...       1.3328
  Soln25                                          ...       1.3323
  Sola                                            ...       0.0000
  Solb                                            ...       0.0000
  Solg                                            ...       0.0000
  Solc                                            ...       0.0000
  Solh                                            ...       0.0000
Radii:
  Scheme                                          ... Element-dependent radii
  Radius for C  used is    3.4960 Bohr (=   1.8500 Ang.)
  Radius for O  used is    2.8724 Bohr (=   1.5200 Ang.)
  Radius for H  used is    2.2677 Bohr (=   1.2000 Ang.)
Calculating surface                               ...        done! (  0.0s)
Cavity surface points                             ...         1140
Cavity Volume                                     ...     663.6402
Cavity Surface-area                               ...     429.9475
Calculating surface distance matrix               ...        done! (  0.0s)
Performing Cholesky decomposition & store         ...        done! (  0.2s)
Overall time for CPCM initialization              ...                 0.2s

----------------------------------------D-I-I-S--------------------------------------------
Iteration    Energy (Eh)           Delta-E    RMSDP     MaxDP     DIISErr   Damp  Time(sec)
-------------------------------------------------------------------------------------------
               ***  Starting incremental Fock matrix formation  ***
                              *** Initializing SOSCF ***
---------------------------------------S-O-S-C-F--------------------------------------
Iteration    Energy (Eh)           Delta-E    RMSDP     MaxDP     MaxGrad    Time(sec)
--------------------------------------------------------------------------------------
    1    -271.7039558075455261     0.00e+00  6.26e-06  1.45e-04  1.17e-05     4.5
               *** Restarting incremental Fock matrix formation ***
    2    -271.7039558195510836    -1.20e-08  7.80e-06  1.93e-04  5.31e-05     3.5
    3    -271.7039557446423714     7.49e-08  5.49e-06  1.54e-04  7.68e-05     2.8
                 **** Energy Check signals convergence ****

               *****************************************************
               *                     SUCCESS                       *
               *           SCF CONVERGED AFTER   3 CYCLES          *
               *****************************************************


SMD CDS free energy correction energy :                 2.30501     Kcal/mol
Total Energy after SMD CDS correction =              -271.700282472 Eh
             **** ENERGY FILE WAS UPDATED (xtb_opt.en.tmp) ****

----------------
TOTAL SCF ENERGY
----------------

Total Energy       :       -271.70028247233955 Eh           -7393.34056 eV

Components:
Nuclear Repulsion  :        260.84959541697833 Eh            7098.07835 eV
Electronic Energy  :       -532.54430579656173 Eh          -14491.26728 eV
One Electron Energy:       -884.31959298126696 Eh          -24063.55949 eV
Two Electron Energy:        351.77528718470523 Eh            9572.29221 eV
CPCM Dielectric    :         -0.00924536505896 Eh              -0.25158 eV
SMD CDS (Gcds)     :          0.00367327230282 Eh               0.09995 eV

Virial components:
Potential Energy   :       -542.20530447665556 Eh          -14754.15642 eV
Kinetic Energy     :        270.50502200431600 Eh            7360.81587 eV
Virial Ratio       :          2.00441862579544

DFT components:
N(Alpha)           :       24.000000154094 electrons
N(Beta)            :       24.000000154094 electrons
N(Total)           :       48.000000308189 electrons
E(X)               :      -37.897242768052 Eh       
E(C)               :       -1.523148576048 Eh       
E(XC)              :      -39.420391344099 Eh       

CPCM Solvation Model Properties:
Surface-charge          :         -0.04306337612160
Corrected charge        :         -0.00000000000000
Outlying charge corr.   :          0.00016238085357 Eh               0.00442 eV
Free-energy (cav+disp)  :          0.00367327230282 Eh               0.09995 eV

---------------
SCF CONVERGENCE
---------------

  Last Energy change         ...   -7.4909e-08  Tolerance :   1.0000e-07
  Last MAX-Density change    ...    1.5427e-04  Tolerance :   1.0000e-07
  Last RMS-Density change    ...    5.4892e-06  Tolerance :   5.0000e-09
  Last DIIS Error            ...    1.5289e-04  Tolerance :   1.0000e-07
  Last Orbital Gradient      ...    7.6815e-05  Tolerance :   1.0000e-04
  Last Orbital Rotation      ...    3.9145e-05  Tolerance :   1.0000e-04


----------------
ORBITAL ENERGIES
----------------

  NO   OCC          E(Eh)            E(eV) 
   0   2.0000     -18.952978      -515.7368 
   1   2.0000     -10.066170      -273.9144 
   2   2.0000     -10.066163      -273.9142 
   3   2.0000     -10.018328      -272.6126 
   4   2.0000     -10.017444      -272.5885 
   5   2.0000     -10.017425      -272.5880 
   6   2.0000      -1.000756       -27.2320 
   7   2.0000      -0.757810       -20.6211 
   8   2.0000      -0.720921       -19.6173 
   9   2.0000      -0.599800       -16.3214 
  10   2.0000      -0.595968       -16.2171 
  11   2.0000      -0.521862       -14.2006 
  12   2.0000      -0.458365       -12.4727 
  13   2.0000      -0.435278       -11.8445 
  14   2.0000      -0.412095       -11.2137 
  15   2.0000      -0.403426       -10.9778 
  16   2.0000      -0.380679       -10.3588 
  17   2.0000      -0.347200        -9.4478 
  18   2.0000      -0.344920        -9.3858 
  19   2.0000      -0.313763        -8.5379 
  20   2.0000      -0.297826        -8.1043 
  21   2.0000      -0.283044        -7.7020 
  22   2.0000      -0.266774        -7.2593 
  23   2.0000      -0.218161        -5.9365 
  24   0.0000       0.081390         2.2147 
  25   0.0000       0.112355         3.0573 
  26   0.0000       0.123162         3.3514 
  27   0.0000       0.129851         3.5334 
  28   0.0000       0.130794         3.5591 
  29   0.0000       0.142378         3.8743 
  30   0.0000       0.157495         4.2857 
  31   0.0000       0.166982         4.5438 
  32   0.0000       0.183389         4.9903 
  33   0.0000       0.189130         5.1465 
  34   0.0000       0.189629         5.1601 
*Only the first 10 virtual orbitals were printed.
Total SCF time: 0 days 0 hours 0 min 11 sec 
Finished LeanSCF after  12.1 sec

Maximum memory used throughout the entire LEANSCF-calculation: 20.0 MB


-------------------------------------------------------------------------------
                          DFT DISPERSION CORRECTION                            
                                                                               
                                DFTD4 V3.4.0                                   
-------------------------------------------------------------------------------
-------------------------   ----------------
Dispersion correction           -0.004011134
-------------------------   ----------------

------------------   -----------------
gCP correction             0.009286453
------------------   -----------------

-------------------------   --------------------
FINAL SINGLE POINT ENERGY      -271.695007153134
-------------------------   --------------------

------------------------------------------------------------------------------
                         ORCA SCF GRADIENT CALCULATION
------------------------------------------------------------------------------

Nuc. rep. gradient        (SHARK) ... done (  0.0 sec)
HCore & Overlap gradient  (SHARK) ... done (  0.2 sec)
Split-RIJ-J gradient      (SHARK) ... done (  1.0 sec)
XC gradient                       ... done (  5.0 sec)
CPCM gradient                     ... done (  0.6 sec)
SMD gradient                      ... done (  0.0 sec)
Dispersion correction             ... done (  0.0 sec)

-------------------
DISPERSION GRADIENT
-------------------

   1   C   :   -0.000048259   -0.000000055   -0.000008385
   2   C   :   -0.000020845   -0.000050381    0.000010169
   3   C   :    0.000027605   -0.000033408   -0.000011704
   4   O   :    0.000057254    0.000000067    0.000004105
   5   C   :    0.000027522    0.000033469   -0.000011696
   6   C   :   -0.000020970    0.000050332    0.000010171
   7   H   :   -0.000036558   -0.000000042    0.000002838
   8   H   :   -0.000023730   -0.000000028   -0.000011684
   9   H   :   -0.000008327   -0.000021979    0.000014009
  10   H   :   -0.000014953   -0.000033057   -0.000000193
  11   H   :    0.000023612   -0.000029159    0.000003394
  12   H   :    0.000018787   -0.000020308   -0.000009112
  13   H   :    0.000023540    0.000029213    0.000003393
  14   H   :    0.000018738    0.000020357   -0.000009122
  15   H   :   -0.000008383    0.000021959    0.000014009
  16   H   :   -0.000015034    0.000033020   -0.000000193

Difference to translation invariance:
           :   -0.0000000000    0.0000000000    0.0000000000

Difference to rotation invariance:
           :    0.0000000000    0.0000000000    0.0000000000

Norm of the Dispersion gradient    ...    0.0001630527
RMS gradient                       ...    0.0000235346
MAX gradient                       ...    0.0000572538
gCP correction                   ... done

------------------
CARTESIAN GRADIENT
------------------

   1   C   :   -0.001884349    0.000007907   -0.005048428
   2   C   :   -0.004879697   -0.004302662    0.004682789
   3   C   :    0.006739352    0.009733556    0.000609950
   4   O   :   -0.009013442   -0.000058205   -0.007842324
   5   C   :    0.006673092   -0.009815161    0.000521051
   6   C   :   -0.004918701    0.004327313    0.004689020
   7   H   :    0.003569258    0.000019457    0.000292570
   8   H   :    0.001049824   -0.000003233    0.003399620
   9   H   :    0.000632882    0.001628599   -0.003662531
  10   H   :    0.001043263    0.003916325    0.000502839
  11   H   :   -0.000168728    0.003203452    0.000967984
  12   H   :   -0.000199842    0.001149885    0.001516731
  13   H   :   -0.000141133   -0.003155814    0.000961025
  14   H   :   -0.000188545   -0.001094327    0.001561848
  15   H   :    0.000636708   -0.001633228   -0.003653254
  16   H   :    0.001050057   -0.003923863    0.000501109

Difference to translation invariance:
           :    0.0000000000    0.0000000000    0.0000000000

Difference to rotation invariance:
           :    0.0000011306   -0.0002338030    0.0000223930

Norm of the Cartesian gradient     ...    0.0265307737
RMS gradient                       ...    0.0038293873
MAX gradient                       ...    0.0098151613

-------
TIMINGS
-------

Total SCF gradient time     ....        7.290 sec

Densities                   ....       0.000 sec  (  0.0%)
One electron gradient       ....       0.183 sec  (  2.5%)
RI-J Coulomb gradient       ....       0.994 sec  ( 13.6%)
XC gradient                 ....       5.041 sec  ( 69.2%)
CPCM gradient               ....       0.566 sec  (  7.8%)
   A-Matrix (El+Nuc)        ....       0.050 sec  (  0.7%)
   Potential                ....       0.516 sec  (  7.1%)
SMD gradient                ....       0.013 sec  (  0.2%)

Maximum memory used throughout the entire SCFGRAD-calculation: 31.9 MB

------------------------------------------------------------------------------
                              ORCA PROPERTY CALCULATIONS
------------------------------------------------------------------------------

GBWName                                 ... xtb_opt.gbw
Number of atoms                         ...     16
Number of basis functions               ...    169
Max core memory                         ...   1024 MB

Electric properties:
Dipole moment                           ... YES
Quadrupole moment                       ...  NO
Static polarizability (Dipole/Dipole)   ...  NO
Static polarizability (Dipole/Quad.)    ...  NO
Static polarizability (Quad./Quad.)     ...  NO
Static polarizability (Velocity)        ...  NO

Atomic electric properties:
Dipole moment                           ...  NO
Quadrupole moment                       ...  NO
Static polarizability                   ...  NO

Choice of electric origin               ... Center of mass
Position of electric origin             ...    -0.000026    -0.000000    -0.000005

General magnetic properties:
Magnetizability                         ...  NO

EPR properties:
g-Tensor (aka g-matrix)                 ...  NO
Zero-Field splitting spin-orbit         ...  NO
Zero-field splitting spin-spin          ...  NO
Hyperfine couplings                     ...  NO (   0 nuclei)
Quadrupole couplings                    ...  NO (   0 nuclei)
Contact density                         ...  NO (   0 nuclei)

NMR properties:
Chemical shifts                         ...  NO (   0 nuclei)
Spin-rotation constants                 ...  NO (   0 nuclei)
Spin-spin couplings                     ...  NO (   0 nuclei,    0 pairs)

Choice of magnetic origin               ... GIAO
Position of magnetic origin             ...     0.000000     0.000000     0.000000

Properties with geometric perturbations:
SCF Hessian                             ...  NO
IR spectrum                             ...  NO
VCD spectrum                            ...  NO
X-ray spectroscopy properties:
SCF XES/XAS/RIXS spectra                ...  NO


-------------
DIPOLE MOMENT
-------------

Method             : SCF
Type of density    : Electron Density
Multiplicity       :   1
Irrep              :   0
Energy             :  -271.7002824723395520 Eh
Relativity type    : 
Basis              : AO
                                X                 Y                 Z
Electronic contribution:      2.765781739       0.002861488       0.683052158
Nuclear contribution   :     -3.524636002      -0.003688360      -1.086310936
                        -----------------------------------------
Total Dipole Moment    :     -0.758854263      -0.000826872      -0.403258778
                        -----------------------------------------
Magnitude (a.u.)       :      0.859347495
Magnitude (Debye)      :      2.184287745



--------------------
Rotational spectrum 
--------------------
 
Rotational constants in cm-1:             0.157550             0.150276             0.087447 
Rotational constants in MHz :          4723.241620          4505.166127          2621.582311 

Dipole components along the rotational axes: 
x,y,z [a.u.] :    -0.758853     0.000827    -0.403261 
x,y,z [Debye]:    -1.928851     0.002102    -1.025009 

 

Dipole moment calculation done in   0.0 sec 

Maximum memory used throughout the entire PROP-calculation: 10.2 MB

--------------------------------
SUGGESTED CITATIONS FOR THIS RUN
--------------------------------

Below you find a list of papers that are relevant to this ORCA run
We neither can nor want to force you to cite these papers, but we appreciate if you do
You receive ORCA, which is the product of decades of hard work by many enthusiastic individuals, for free
The only thing we kindly ask in return is that you cite our papers,
We deeply appreciate it, if you show your appreciation for ORCA by not just citing the generic ORCA reference.

Please note that relegating all ORCA citations to the supporting information does *not* help us.
SI sections are not indexed - citations you put there will not count into any citation statistics
But we need these citations in order to attract the funding resources that allow us to do what we are doing

Therefore, if you are a happy ORCA user, please consider citing a few of the papers listed below in the main body of your paper

In addition to the list printed below, the program has created the file xtb_opt.bibtex that contains the list in bibtex format
You can import this file easily into all common literature databanks and citation aid programs


List of essential papers. We consider these as the minimum necessary citations

  1. Neese,F.
     Software update: the ORCA program system, version 5.0
     WIRES Comput. Molec. Sci., 2022 12(1)e1606
     doi.org/10.1002/wcms.1606
  2. Grimme,S.; Hansen,A.; Ehlert,S.; Mewes,J.
     r2SCAN-3c: A 'Swiss army knife' composite electronic-structure method
     J. Chem. Phys., 2021 154 064103
     doi.org/10.1063/5.0040021

List of papers to cite with high priority. The work reported in these papers was absolutely
necessary for this run to complete.
Our perspective: the developers of density functionals and basis sets usually get cited in chemistry papers
Good! But without the algorithms to do something with them, the functionals or basis sets would not do anything.
Hence, in our opinion, the algorithm design and method developments papers are equally worthy of getting cited

  1. Neese,F.
     An improvement of the resolution of the identity approximation for the formation of the Coulomb matrix
     J. Comp. Chem., 2003 24(14)1740-1747
     doi.org/10.1002/jcc.10318
  2. Garcia-Rates,M.; Neese,F.
     Effect of the Solute Cavity on the Solvation Energy and its Derivatives within the Framework of the Gaussian Charge Scheme
     J. Comput. Chem., 2020 41 922-939
     doi.org/10.1002/jcc.26139
  3. Neese,F.
     The SHARK Integral Generation and Digestion System
     J. Comp. Chem., 2022  1-16
     doi.org/10.1002/jcc.26942
  4. Lehtola,S.; Steigemann,C.; Oliveira,M.; Marques,M.
     Recent developments in Libxc - A comprehensive library of functionals for density functional theory
     Software X, 2018 7 
     doi.org/10.1016/j.softx.2017.11.002
  5. Caldeweyher,E.; Bannwarth,C.; Grimme,S.
     Extension of the D3 dispersion coefficient model
     J. Chem. Phys., 2017 147 034112-XXXX
     doi.org/10.1063/1.4993215
  6. Caldeweyher,E.; Ehlert,S.; Hansen,A.; Neugebauer,H.; Spicher,S.; Bannwarth,C.; Grimme,S.
     A generally applicable atomic-charge dependent London dispersion correction
     J. Chem. Phys., 2019 150 154122-XXXX
     doi.org/10.1063/1.5090222
  7. Caldeweyher,E.; Mewes,J.; Ehlert,S.; Grimme,S.
     Extension and evaluation of the D4 London-dispersion model for periodic systems
     Phys. Chem. Chem. Phys., 2020 22(16)8499-8512
     doi.org/10.1039/D0CP00502A

List of suggested additional citations. These are papers that are important in the 'surrounding' of 
of this run, or papers that preceded the highly important papers. If you like your results we are grateful for a citation.

  1. Neese,F.
     The ORCA program system
     WIRES Comput. Molec. Sci., 2012 2(1)73-78
     doi.org/10.1002/wcms.81
  2. Neese,F.
     Software update: the ORCA program system, version 4.0
     WIRES Comput. Molec. Sci., 2018 8(1)1-6
     doi.org/10.1002/wcms.1327
  3. Neese,F.; Wennmohs,F.; Becker,U.; Riplinger,C.
     The ORCA quantum chemistry program package
     J. Chem. Phys., 2020 152 Art. No. L224108
     doi.org/10.1063/5.0004608

List of optional additional citations

  1. Neese,F.
     Approximate second-order SCF convergence for spin unrestricted wavefunctions
     Chem. Phys. Lett., 2000 325(1-3)93-98
     doi.org/10.1016/s0009-2614(00)00662-x

Timings for individual modules:

Sum of individual times          ...       23.032 sec (=   0.384 min)
Startup calculation              ...        3.060 sec (=   0.051 min)  13.3 %
SCF iterations                   ...       12.477 sec (=   0.208 min)  54.2 %
Property calculations            ...        0.106 sec (=   0.002 min)   0.5 %
SCF Gradient evaluation          ...        7.389 sec (=   0.123 min)  32.1 %
                             ****ORCA TERMINATED NORMALLY****
TOTAL RUN TIME: 0 days 0 hours 0 minutes 24 seconds 251 msec
  ------------------------------------------------------------------------
          * successful ORCA run, taking over control again...

         :::::::::::::::::::::::::::::::::::::::::::::::::::::
         ::                  ORCA SUMMARY                   ::
         :::::::::::::::::::::::::::::::::::::::::::::::::::::
         :: total energy            -271.695007153134 Eh    ::
         :: gradient norm              0.026530773711 Eh/a0 ::
         :: HOMO-LUMO gap              0.000000000000 eV    ::
         :::::::::::::::::::::::::::::::::::::::::::::::::::::

      ----------------------------------------------------------- 
     |                       L-ANC optimizer                     |
      ----------------------------------------------------------- 
          low memory version by Sebastian Ehlert

          ...................................................
          :                      SETUP                      :
          :.................................................:
          :   energy convergence        0.5000000E-05 Eh    :
          :   grad. convergence         0.1000000E-02 Eh/a0 :
          :   optimization log               true           :
          :   writing optlog all                1     steps :
          :   Hessian reset                    20     steps :
          :   maximium step len.        1.0000000     a0    :
          :   LBFGS images                     20           :
          ...................................................
 * calculating model hessian...
Using Lindh-Hessian (1995)
 Shifting diagonal of input Hessian by   1.000000000000000E-002
 Lowest  eigenvalues of input Hessian
    0.000000    0.000000    0.000000    0.000000    0.000000    0.000000
    0.019912    0.022510    0.031463    0.037483    0.038722    0.061313
    0.061652    0.063233    0.063680    0.065919    0.070719    0.072763
 Highest eigenvalues
    1.198944    1.219851    1.225547    1.251985    1.340727    1.515100
 

........................................................................
.............................. CYCLE    1 ..............................
........................................................................
                         * ORCA takes the control...
  ------------------------------------------------------------------------

                                 *****************
                                 * O   R   C   A *
                                 *****************

                                            #,                                       
                                            ###                                      
                                            ####                                     
                                            #####                                    
                                            ######                                   
                                           ########,                                 
                                     ,,################,,,,,                         
                               ,,#################################,,                 
                          ,,##########################################,,             
                       ,#########################################, ''#####,          
                    ,#############################################,,   '####,        
                  ,##################################################,,,,####,       
                ,###########''''           ''''###############################       
              ,#####''   ,,,,##########,,,,          '''####'''          '####       
            ,##' ,,,,###########################,,,                        '##       
           ' ,,###''''                  '''############,,,                           
         ,,##''                                '''############,,,,        ,,,,,,###''
      ,#''                                            '''#######################'''  
     '                                                          ''''####''''         
             ,#######,   #######,   ,#######,      ##                                
            ,#'     '#,  ##    ##  ,#'     '#,    #''#        ,####,   ,####,        
            ##       ##  ##   ,#'  ##            #'  '#       #'       #'  '#        
            ##       ##  #######   ##           ,######,      #####,   #    #        
            '#,     ,#'  ##    ##  '#,     ,#' ,#      #,     #,   #   #,  ,#        
             '#######'   ##     ##  '#######'  #'      '#     '####' # '####'        



                #########################################################
                #                        -***-                          #
                #          Department of theory and spectroscopy        #
                #                                                       #
                #                      Frank Neese                      #
                #                                                       #
                #     Directorship, Architecture, Infrastructure        #
                #                    SHARK, DRIVERS                     #
                #        Core code/Algorithms in most modules           #
                #                                                       #
                #        Max Planck Institute fuer Kohlenforschung      #
                #                Kaiser Wilhelm Platz 1                 #
                #                 D-45470 Muelheim/Ruhr                 #
                #                      Germany                          #
                #                                                       #
                #                  All rights reserved                  #
                #                        -***-                          #
                #########################################################


                         Program Version 6.0.0  -   RELEASE  -


 With contributions from (in alphabetic order):
   Daniel Aravena         : Magnetic Suceptibility
   Michael Atanasov       : Ab Initio Ligand Field Theory (pilot matlab implementation)
   Alexander A. Auer      : GIAO ZORA, VPT2 properties, NMR spectrum
   Ute Becker             : All parallelization in ORCA, NUMFREQ, NUMCALC
   Giovanni Bistoni       : ED, misc. LED, open-shell LED, HFLD
   Martin Brehm           : Molecular dynamics
   Dmytro Bykov           : pre 5.0 version of the SCF Hessian
   Marcos Casanova-Páez   : Triplet and SCS-CIS(D). UHF-(DLPNO)-IP/EA/STEOM-CCSD. UHF-CVS-IP/STEOM-CCSD
   Vijay G. Chilkuri      : MRCI spin determinant printing, contributions to CSF-ICE
   Pauline Colinet        : FMM embedding
   Dipayan Datta          : RHF DLPNO-CCSD density
   Achintya Kumar Dutta   : EOM-CC, STEOM-CC
   Nicolas Foglia         : Exact transition moments, OPA infrastructure, MCD improvements
   Dmitry Ganyushin       : Spin-Orbit,Spin-Spin,Magnetic field MRCI
   Miquel Garcia          : C-PCM and meta-GGA Hessian, CCSD/C-PCM, Gaussian charge scheme
   Tiago L. C. Gouveia    : GS-ROHF, GS-ROCIS
   Yang Guo               : DLPNO-NEVPT2, F12-NEVPT2, CIM, IAO-localization
   Andreas Hansen         : Spin unrestricted coupled pair/coupled cluster methods
   Ingolf Harden          : AUTO-CI MPn and infrastructure 
   Benjamin Helmich-Paris : MC-RPA, TRAH-(SCF,CASSCF), AVAS, COSX integrals, SCF dyn. polar.
   Lee Huntington         : MR-EOM, pCC
   Robert Izsak           : Overlap fitted RIJCOSX, COSX-SCS-MP3, EOM
   Riya Kayal             : Wick's Theorem for AUTO-CI, AUTO-CI UHF-CCSDT
   Emily Kempfer          : AUTO-CI, RHF CISDT and CCSDT
   Christian Kollmar      : KDIIS, OOCD, Brueckner-CCSD(T), CCSD density, CASPT2, CASPT2-K, improved NEVPT2
   Axel Koslowski         : Symmetry handling
   Simone Kossmann        : Meta GGA functionals, TD-DFT gradient, OOMP2, (MP2 Hessian; deprecated post 5.0)
   Lucas Lang             : DCDCAS
   Marvin Lechner         : AUTO-CI (C++ implementation), FIC-MRCC
   Spencer Leger          : CASSCF response
   Dagmar Lenk            : GEPOL surface, SMD, ORCA-2-JSON
   Dimitrios Liakos       : Extrapolation schemes; Compound Job, initial MDCI parallelization
   Dimitrios Manganas     : Further ROCIS development; embedding schemes. LFT, Crystal Embedding
   Dimitrios Pantazis     : SARC Basis sets
   Anastasios Papadopoulos: AUTO-CI, single reference methods and gradients
   Taras Petrenko         : pre 6.0 DFT Hessian and TD-DFT gradient, (ASA, deprecated), ECA, 1-Electron XAS/XES, NRVS
   Peter Pinski           : DLPNO-MP2, DLPNO-MP2 Gradient
   Christoph Reimann      : Effective Core Potentials
   Marius Retegan         : Local ZFS, SOC
   Christoph Riplinger    : Optimizer, TS searches, QM/MM, DLPNO-CCSD(T), (RO)-DLPNO pert. Triples
   Michael Roemelt        : Original ROCIS implementation
   Masaaki Saitow         : Open-shell DLPNO-CCSD energy and density
   Barbara Sandhoefer     : DKH picture change effects
   Kantharuban Sivalingam : CASSCF convergence/infrastructure, NEVPT2 and variants, FIC-MRCI
   Bernardo de Souza      : ESD, SOC TD-DFT
   Georgi Stoychev        : AutoAux, RI-MP2 NMR, DLPNO-MP2 response, X2C
   Van Anh Tran           : RI-MP2 g-tensors
   Willem Van den Heuvel  : Paramagnetic NMR
   Zikuan Wang            : NOTCH, Electric field optimization 
   Frank Wennmohs         : Technical directorship and infrastructure
   Hang Xu                : AUTO-CI-Response properties 


 We gratefully acknowledge several colleagues who have allowed us to
 interface, adapt or use parts of their codes:
   Stefan Grimme, W. Hujo, H. Kruse, P. Pracht,  : VdW corrections, initial TS optimization,
                  C. Bannwarth, S. Ehlert,         DFT functionals, gCP, sTDA/sTD-DF
                  L. Wittmann, M. Mueller
   Ed Valeev, F. Pavosevic, A. Kumar             : LibInt (2-el integral package), F12 methods
   Garnet Chan, S. Sharma, J. Yang, R. Olivares  : DMRG
   Ulf Ekstrom                                   : XCFun DFT Library
   Mihaly Kallay                                 : mrcc  (arbitrary order and MRCC methods)
   Frank Weinhold                                : gennbo (NPA and NBO analysis)
   Simon Mueller                                 : openCOSMO-RS
   Christopher J. Cramer and Donald G. Truhlar   : smd solvation model
   Lars Goerigk                                  : TD-DFT with DH, B97 family of functionals
   V. Asgeirsson, H. Jonsson                     : NEB implementation
   FAccTs GmbH                                   : IRC, NEB, NEB-TS, DLPNO-Multilevel, CI-OPT
                                                   MM, QMMM, 2- and 3-layer-ONIOM, Crystal-QMMM,
                                                   LR-CPCM, SF, NACMEs, symmetry and pop. for TD-DFT,
                                                   nearIR, NL-DFT gradient (VV10), updates on ESD,
                                                   ML-optimized integration grids, MBIS, APM,
                                                   GOAT, DOCKER, SOLVATOR, interface openCOSMO-RS
   S Lehtola, MJT Oliveira, MAL Marques          : LibXC Library
   Liviu Ungur et al                             : ANISO software


 Your calculation uses the libint2 library for the computation of 2-el integrals
 For citations please refer to: http://libint.valeyev.net

 Your ORCA version has been built with support for libXC version: 6.2.2
 For citations please refer to: https://libxc.gitlab.io

 This ORCA versions uses:
   CBLAS   interface :  Fast vector & matrix operations
   LAPACKE interface :  Fast linear algebra routines
   SCALAPACK package :  Parallel linear algebra routines
   Shared memory     :  Shared parallel matrices
   BLAS/LAPACK       :  OpenBLAS 0.3.27  USE64BITINT DYNAMIC_ARCH NO_AFFINITY SkylakeX SINGLE_THREADED
        Core in use  :  SkylakeX
   Copyright (c) 2011-2014, The OpenBLAS Project




***************************************
The coordinates will be read from file: xtb_opt.xyz
***************************************


Your calculation utilizes the geometrical counterpoise correction gCP
Please cite in your paper:
H.Kruse, S. Grimme J.Chem.Phys., 136, (2012), 154101 
   

Your calculation utilizes the atom-pairwise dispersion correction
based on EEQ partial charges (D4)


Your calculation utilizes the SMD solvation module
Please cite in your paper:
A.V. Marenich, C.J. Cramer, D.G. Truhlar J. Phys. Chem. B, 113, (2009), 6378 

================================================================================

----- Orbital basis set information -----
Your calculation utilizes the basis: def2-mTZVPP
   Stefan Grimme, Andreas Hansen, Sebastian Ehlert, and Jan-Michael Mewes 
   J. Chem. Phys. 154, 064103 (2021). DOI: 10.1063/5.0040021

----- AuxJ basis set information -----
Your calculation utilizes the auxiliary basis: def2/J
   F. Weigend, Phys. Chem. Chem. Phys. 8, 1057 (2006).

================================================================================
                                        WARNINGS
                       Please study these warnings very carefully!
================================================================================

WARNING: Old DensityContainer found on disk!
         Will remove this file - 
         If you want to keep old densities, please start your calculation with a different basename. 

Using LibXC functional ID 497 : Re-regularized SCAN exchange by Furness et al
[ 1]  J. W. Furness, A. D. Kaplan, J. Ning, J. P. Perdew, and J. Sun.,  J. Phys. Chem. Lett. 11, 8208-8215 (2020)
[ 2]  J. W. Furness, A. D. Kaplan, J. Ning, J. P. Perdew, and J. Sun.,  J. Phys. Chem. Lett. 11, 9248-9248 (2020)
Using LibXC functional ID 498 : Re-regularized SCAN correlation by Furness et al
[ 1]  J. W. Furness, A. D. Kaplan, J. Ning, J. P. Perdew, and J. Sun.,  J. Phys. Chem. Lett. 11, 8208-8215 (2020)
[ 2]  J. W. Furness, A. D. Kaplan, J. Ning, J. P. Perdew, and J. Sun.,  J. Phys. Chem. Lett. 11, 9248-9248 (2020)
Using LibXC functional ID 497 : Re-regularized SCAN exchange by Furness et al
[ 1]  J. W. Furness, A. D. Kaplan, J. Ning, J. P. Perdew, and J. Sun.,  J. Phys. Chem. Lett. 11, 8208-8215 (2020)
[ 2]  J. W. Furness, A. D. Kaplan, J. Ning, J. P. Perdew, and J. Sun.,  J. Phys. Chem. Lett. 11, 9248-9248 (2020)
Using LibXC functional ID 498 : Re-regularized SCAN correlation by Furness et al
[ 1]  J. W. Furness, A. D. Kaplan, J. Ning, J. P. Perdew, and J. Sun.,  J. Phys. Chem. Lett. 11, 8208-8215 (2020)
[ 2]  J. W. Furness, A. D. Kaplan, J. Ning, J. P. Perdew, and J. Sun.,  J. Phys. Chem. Lett. 11, 9248-9248 (2020)

================================================================================
                                       INPUT FILE
================================================================================
NAME = xtb_opt.inp
|  1> ! r2scan-3c def2/J RI DEFGRID2 scfconv7 ENGRAD tightSCF miniprint
|  2> %cpcm
|  3>     smd true
|  4>     smdsolvent "water"
|  5> end
|  6> * xyzfile 0 1 xtb_opt.xyz
|  7> 
|  8>                          ****END OF INPUT****
================================================================================

                     *******************************
                     * Energy+Gradient Calculation *
                     *******************************

---------------------------------
CARTESIAN COORDINATES (ANGSTROEM)
---------------------------------
  C     -1.480904   -0.001768   -0.236979
  C     -0.729587   -1.248753    0.232857
  C      0.724873   -1.181726   -0.222364
  O      1.371051    0.001695    0.248840
  C      0.722062    1.183588   -0.222313
  C     -0.732573    1.247007    0.232851
  H     -2.508744   -0.003004    0.138518
  H     -1.529256   -0.001831   -1.332956
  H     -0.756366   -1.303481    1.327197
  H     -1.186372   -2.160838   -0.163337
  H      1.305087   -2.021748    0.169193
  H      0.769395   -1.209015   -1.324244
  H      1.300269    2.025006    0.169290
  H      0.766573    1.211095   -1.324172
  H     -0.759519    1.301646    1.327192
  H     -1.191558    2.157974   -0.163354

----------------------------
CARTESIAN COORDINATES (A.U.)
----------------------------
  NO LB      ZA    FRAG     MASS         X           Y           Z
   0 C     6.0000    0    12.011   -2.798504   -0.003342   -0.447825
   1 C     6.0000    0    12.011   -1.378719   -2.359801    0.440036
   2 C     6.0000    0    12.011    1.369811   -2.233139   -0.420208
   3 O     8.0000    0    15.999    2.590912    0.003203    0.470239
   4 C     6.0000    0    12.011    1.364500    2.236656   -0.420110
   5 C     6.0000    0    12.011   -1.384363    2.356501    0.440025
   6 H     1.0000    0     1.008   -4.740839   -0.005677    0.261761
   7 H     1.0000    0     1.008   -2.889875   -0.003460   -2.518922
   8 H     1.0000    0     1.008   -1.429324   -2.463222    2.508039
   9 H     1.0000    0     1.008   -2.241918   -4.083393   -0.308661
  10 H     1.0000    0     1.008    2.466258   -3.820551    0.319728
  11 H     1.0000    0     1.008    1.453947   -2.284707   -2.502458
  12 H     1.0000    0     1.008    2.457152    3.826707    0.319913
  13 H     1.0000    0     1.008    1.448614    2.288638   -2.502323
  14 H     1.0000    0     1.008   -1.435284    2.459754    2.508030
  15 H     1.0000    0     1.008   -2.251718    4.077981   -0.308695

------------------------------------------------------------------------------
                   ___                                                        
                  /   \      - P O W E R E D   B Y -                         
                 /     \                                                     
                 |  |  |   _    _      __       _____    __    __             
                 |  |  |  | |  | |    /  \     |  _  \  |  |  /  |          
                  \  \/   | |  | |   /    \    | | | |  |  | /  /          
                 / \  \   | |__| |  /  /\  \   | |_| |  |  |/  /          
                |  |  |   |  __  | /  /__\  \  |    /   |      \           
                |  |  |   | |  | | |   __   |  |    \   |  |\   \          
                \     /   | |  | | |  |  |  |  | |\  \  |  | \   \       
                 \___/    |_|  |_| |__|  |__|  |_| \__\ |__|  \__/        
                                                                              
                      - O R C A' S   B I G   F R I E N D -                    
                                      &                                       
                       - I N T E G R A L  F E E D E R -                       
                                                                              
 v1 FN, 2020, v2 2021, v3 2022-2024                                           
------------------------------------------------------------------------------


----------------------
SHARK INTEGRAL PACKAGE
----------------------

Number of atoms                             ...     16
Number of basis functions                   ...    169
Number of shells                            ...     85
Maximum angular momentum                    ...      2
Integral batch strategy                     ... SHARK/LIBINT Hybrid
RI-J (if used) integral strategy            ... SPLIT-RIJ (Revised 2003 algorithm where possible)
Printlevel                                  ...      1
Contraction scheme used                     ... SEGMENTED contraction
Prescreening option                         ... SCHWARTZ
   Thresh                                   ... 3.000e-11
   Tcut                                     ... 1.000e-12
   Tpresel                                  ... 1.000e-12 
Coulomb Range Separation                    ... NOT USED
Exchange Range Separation                   ... NOT USED
Multipole approximations                    ... NOT USED
Finite Nucleus Model                        ... NOT USED
CABS basis                                  ... NOT available
Auxiliary Coulomb fitting basis             ... AVAILABLE
   # of basis functions in Aux-J            ...    404
   # of shells in Aux-J                     ...    140
   Maximum angular momentum in Aux-J        ...      4
Auxiliary J/K fitting basis                 ... NOT available
Auxiliary Correlation fitting basis         ... NOT available
Auxiliary 'external' fitting basis          ... NOT available

Checking pre-screening integrals            ... done (  0.0 sec) Dimension = 85
Check shell pair data                       ... done (  0.0 sec)
Shell pair information
Shell pair cut-off parameter TPreSel        ...   1.0e-12
Total number of shell pairs                 ...      3655
Shell pairs after pre-screening             ...      3548
Total number of primitive shell pairs       ...     12882
Primitive shell pairs kept                  ...      9478
          la=0 lb=0:   1217 shell pairs
          la=1 lb=0:   1358 shell pairs
          la=1 lb=1:    400 shell pairs
          la=2 lb=0:    349 shell pairs
          la=2 lb=1:    196 shell pairs
          la=2 lb=2:     28 shell pairs

Calculating one electron integrals          ... done (  0.0 sec)
Calculating RI/J V-Matrix + Cholesky decomp.... done (  0.3 sec)
Calculating Nuclear repulsion               ... done (  0.0 sec) ENN=    259.981347842346 Eh

Diagonalization of the overlap matrix:
Smallest eigenvalue                        ... 1.059e-04
Time for diagonalization                   ...    0.003 sec
Threshold for overlap eigenvalues          ... 1.000e-07
Number of eigenvalues below threshold      ... 0
Time for construction of square roots      ...    0.012 sec
Total time needed                          ...    0.023 sec

-------------------
DFT GRID GENERATION
-------------------

General Integration Accuracy     IntAcc      ... 4.388
Radial Grid Type                 RadialGrid  ... OptM3 with GC (2021)
Angular Grid (max. ang.)         AngularGrid ... 4 (Lebedev-302)
Angular grid pruning method      GridPruning ... 4 (adaptive)
Weight generation scheme         WeightScheme... mBecke (2022)
Basis function cutoff            BFCut       ... 1.0000e-11
Integration weight cutoff        WCut        ... 1.0000e-14
Partially contracted basis set               ... off
Rotationally invariant grid construction     ... off
Angular grids for H and He will be reduced by one unit
Diffuse basis detected: some atoms will have their outermost
                        angular grid increased by 1.

Total number of grid points                  ...    68307
Total number of batches                      ...     1077
Average number of points per batch           ...       63
Average number of grid points per atom       ...     4269
Initializing property integral containers    ... done (  0.0 sec)

SHARK setup successfully completed in   2.2 seconds

Maximum memory used throughout the entire STARTUP-calculation: 30.6 MB
Occupation numbers will be reassigned to an Aufbau configuration
             **** ENERGY FILE WAS UPDATED (xtb_opt.en.tmp) ****
Finished Guess after   0.8 sec
Maximum memory used throughout the entire GUESS-calculation: 11.8 MB
--------------------
CPCM SOLVATION MODEL
--------------------
CPCM parameters:
  Epsilon                                         ...      78.3550
  Refrac                                          ...       1.3328
  Rsolv                                           ...       1.3000
  Surface type                                    ... GAUSSIAN VDW
  Discretization scheme                           ... Constant charge density
    Threshold for H atoms                         ...       5.0000 (charges/Ang^2)
    Threshold for non-H atoms                     ...       5.0000 (charges/Ang^2)
  Epsilon function type                           ...         CPCM
Solvent:                                          ... WATER
SMD-CDS solvent descriptors:
  Soln                                            ...       1.3328
  Soln25                                          ...       1.3323
  Sola                                            ...       0.0000
  Solb                                            ...       0.0000
  Solg                                            ...       0.0000
  Solc                                            ...       0.0000
  Solh                                            ...       0.0000
Radii:
  Scheme                                          ... Element-dependent radii
  Radius for C  used is    3.4960 Bohr (=   1.8500 Ang.)
  Radius for O  used is    2.8724 Bohr (=   1.5200 Ang.)
  Radius for H  used is    2.2677 Bohr (=   1.2000 Ang.)
Calculating surface                               ...        done! (  0.0s)
Cavity surface points                             ...         1142
Cavity Volume                                     ...     665.7902
Cavity Surface-area                               ...     431.4111
Calculating surface distance matrix               ...        done! (  0.0s)
Performing Cholesky decomposition & store         ...        done! (  0.1s)
Overall time for CPCM initialization              ...                 0.1s

----------------------------------------D-I-I-S--------------------------------------------
Iteration    Energy (Eh)           Delta-E    RMSDP     MaxDP     DIISErr   Damp  Time(sec)
-------------------------------------------------------------------------------------------
               ***  Starting incremental Fock matrix formation  ***
    1    -271.7044353886853401     0.00e+00  7.87e-05  1.32e-03  5.08e-03  0.700   3.5
    2    -271.7044924623847351    -5.71e-05  7.06e-05  1.21e-03  3.46e-03  0.700   3.4
                               ***Turning on AO-DIIS***
                              *** Initializing SOSCF ***
---------------------------------------S-O-S-C-F--------------------------------------
Iteration    Energy (Eh)           Delta-E    RMSDP     MaxDP     MaxGrad    Time(sec)
--------------------------------------------------------------------------------------
    3    -271.7045336025891515    -4.11e-05  1.80e-04  3.24e-03  2.30e-03     3.5
               *** Restarting incremental Fock matrix formation ***
    4    -271.7046277817492523    -9.42e-05  4.79e-05  1.29e-03  2.41e-04     4.0
    5    -271.7046255669661718     2.21e-06  2.90e-05  7.72e-04  4.19e-04     2.6
    6    -271.7046291643613927    -3.60e-06  5.66e-06  8.77e-05  2.60e-05     3.2
    7    -271.7046291218837837     4.25e-08  3.53e-06  4.93e-05  4.11e-05     3.0
                 **** Energy Check signals convergence ****

               *****************************************************
               *                     SUCCESS                       *
               *           SCF CONVERGED AFTER   7 CYCLES          *
               *****************************************************


SMD CDS free energy correction energy :                 2.30540     Kcal/mol
Total Energy after SMD CDS correction =              -271.700955239 Eh
             **** ENERGY FILE WAS UPDATED (xtb_opt.en.tmp) ****

----------------
TOTAL SCF ENERGY
----------------

Total Energy       :       -271.70095523859987 Eh           -7393.35886 eV

Components:
Nuclear Repulsion  :        259.98134784234622 Eh            7074.45213 eV
Electronic Energy  :       -531.67632012329966 Eh          -14467.64819 eV
One Electron Energy:       -882.63070934620146 Eh          -24017.60263 eV
Two Electron Energy:        350.95438922290180 Eh            9549.95444 eV
CPCM Dielectric    :         -0.00965684093030 Eh              -0.26278 eV
SMD CDS (Gcds)     :          0.00367388328389 Eh               0.09997 eV

Virial components:
Potential Energy   :       -542.11238584804937 Eh          -14751.62798 eV
Kinetic Energy     :        270.41143060944950 Eh            7358.26911 eV
Virial Ratio       :          2.00476875044167

DFT components:
N(Alpha)           :       24.000005530971 electrons
N(Beta)            :       24.000005530971 electrons
N(Total)           :       48.000011061942 electrons
E(X)               :      -37.873713211302 Eh       
E(C)               :       -1.521801626895 Eh       
E(XC)              :      -39.395514838198 Eh       

CPCM Solvation Model Properties:
Surface-charge          :         -0.04321226716131
Corrected charge        :         -0.00000000000000
Outlying charge corr.   :          0.00016324966704 Eh               0.00444 eV
Free-energy (cav+disp)  :          0.00367388328389 Eh               0.09997 eV

---------------
SCF CONVERGENCE
---------------

  Last Energy change         ...   -4.2478e-08  Tolerance :   1.0000e-07
  Last MAX-Density change    ...    4.9254e-05  Tolerance :   1.0000e-07
  Last RMS-Density change    ...    3.5280e-06  Tolerance :   5.0000e-09
  Last DIIS Error            ...    2.2963e-03  Tolerance :   1.0000e-07
  Last Orbital Gradient      ...    4.1106e-05  Tolerance :   1.0000e-04
  Last Orbital Rotation      ...    3.2619e-05  Tolerance :   1.0000e-04


----------------
ORBITAL ENERGIES
----------------

  NO   OCC          E(Eh)            E(eV) 
   0   2.0000     -18.953934      -515.7628 
   1   2.0000     -10.067577      -273.9527 
   2   2.0000     -10.067570      -273.9525 
   3   2.0000     -10.019952      -272.6568 
   4   2.0000     -10.018874      -272.6274 
   5   2.0000     -10.018858      -272.6270 
   6   2.0000      -0.994686       -27.0668 
   7   2.0000      -0.756903       -20.5964 
   8   2.0000      -0.720539       -19.6069 
   9   2.0000      -0.601336       -16.3632 
  10   2.0000      -0.593667       -16.1545 
  11   2.0000      -0.520777       -14.1711 
  12   2.0000      -0.456869       -12.4320 
  13   2.0000      -0.434361       -11.8196 
  14   2.0000      -0.410670       -11.1749 
  15   2.0000      -0.401266       -10.9190 
  16   2.0000      -0.380584       -10.3562 
  17   2.0000      -0.348320        -9.4783 
  18   2.0000      -0.344072        -9.3627 
  19   2.0000      -0.313165        -8.5217 
  20   2.0000      -0.296091        -8.0570 
  21   2.0000      -0.284041        -7.7291 
  22   2.0000      -0.266936        -7.2637 
  23   2.0000      -0.219158        -5.9636 
  24   0.0000       0.078341         2.1318 
  25   0.0000       0.109969         2.9924 
  26   0.0000       0.122944         3.3455 
  27   0.0000       0.129297         3.5184 
  28   0.0000       0.130730         3.5573 
  29   0.0000       0.141275         3.8443 
  30   0.0000       0.157708         4.2915 
  31   0.0000       0.164584         4.4786 
  32   0.0000       0.181520         4.9394 
  33   0.0000       0.187911         5.1133 
  34   0.0000       0.189128         5.1464 
*Only the first 10 virtual orbitals were printed.
Total SCF time: 0 days 0 hours 0 min 24 sec 
Finished LeanSCF after  24.4 sec

Maximum memory used throughout the entire LEANSCF-calculation: 20.0 MB


-------------------------------------------------------------------------------
                          DFT DISPERSION CORRECTION                            
                                                                               
                                DFTD4 V3.4.0                                   
-------------------------------------------------------------------------------
-------------------------   ----------------
Dispersion correction           -0.004002818
-------------------------   ----------------

------------------   -----------------
gCP correction             0.009144754
------------------   -----------------

-------------------------   --------------------
FINAL SINGLE POINT ENERGY      -271.695813301835
-------------------------   --------------------

------------------------------------------------------------------------------
                         ORCA SCF GRADIENT CALCULATION
------------------------------------------------------------------------------

Nuc. rep. gradient        (SHARK) ... done (  0.0 sec)
HCore & Overlap gradient  (SHARK) ... done (  0.2 sec)
Split-RIJ-J gradient      (SHARK) ... done (  1.0 sec)
XC gradient                       ... done (  4.9 sec)
CPCM gradient                     ... done (  0.6 sec)
SMD gradient                      ... done (  0.0 sec)
Dispersion correction             ... done (  0.0 sec)

-------------------
DISPERSION GRADIENT
-------------------

   1   C   :   -0.000048592   -0.000000060   -0.000008374
   2   C   :   -0.000020762   -0.000051008    0.000010071
   3   C   :    0.000028336   -0.000035537   -0.000011712
   4   O   :    0.000056537    0.000000068    0.000003827
   5   C   :    0.000028255    0.000035611   -0.000011710
   6   C   :   -0.000020884    0.000050955    0.000010071
   7   H   :   -0.000036630   -0.000000044    0.000002817
   8   H   :   -0.000023939   -0.000000029   -0.000011627
   9   H   :   -0.000008327   -0.000022290    0.000014010
  10   H   :   -0.000014768   -0.000033003   -0.000000208
  11   H   :    0.000023268   -0.000029115    0.000003211
  12   H   :    0.000018793   -0.000020615   -0.000008695
  13   H   :    0.000023198    0.000029170    0.000003212
  14   H   :    0.000018744    0.000020662   -0.000008695
  15   H   :   -0.000008381    0.000022268    0.000014010
  16   H   :   -0.000014847    0.000032967   -0.000000208

Difference to translation invariance:
           :   -0.0000000000    0.0000000000    0.0000000000

Difference to rotation invariance:
           :    0.0000000000   -0.0000000000    0.0000000000

Norm of the Dispersion gradient    ...    0.0001643809
[...]
Virial Ratio       :          2.00490493082429

DFT components:
N(Alpha)           :       23.999999151371 electrons
N(Beta)            :       23.999999151371 electrons
N(Total)           :       47.999998302742 electrons
E(X)               :      -37.863549721969 Eh       
E(C)               :       -1.521119588178 Eh       
E(XC)              :      -39.384669310147 Eh       

CPCM Solvation Model Properties:
Surface-charge          :         -0.04325101321546
Corrected charge        :          0.00000000000000
Outlying charge corr.   :          0.00016344491584 Eh               0.00445 eV
Free-energy (cav+disp)  :          0.00365853479824 Eh               0.09955 eV

---------------
SCF CONVERGENCE
---------------

  Last Energy change         ...    1.8512e-09  Tolerance :   1.0000e-07
  Last MAX-Density change    ...    2.2295e-05  Tolerance :   1.0000e-07
  Last RMS-Density change    ...    8.6578e-07  Tolerance :   5.0000e-09
  Last DIIS Error            ...    2.2799e-05  Tolerance :   1.0000e-07
  Last Orbital Gradient      ...    7.4217e-06  Tolerance :   1.0000e-04
  Last Orbital Rotation      ...    7.9517e-06  Tolerance :   1.0000e-04


----------------
ORBITAL ENERGIES
----------------

  NO   OCC          E(Eh)            E(eV) 
   0   2.0000     -18.953470      -515.7501 
   1   2.0000     -10.067917      -273.9620 
   2   2.0000     -10.067910      -273.9618 
   3   2.0000     -10.020687      -272.6767 
   4   2.0000     -10.019635      -272.6481 
   5   2.0000     -10.019619      -272.6477 
   6   2.0000      -0.988787       -26.9062 
   7   2.0000      -0.757144       -20.6029 
   8   2.0000      -0.720231       -19.5985 
   9   2.0000      -0.602640       -16.3987 
  10   2.0000      -0.591993       -16.1089 
  11   2.0000      -0.520480       -14.1630 
  12   2.0000      -0.455826       -12.4037 
  13   2.0000      -0.432508       -11.7691 
  14   2.0000      -0.409974       -11.1560 
  15   2.0000      -0.400622       -10.9015 
  16   2.0000      -0.380189       -10.3455 
  17   2.0000      -0.349218        -9.5027 
  18   2.0000      -0.342823        -9.3287 
  19   2.0000      -0.313676        -8.5355 
  20   2.0000      -0.295855        -8.0506 
  21   2.0000      -0.283975        -7.7274 
  22   2.0000      -0.267542        -7.2802 
  23   2.0000      -0.219920        -5.9843 
  24   0.0000       0.075317         2.0495 
  25   0.0000       0.108898         2.9633 
  26   0.0000       0.122204         3.3253 
  27   0.0000       0.129749         3.5307 
  28   0.0000       0.130390         3.5481 
  29   0.0000       0.140801         3.8314 
  30   0.0000       0.158725         4.3191 
  31   0.0000       0.162019         4.4088 
  32   0.0000       0.180960         4.9242 
  33   0.0000       0.186571         5.0769 
  34   0.0000       0.189158         5.1473 
*Only the first 10 virtual orbitals were printed.
Total SCF time: 0 days 0 hours 0 min 5 sec 
Finished LeanSCF after   5.9 sec

Maximum memory used throughout the entire LEANSCF-calculation: 20.1 MB


-------------------------------------------------------------------------------
                          DFT DISPERSION CORRECTION                            
                                                                               
                                DFTD4 V3.4.0                                   
-------------------------------------------------------------------------------
-------------------------   ----------------
Dispersion correction           -0.003998884
-------------------------   ----------------

------------------   -----------------
gCP correction             0.009101725
------------------   -----------------

-------------------------   --------------------
FINAL SINGLE POINT ENERGY      -271.696008250553
-------------------------   --------------------

------------------------------------------------------------------------------
                         ORCA SCF GRADIENT CALCULATION
------------------------------------------------------------------------------

Nuc. rep. gradient        (SHARK) ... done (  0.0 sec)
HCore & Overlap gradient  (SHARK) ... done (  0.2 sec)
Split-RIJ-J gradient      (SHARK) ... done (  1.0 sec)
XC gradient                       ... done (  4.7 sec)
CPCM gradient                     ... done (  0.5 sec)
SMD gradient                      ... done (  0.0 sec)
Dispersion correction             ... done (  0.0 sec)

-------------------
DISPERSION GRADIENT
-------------------

   1   C   :   -0.000048655   -0.000000059   -0.000008276
   2   C   :   -0.000020902   -0.000051445    0.000009903
   3   C   :    0.000028992   -0.000035907   -0.000011573
   4   O   :    0.000056016    0.000000067    0.000003532
   5   C   :    0.000028905    0.000035978   -0.000011572
   6   C   :   -0.000021026    0.000051394    0.000009904
   7   H   :   -0.000036546   -0.000000044    0.000002990
   8   H   :   -0.000024204   -0.000000029   -0.000011636
   9   H   :   -0.000008360   -0.000022661    0.000014098
  10   H   :   -0.000014739   -0.000032950   -0.000000326
  11   H   :    0.000023077   -0.000029034    0.000003151
  12   H   :    0.000018859   -0.000020628   -0.000008560
  13   H   :    0.000023006    0.000029090    0.000003152
  14   H   :    0.000018809    0.000020674   -0.000008560
  15   H   :   -0.000008415    0.000022640    0.000014099
  16   H   :   -0.000014818    0.000032915   -0.000000325

Difference to translation invariance:
           :   -0.0000000000    0.0000000000   -0.0000000000

Difference to rotation invariance:
           :   -0.0000000000   -0.0000000000   -0.0000000000

Norm of the Dispersion gradient    ...    0.0001649028
RMS gradient                       ...    0.0000238017
MAX gradient                       ...    0.0000560165
gCP correction                   ... done

------------------
CARTESIAN GRADIENT
------------------

   1   C   :   -0.000084403   -0.000000024   -0.000022599
   2   C   :    0.000022290    0.000046781    0.000007905
   3   C   :   -0.000097787   -0.000190847   -0.000060104
   4   O   :    0.000116347    0.000000323    0.000045874
   5   C   :   -0.000099077    0.000190437   -0.000060798
   6   C   :    0.000021673   -0.000047306    0.000007875
   7   H   :    0.000030489   -0.000000421   -0.000046153
   8   H   :    0.000055898   -0.000000125    0.000020647
   9   H   :    0.000013609    0.000029289   -0.000036811
  10   H   :   -0.000000107    0.000042504    0.000015668
  11   H   :    0.000008500    0.000047153    0.000024616
  12   H   :   -0.000004176    0.000020152    0.000049993
  13   H   :    0.000008496   -0.000045954    0.000024685
  14   H   :   -0.000004397   -0.000019380    0.000050552
  15   H   :    0.000013167   -0.000029485   -0.000036826
  16   H   :   -0.000000523   -0.000043097    0.000015476

Difference to translation invariance:
           :    0.0000000000   -0.0000000000   -0.0000000000

Difference to rotation invariance:
           :    0.0000011861   -0.0002998553    0.0000173118

Norm of the Cartesian gradient     ...    0.0003940741
RMS gradient                       ...    0.0000568797
MAX gradient                       ...    0.0001908468

-------
TIMINGS
-------

Total SCF gradient time     ....        6.883 sec

Densities                   ....       0.000 sec  (  0.0%)
One electron gradient       ....       0.179 sec  (  2.6%)
RI-J Coulomb gradient       ....       0.977 sec  ( 14.2%)
XC gradient                 ....       4.712 sec  ( 68.5%)
CPCM gradient               ....       0.540 sec  (  7.8%)
   A-Matrix (El+Nuc)        ....       0.049 sec  (  0.7%)
   Potential                ....       0.491 sec  (  7.1%)
SMD gradient                ....       0.010 sec  (  0.2%)

Maximum memory used throughout the entire SCFGRAD-calculation: 31.9 MB

------------------------------------------------------------------------------
                              ORCA PROPERTY CALCULATIONS
------------------------------------------------------------------------------

GBWName                                 ... xtb_opt.gbw
Number of atoms                         ...     16
Number of basis functions               ...    169
Max core memory                         ...   1024 MB

Electric properties:
Dipole moment                           ... YES
Quadrupole moment                       ...  NO
Static polarizability (Dipole/Dipole)   ...  NO
Static polarizability (Dipole/Quad.)    ...  NO
Static polarizability (Quad./Quad.)     ...  NO
Static polarizability (Velocity)        ...  NO

Atomic electric properties:
Dipole moment                           ...  NO
Quadrupole moment                       ...  NO
Static polarizability                   ...  NO

Choice of electric origin               ... Center of mass
Position of electric origin             ...     0.004686     0.000069     0.009246

General magnetic properties:
Magnetizability                         ...  NO

EPR properties:
g-Tensor (aka g-matrix)                 ...  NO
Zero-Field splitting spin-orbit         ...  NO
Zero-field splitting spin-spin          ...  NO
Hyperfine couplings                     ...  NO (   0 nuclei)
Quadrupole couplings                    ...  NO (   0 nuclei)
Contact density                         ...  NO (   0 nuclei)

NMR properties:
Chemical shifts                         ...  NO (   0 nuclei)
Spin-rotation constants                 ...  NO (   0 nuclei)
Spin-spin couplings                     ...  NO (   0 nuclei,    0 pairs)

Choice of magnetic origin               ... GIAO
Position of magnetic origin             ...     0.000000     0.000000     0.000000

Properties with geometric perturbations:
SCF Hessian                             ...  NO
IR spectrum                             ...  NO
VCD spectrum                            ...  NO
X-ray spectroscopy properties:
SCF XES/XAS/RIXS spectra                ...  NO


-------------
DIPOLE MOMENT
-------------

Method             : SCF
Type of density    : Electron Density
Multiplicity       :   1
Irrep              :   0
Energy             :  -271.7011110922710486 Eh
Relativity type    : 
Basis              : AO
                                X                 Y                 Z
Electronic contribution:      2.764301608       0.003307047       0.713335674
Nuclear contribution   :     -3.563277652      -0.004263234      -1.160008862
                        -----------------------------------------
Total Dipole Moment    :     -0.798976044      -0.000956187      -0.446673188
                        -----------------------------------------
Magnitude (a.u.)       :      0.915358165
Magnitude (Debye)      :      2.326655552



--------------------
Rotational spectrum 
--------------------
 
Rotational constants in cm-1:             0.154968             0.149919             0.086514 
Rotational constants in MHz :          4645.838740          4494.452240          2593.610058 

Dipole components along the rotational axes: 
x,y,z [a.u.] :    -0.801174    -0.000042    -0.442719 
x,y,z [Debye]:    -2.036424    -0.000106    -1.125302 

 

Dipole moment calculation done in   0.0 sec 

Maximum memory used throughout the entire PROP-calculation: 10.2 MB

--------------------------------
SUGGESTED CITATIONS FOR THIS RUN
--------------------------------

Below you find a list of papers that are relevant to this ORCA run
We neither can nor want to force you to cite these papers, but we appreciate if you do
You receive ORCA, which is the product of decades of hard work by many enthusiastic individuals, for free
The only thing we kindly ask in return is that you cite our papers,
We deeply appreciate it, if you show your appreciation for ORCA by not just citing the generic ORCA reference.

Please note that relegating all ORCA citations to the supporting information does *not* help us.
SI sections are not indexed - citations you put there will not count into any citation statistics
But we need these citations in order to attract the funding resources that allow us to do what we are doing

Therefore, if you are a happy ORCA user, please consider citing a few of the papers listed below in the main body of your paper

In addition to the list printed below, the program has created the file xtb_opt.bibtex that contains the list in bibtex format
You can import this file easily into all common literature databanks and citation aid programs


List of essential papers. We consider these as the minimum necessary citations

  1. Neese,F.
     Software update: the ORCA program system, version 5.0
     WIRES Comput. Molec. Sci., 2022 12(1)e1606
     doi.org/10.1002/wcms.1606
  2. Grimme,S.; Hansen,A.; Ehlert,S.; Mewes,J.
     r2SCAN-3c: A 'Swiss army knife' composite electronic-structure method
     J. Chem. Phys., 2021 154 064103
     doi.org/10.1063/5.0040021

List of papers to cite with high priority. The work reported in these papers was absolutely
necessary for this run to complete.
Our perspective: the developers of density functionals and basis sets usually get cited in chemistry papers
Good! But without the algorithms to do something with them, the functionals or basis sets would not do anything.
Hence, in our opinion, the algorithm design and method developments papers are equally worthy of getting cited

  1. Neese,F.
     An improvement of the resolution of the identity approximation for the formation of the Coulomb matrix
     J. Comp. Chem., 2003 24(14)1740-1747
     doi.org/10.1002/jcc.10318
  2. Garcia-Rates,M.; Neese,F.
     Effect of the Solute Cavity on the Solvation Energy and its Derivatives within the Framework of the Gaussian Charge Scheme
     J. Comput. Chem., 2020 41 922-939
     doi.org/10.1002/jcc.26139
  3. Neese,F.
     The SHARK Integral Generation and Digestion System
     J. Comp. Chem., 2022  1-16
     doi.org/10.1002/jcc.26942
  4. Lehtola,S.; Steigemann,C.; Oliveira,M.; Marques,M.
     Recent developments in Libxc - A comprehensive library of functionals for density functional theory
     Software X, 2018 7 
     doi.org/10.1016/j.softx.2017.11.002
  5. Caldeweyher,E.; Bannwarth,C.; Grimme,S.
     Extension of the D3 dispersion coefficient model
     J. Chem. Phys., 2017 147 034112-XXXX
     doi.org/10.1063/1.4993215
  6. Caldeweyher,E.; Ehlert,S.; Hansen,A.; Neugebauer,H.; Spicher,S.; Bannwarth,C.; Grimme,S.
     A generally applicable atomic-charge dependent London dispersion correction
     J. Chem. Phys., 2019 150 154122-XXXX
     doi.org/10.1063/1.5090222
  7. Caldeweyher,E.; Mewes,J.; Ehlert,S.; Grimme,S.
     Extension and evaluation of the D4 London-dispersion model for periodic systems
     Phys. Chem. Chem. Phys., 2020 22(16)8499-8512
     doi.org/10.1039/D0CP00502A

List of suggested additional citations. These are papers that are important in the 'surrounding' of 
of this run, or papers that preceded the highly important papers. If you like your results we are grateful for a citation.

  1. Neese,F.
     The ORCA program system
     WIRES Comput. Molec. Sci., 2012 2(1)73-78
     doi.org/10.1002/wcms.81
  2. Neese,F.
     Software update: the ORCA program system, version 4.0
     WIRES Comput. Molec. Sci., 2018 8(1)1-6
     doi.org/10.1002/wcms.1327
  3. Neese,F.; Wennmohs,F.; Becker,U.; Riplinger,C.
     The ORCA quantum chemistry program package
     J. Chem. Phys., 2020 152 Art. No. L224108
     doi.org/10.1063/5.0004608

List of optional additional citations

  1. Neese,F.
     Approximate second-order SCF convergence for spin unrestricted wavefunctions
     Chem. Phys. Lett., 2000 325(1-3)93-98
     doi.org/10.1016/s0009-2614(00)00662-x

Timings for individual modules:

Sum of individual times          ...       15.526 sec (=   0.259 min)
Startup calculation              ...        1.986 sec (=   0.033 min)  12.8 %
SCF iterations                   ...        6.457 sec (=   0.108 min)  41.6 %
Property calculations            ...        0.108 sec (=   0.002 min)   0.7 %
SCF Gradient evaluation          ...        6.976 sec (=   0.116 min)  44.9 %
                             ****ORCA TERMINATED NORMALLY****
TOTAL RUN TIME: 0 days 0 hours 0 minutes 16 seconds 320 msec
  ------------------------------------------------------------------------
          * successful ORCA run, taking over control again...

         :::::::::::::::::::::::::::::::::::::::::::::::::::::
         ::                  ORCA SUMMARY                   ::
         :::::::::::::::::::::::::::::::::::::::::::::::::::::
         :: total energy            -271.696008250553 Eh    ::
         :: gradient norm              0.000394074093 Eh/a0 ::
         :: HOMO-LUMO gap              0.000000000000 eV    ::
         :::::::::::::::::::::::::::::::::::::::::::::::::::::

           -------------------------------------------------
          |                Property Printout                |
           -------------------------------------------------
           -------------------------------------------------
          |                Geometry Summary                 |
           -------------------------------------------------

      molecular mass/u    :       86.1324919
   center of mass at/Å    :        0.0024934       0.0000364       0.0048957
  moments of inertia/u·Å² :        0.1087776E+03   0.1124432E+03   0.1948513E+03
rotational constants/cm⁻¹ :        0.1549734E+00   0.1499213E+00   0.8651538E-01

 * 16 selected distances

     #   Z          #   Z                                           value/Å
     1   6 C        2   6 C                                       1.5296121
     2   6 C        3   6 C                                       1.5208408
     3   6 C        4   8 O                                       1.4401048
     4   8 O        5   6 C                                       1.4401011
     1   6 C        6   6 C                                       1.5296134 (max)
     5   6 C        6   6 C                                       1.5208489
     1   6 C        7   1 H                                       1.0951885
     1   6 C        8   1 H                                       1.0986190
     2   6 C        9   1 H                                       1.0975804
     2   6 C       10   1 H                                       1.0963025
     3   6 C       11   1 H                                       1.0940915 (min)
     3   6 C       12   1 H                                       1.1026656
     5   6 C       13   1 H                                       1.0940933
     5   6 C       14   1 H                                       1.1026645
     6   6 C       15   1 H                                       1.0975801
     6   6 C       16   1 H                                       1.0963016

 * 3 distinct bonds (by element types)

   Z      Z             #   av. dist./Å        max./Å        min./Å
   1 H    6 C          10     1.0975087     1.1026656     1.0940915
   6 C    6 C           4     1.5252288     1.5296134     1.5208408
   6 C    8 O           2     1.4401029     1.4401048     1.4401011


optimized geometry written to: xtbopt.coord


           -------------------------------------------------
          | TOTAL ENERGY             -271.696008250553 Eh   |
          | GRADIENT NORM               0.000394074093 Eh/α |
           -------------------------------------------------

------------------------------------------------------------------------
 * finished run on 2025/04/03 at 20:27:16.636     
------------------------------------------------------------------------
 total:
 * wall-time:     0 d,  0 h,  2 min, 50.912 sec
 *  cpu-time:     0 d,  0 h,  0 min,  0.819 sec
 * ratio c/w:     0.005 speedup
 SCF:
 * wall-time:     0 d,  0 h,  0 min, 24.299 sec
 *  cpu-time:     0 d,  0 h,  0 min,  0.391 sec
 * ratio c/w:     0.016 speedup
 ANC optimizer:
 * wall-time:     0 d,  0 h,  2 min, 26.587 sec
 *  cpu-time:     0 d,  0 h,  0 min,  0.411 sec
 * ratio c/w:     0.003 speedup

