41
 energy: -2932.482820212921 gnorm: 0.001824518420 xtb: 6.7.1 (edcfbbe)
C            1.27507424287683        0.71820796179970        2.96816736911110
C            2.73117757704467        0.43783367315151        2.69181030889532
O            3.11307014411070        0.76332168496642        1.30995607872043
P            2.64372999857607       -0.13076703979614        0.05477474778587
S            2.31697968391268       -2.02230264378582        0.38529939151435
O            3.78209484755844        0.22990392775444       -1.02463940418069
C            5.06850192117665       -0.49278456404696       -1.04774860250987
C            5.94790009833294       -0.15397586693551        0.13111643953101
S            1.02161806210583        1.00303476423713       -0.71582795764400
C           -0.02897161772013       -0.31211920457090       -1.45472552999351
S           -1.27069665055969       -1.05363877697467       -0.31956510856152
P           -2.87788641330333        0.30372982089903       -0.62905846683146
S           -3.44304186332414        0.56025081479651       -2.47258544394454
O           -2.44200144981269        1.70191444722327        0.03010730232860
C           -2.12608576584084        1.81391428118589        1.46496786834812
C           -1.48900207775170        3.16188160932247        1.67764501790143
O           -3.94023708138050       -0.27753602476236        0.42791088958924
C           -5.06916534841507       -1.14352641174145        0.04858931410319
C           -4.63385937377480       -2.57168577885479       -0.15834358166241
H            0.62351399076858        0.04957372170696        2.39810472932678
H            1.08614496939220        0.55179864283966        4.03393362864264
H            1.02077786331429        1.75481112368736        2.72949837258945
H            2.98681741909114       -0.61006588023182        2.87494119502489
H            3.38493453538718        1.07459313666264        3.29094271152052
H            4.85442382544366       -1.56460991855438       -1.10603954399681
H            5.51752892951865       -0.16867171475854       -1.98855388101197
H            5.53630155594019       -0.53256850175295        1.07117819009140
H            6.92525076219163       -0.62319905764845       -0.02472455995137
H            6.09545850538307        0.92670544007511        0.21485024568776
H            0.59935458668054       -1.13038327527361       -1.81332408985687
H           -0.54429966459665        0.13520641469982       -2.31095632338396
H           -3.06246585672635        1.71356252870020        2.02092208780970
H           -1.45047316495941        0.99702164751617        1.73968114014202
H           -2.16846771989967        3.96574472446263        1.38009565763018
H           -1.25868385595906        3.28144193117173        2.74065291834591
H           -0.55937855818692        3.25020107083265        1.10895308047639
H           -5.75520861245597       -1.04784805367099        0.89238026410007
H           -5.53759937427392       -0.72117312091062       -0.84494055543917
H           -5.52515479848252       -3.18556064182476       -0.32529931140351
H           -3.98403281736811       -2.67358099612943       -1.03242448523771
H           -4.11279572540313       -2.95507310032926        0.72380796733536
41
 energy: -2932.482818886622 gnorm: 0.001613334045 xtb: 6.7.1 (edcfbbe)
C            1.27513079191635        0.72016210801949        2.96753605420790
C            2.73114430302967        0.43850163222847        2.69107744877868
O            3.11341198556569        0.76417615181814        1.30953895825387
P            2.64549600160846       -0.12789957172425        0.05233394940659
S            2.30788083248886       -2.01710624604558        0.38467799307271
O            3.78526346175637        0.23147221098520       -1.02549271662646
C            5.06924401248164       -0.49346139884982       -1.04867019425683
C            5.94769241821915       -0.15543028843914        0.13083658778290
S            1.01396593487866        1.00109287538457       -0.70807215106552
C           -0.03018294784805       -0.31516182834274       -1.45299502613140
S           -1.27145874260952       -1.05798562068340       -0.31884670335054
P           -2.87573525857732        0.30340396092900       -0.63011790439816
S           -3.44463542084468        0.56325412756885       -2.47190705278717
O           -2.44075316860827        1.70184790205571        0.02960289621591
C           -2.12543544642890        1.81310360803972        1.46502950263354
C           -1.48955039861853        3.16150904879695        1.67837274054695
O           -3.93778118737281       -0.27751370241045        0.42663991339142
C           -5.06680252456786       -1.14291282259786        0.04800053986630
C           -4.63238724245760       -2.57145742386937       -0.15886400560779
H            0.62262983506943        0.05183852449237        2.39814407596582
H            1.08622146370371        0.55396703753876        4.03328235078125
H            1.02129204386296        1.75682986685730        2.72890317801016
H            2.98631238355696       -0.60949565482415        2.87464836553407
H            3.38523912936062        1.07479763261266        3.29037462524697
H            4.85274015969532       -1.56463390728558       -1.10628559481669
H            5.51916544757951       -0.17019696016953       -1.98911804407573
H            5.53493123594551       -0.53394843323379        1.07024254917203
H            6.92457815420655       -0.62522521570375       -0.02451366159439
H            6.09523799836782        0.92505553756774        0.21440791932152
H            0.59999111163410       -1.13123307988669       -1.81219621998708
H           -0.54426787853056        0.13414187391025       -2.30856977355893
H           -3.06192078362458        1.71128939158012        2.02037359823244
H           -1.44903702274813        0.99660500189225        1.73858170693088
H           -2.16922444549825        3.96498699189411        1.38037445937049
H           -1.26142967297527        3.28063867917817        2.74203910666515
H           -0.55875965601884        3.25101843524718        1.11140092831815
H           -5.75288822029764       -1.04794826996612        0.89176254943316
H           -5.53648694715706       -0.72127575652054       -0.84523779192353
H           -5.52368822342049       -3.18512553372179       -0.32620438244798
H           -3.98236393714706       -2.67298564030928       -1.03279726683449
H           -4.11162093508224       -2.95510615085627        0.72331992072261
41
 energy: -2932.482830447512 gnorm: 0.000768643486 xtb: 6.7.1 (edcfbbe)
C            1.27483884671573        0.72147161280756        2.96786754053979
C            2.73065214692676        0.43907402553475        2.69121646208204
O            3.11191834964675        0.76371258173482        1.30934044100260
P            2.64353486175030       -0.12939070000295        0.05310790652552
S            2.31147501091626       -2.01956970753777        0.38605772162783
O            3.78245251673748        0.23055770587997       -1.02494516190996
C            5.06678951717636       -0.49379619257149       -1.04887326080476
C            5.94624723618009       -0.15618495593374        0.13009047929181
S            1.01775035428075        1.00383735139411       -0.71055000157982
C           -0.02703206339349       -0.31353788299396       -1.45300572119079
S           -1.27055697080678       -1.05599303613907       -0.32125263899111
P           -2.87662046745119        0.30321349768763       -0.62978693890344
S           -3.44285948616362        0.56213723043390       -2.47256656524464
O           -2.44040963489141        1.70146772668115        0.02976549934040
C           -2.12482971760562        1.81239411927899        1.46532568632720
C           -1.48982409015474        3.16108250085726        1.67922129260863
O           -3.93862844150665       -0.27725639951811        0.42695940461992
C           -5.06687914389179       -1.14294158413204        0.04829603479645
C           -4.63172366494350       -2.57132580516926       -0.15890818994562
H            0.62197421472340        0.05325562318419        2.39880537410879
H            1.08617209605214        0.55579610606902        4.03372495398409
H            1.02151516191936        1.75815430810322        2.72881069188016
H            2.98554472741016       -0.60893984449435        2.87505855314250
H            3.38535652010746        1.07548716951218        3.28975321910523
H            4.85071450704207       -1.56501458202430       -1.10643041743501
H            5.51667154468605       -0.17071119041959       -1.98938378427471
H            5.53388569224024       -0.53486296537841        1.06956393646119
H            6.92302553156385       -0.62602798076295       -0.02563762240145
H            6.09390713461457        0.92422829375669        0.21378683474268
H            0.60267122902078       -1.13024611372905       -1.81128096471014
H           -0.54127411916192        0.13431197309527       -2.30916627812011
H           -3.06130031493231        1.70993385282335        2.02050881839667
H           -1.44804543681432        0.99610307727808        1.73837660682979
H           -2.16966617468920        3.96421481053346        1.38068924629932
H           -1.26288313833578        3.28029381236674        2.74315951445034
H           -0.55851341253088        3.25118523792767        1.11318194985186
H           -5.75311370712201       -1.04839076227434        0.89195535532266
H           -5.53661918561333       -0.72147597933448       -0.84501258755567
H           -5.52274453678225       -3.18521716693891       -0.32674936470932
H           -3.98134213794236       -2.67241491598150       -1.03264068142056
H           -4.11105677381966       -2.95505641279665        0.72329248599686
41
 energy: -2932.482829202299 gnorm: 0.001360098583 xtb: 6.7.1 (edcfbbe)
C            1.27520763074015        0.72392635990393        2.96907181930265
C            2.73094172105512        0.44067714250127        2.69293619287804
O            3.11277852261580        0.76451644499758        1.31132339736352
P            2.64299414765579       -0.12910399683909        0.05611007896682
S            2.31449693953462       -2.02025876913546        0.38698867268323
O            3.78026152426509        0.23037974759142       -1.02337649898331
C            5.06428448855855       -0.49461910684208       -1.04924491143011
C            5.94503996821585       -0.15770970653040        0.12912640037606
S            1.01965414865685        1.00198167598088       -0.71388231255700
C           -0.02992198821457       -0.31213572135515       -1.45518694922534
S           -1.27031771597245       -1.05624055515779       -0.32099391910344
P           -2.87567468091135        0.30328732823075       -0.63100964270293
S           -3.44213057866624        0.56221454973490       -2.47386325344713
O           -2.43863000232188        1.70112754955753        0.02917977485685
C           -2.12375847378297        1.81123013838097        1.46517763941970
C           -1.49034148756734        3.16032675109660        1.68074439780804
O           -3.93746258535454       -0.27711413629285        0.42579682984365
C           -5.06555297473500       -1.14291262427655        0.04794045291592
C           -4.63012269613167       -2.57126458941261       -0.15951115502005
H            0.62230280264672        0.05587953294212        2.39986133020272
H            1.08595558358543        0.55890563782909        4.03494498404983
H            1.02271452585072        1.76064681960009        2.72923601980959
H            2.98472475966909       -0.60760225150871        2.87680982985718
H            3.38606160839584        1.07669702581475        3.29139575488259
H            4.84802774846323       -1.56585309730121       -1.10708290835609
H            5.51347550024709       -0.17152024478285       -1.99014997586805
H            5.53315965881845       -0.53650751951410        1.06882655066766
H            6.92161049373338       -0.62782681149856       -0.02734682312461
H            6.09317324987640        0.92267370171385        0.21320059511772
H            0.60018982749809       -1.12927145162778       -1.81210721186120
H           -0.54386967764194        0.13451465834584       -2.31220077734021
H           -3.06032676650849        1.70760296576660        2.01999202795127
H           -1.44638837621796        0.99536098043541        1.73795381614876
H           -2.17045782802676        3.96287853725890        1.38123732917737
H           -1.26521663692915        3.27959839434554        2.74503969861425
H           -0.55828103481174        3.25140418306953        1.11626440679916
H           -5.75148786736423       -1.04837910368268        0.89190252210745
H           -5.53570804641472       -0.72151888895125       -0.84519902665635
H           -5.52109554934665       -3.18512537037451       -0.32769523559560
H           -3.97950512832463       -2.67222324567658       -1.03310285359652
H           -4.10961039037763       -2.95509254728883        0.72274746827826
41
 energy: -2932.482835619456 gnorm: 0.000310586513 xtb: 6.7.1 (edcfbbe)
C            1.27517920627564        0.72541453782135        2.96921541645639
C            2.73062599935468        0.44139153040857        2.69239851782269
O            3.11220347649350        0.76481425762049        1.31052558021527
P            2.64256843629039       -0.12862455814866        0.05511221868859
S            2.31199310297293       -2.01914172655545        0.38769455906892
O            3.78045633185039        0.23021716626760       -1.02389499613294
C            5.06390842773186       -0.49541711054266       -1.04967236148415
C            5.94472641950239       -0.15886967758102        0.12874762599023
S            1.01729575441004        1.00348588191942       -0.71119897232258
C           -0.02790857460717       -0.31290751727256       -1.45472781531493
S           -1.27012063287412       -1.05646689115786       -0.32235205913694
P           -2.87559283512412        0.30334475843314       -0.63090000183524
S           -3.44182953737632        0.56254968566305       -2.47370484876976
O           -2.43828036640531        1.70113781038327        0.02929716488895
C           -2.12355829218260        1.81070368233332        1.46540673226383
C           -1.49083290781656        3.16000303596086        1.68162696948816
O           -3.93762202932931       -0.27684028536628        0.42566008701845
C           -5.06528126355722       -1.14299602298448        0.04777578381637
C           -4.62937123846626       -2.57121624642821       -0.15978253948550
H            0.62183395340079        0.05743041064533        2.40044190303707
H            1.08616195465057        0.56080962268397        4.03519862193760
H            1.02308841905326        1.76219022738381        2.72917822410478
H            2.98405441242327       -0.60690610765055        2.87671862456971
H            3.38610894110414        1.07723171251304        3.29068168486887
H            4.84692319207069       -1.56651185619781       -1.10754583069752
H            5.51302501067396       -0.17239155112323       -1.99064146745586
H            5.53267963389790       -0.53761298955195        1.06841351911364
H            6.92114927904009       -0.62923914897883       -0.02782190591436
H            6.09308356957073        0.92148957916699        0.21289917056249
H            0.60267813414878       -1.12948445796357       -1.81220079006530
H           -0.54171626555582        0.13441604347469       -2.31152206578412
H           -3.06010743580016        1.70622158212114        2.02007343161335
H           -1.44576600887558        0.99501872131202        1.73766316369354
H           -2.17109127427852        3.96228720509785        1.38172679464515
H           -1.26667096571443        3.27914394012090        2.74613642305734
H           -0.55833796785390        3.25164315274966        1.11796021397916
H           -5.75124328830957       -1.04880491358549        0.89175025466342
H           -5.53566500197436       -0.72180090762534       -0.84534553727652
H           -5.52011019401571       -3.18532372972164       -0.32827664416216
H           -3.97853745144405       -2.67182649631209       -1.03325775546110
H           -4.10889088030893       -2.95503008592174        0.72250402269242
41
 energy: -2932.482838224890 gnorm: 0.000373602395 xtb: 6.7.1 (edcfbbe)
C            1.27528496137986        0.72894122864344        2.96977063786246
C            2.73037302584835        0.44333535471112        2.69272396513792
O            3.11132547482248        0.76577802064814        1.31039426712275
P            2.64187648732564       -0.12841833079870        0.05532258243647
S            2.30964830823268       -2.01834755117824        0.38998308940731
O            3.77951828029049        0.22986326416509       -1.02391577195638
C            5.06218035063608       -0.49677406827470       -1.05057258265305
C            5.94387556860085       -0.16149583536479        0.12752420541018
S            1.01664388145828        1.00448023496277       -0.70937133937430
C           -0.02696619021798       -0.31260446550201       -1.45413592501174
S           -1.27004838898294       -1.05781212940521       -0.32384659148603
P           -2.87462912877674        0.30335693561031       -0.63160460157430
S           -3.44159662239871        0.56436316129610       -2.47391284545931
O           -2.43686052995926        1.70081536840570        0.02914008303079
C           -2.12300098315787        1.80926613647207        1.46560000771151
C           -1.49195028536779        3.15908850090364        1.68345377799938
O           -3.93681758518276       -0.27652268642519        0.42474658548163
C           -5.06401398664691       -1.14320767628260        0.04712111282845
C           -4.62756196060559       -2.57125195104321       -0.16058971971932
H            0.62112743042669        0.06106137754390        2.40179041331357
H            1.08661667118484        0.56528784996585        4.03594107604593
H            1.02400755055347        1.76578540369996        2.72913179054139
H            2.98311542603115       -0.60506869877942        2.87743424247333
H            3.38671330932593        1.07900055153713        3.29027994900021
H            4.84418815345538       -1.56765899693452       -1.10854101147497
H            5.51117742908221       -0.17398372894656       -1.99165876921846
H            5.53185395655961       -0.54024749859708        1.06721141174449
H            6.91988489527653       -0.63251493060818       -0.02957398738154
H            6.09294185461356        0.91873197703351        0.21199283971742
H            0.60419097292735       -1.12855332619189       -1.81202295637511
H           -0.54039304301539        0.13497064074972       -2.31101169876315
H           -3.05966622691574        1.70304135498330        2.01971681080106
H           -1.44438699072926        0.99403478087408        1.73709580557056
H           -2.17253542057245        3.96082197912173        1.38280968881190
H           -1.26993445596105        3.27787581260014        2.74846805723134
H           -0.55847918772669        3.25209836408673        1.12157042935274
H           -5.74986064405411       -1.04961093609891        0.89124300392994
H           -5.53507669639065       -0.72239700613253       -0.84583290240579
H           -5.51796542995884       -3.18572873826963       -0.32948867222690
H           -3.97646186592615       -2.67127343707366       -1.03392204172163
H           -4.10709666173802       -2.95502300568166        0.72172300468228
41
 energy: -2932.482838224890 gnorm: 0.000373602395 xtb: 6.7.1 (edcfbbe)
C            1.27528496137986        0.72894122864344        2.96977063786246
C            2.73037302584835        0.44333535471112        2.69272396513792
O            3.11132547482248        0.76577802064814        1.31039426712275
P            2.64187648732564       -0.12841833079870        0.05532258243647
S            2.30964830823268       -2.01834755117824        0.38998308940731
O            3.77951828029049        0.22986326416509       -1.02391577195638
C            5.06218035063608       -0.49677406827470       -1.05057258265305
C            5.94387556860085       -0.16149583536479        0.12752420541018
S            1.01664388145828        1.00448023496277       -0.70937133937430
C           -0.02696619021798       -0.31260446550201       -1.45413592501174
S           -1.27004838898294       -1.05781212940521       -0.32384659148603
P           -2.87462912877674        0.30335693561031       -0.63160460157430
S           -3.44159662239871        0.56436316129610       -2.47391284545931
O           -2.43686052995926        1.70081536840570        0.02914008303079
C           -2.12300098315787        1.80926613647207        1.46560000771151
C           -1.49195028536779        3.15908850090364        1.68345377799938
O           -3.93681758518276       -0.27652268642519        0.42474658548163
C           -5.06401398664691       -1.14320767628260        0.04712111282845
C           -4.62756196060559       -2.57125195104321       -0.16058971971932
H            0.62112743042669        0.06106137754390        2.40179041331357
H            1.08661667118484        0.56528784996585        4.03594107604593
H            1.02400755055347        1.76578540369996        2.72913179054139
H            2.98311542603115       -0.60506869877942        2.87743424247333
H            3.38671330932593        1.07900055153713        3.29027994900021
H            4.84418815345538       -1.56765899693452       -1.10854101147497
H            5.51117742908221       -0.17398372894656       -1.99165876921846
H            5.53185395655961       -0.54024749859708        1.06721141174449
H            6.91988489527653       -0.63251493060818       -0.02957398738154
H            6.09294185461356        0.91873197703351        0.21199283971742
H            0.60419097292735       -1.12855332619189       -1.81202295637511
H           -0.54039304301539        0.13497064074972       -2.31101169876315
H           -3.05966622691574        1.70304135498330        2.01971681080106
H           -1.44438699072926        0.99403478087408        1.73709580557056
H           -2.17253542057245        3.96082197912173        1.38280968881190
H           -1.26993445596105        3.27787581260014        2.74846805723134
H           -0.55847918772669        3.25209836408673        1.12157042935274
H           -5.74986064405411       -1.04961093609891        0.89124300392994
H           -5.53507669639065       -0.72239700613253       -0.84583290240579
H           -5.51796542995884       -3.18572873826963       -0.32948867222690
H           -3.97646186592615       -2.67127343707366       -1.03392204172163
H           -4.10709666173802       -2.95502300568166        0.72172300468228
