      -----------------------------------------------------------      
     |                   =====================                   |     
     |                           x T B                           |     
     |                   =====================                   |     
     |                         S. Grimme                         |     
     |          Mulliken Center for Theoretical Chemistry        |     
     |                    University of Bonn                     |     
      -----------------------------------------------------------      

   * xtb version 6.7.1 (edcfbbe) compiled by 'albert@albert-system' on 2024-07-22

   xtb is free software: you can redistribute it and/or modify it under
   the terms of the GNU Lesser General Public License as published by
   the Free Software Foundation, either version 3 of the License, or
   (at your option) any later version.
   
   xtb is distributed in the hope that it will be useful,
   but WITHOUT ANY WARRANTY; without even the implied warranty of
   MERCHANTABILITY or FITNESS FOR A PARTICULAR PURPOSE.  See the
   GNU Lesser General Public License for more details.
   
   Cite this work as:
   * C. Bannwarth, E. Caldeweyher, S. Ehlert, A. Hansen, P. Pracht,
     J. Seibert, S. Spicher, S. Grimme, WIREs Comput. Mol. Sci., 2020, 11,
     e01493. DOI: 10.1002/wcms.1493
   
   for GFN2-xTB:
   * C. Bannwarth, S. Ehlert and S. Grimme., J. Chem. Theory Comput., 2019,
     15, 1652-1671. DOI: 10.1021/acs.jctc.8b01176
   for GFN1-xTB:
   * S. Grimme, C. Bannwarth, P. Shushkov, J. Chem. Theory Comput., 2017,
     13, 1989-2009. DOI: 10.1021/acs.jctc.7b00118
   for GFN0-xTB:
   * P. Pracht, E. Caldeweyher, S. Ehlert, S. Grimme, ChemRxiv, 2019, preprint.
     DOI: 10.26434/chemrxiv.8326202.v1
   for GFN-FF:
   * S. Spicher and S. Grimme, Angew. Chem. Int. Ed., 2020, 59, 15665-15673.
     DOI: 10.1002/anie.202004239
   
   for ALPB and GBSA implicit solvation:
   * S. Ehlert, M. Stahn, S. Spicher, S. Grimme, J. Chem. Theory Comput.,
     2021, 17, 4250-4261. DOI: 10.1021/acs.jctc.1c00471
   
   for ddCOSMO and CPCM-X implicit solvation:
   * M. Stahn, S. Ehlert, S. Grimme, J. Phys. Chem. A,
     2023, XX, XXXX-XXXX. DOI: 10.1021/acs.jpca.3c04382
   
   for DFT-D4:
   * E. Caldeweyher, C. Bannwarth and S. Grimme, J. Chem. Phys., 2017,
     147, 034112. DOI: 10.1063/1.4993215
   * E. Caldeweyher, S. Ehlert, A. Hansen, H. Neugebauer, S. Spicher,
     C. Bannwarth and S. Grimme, J. Chem. Phys., 2019, 150, 154122.
     DOI: 10.1063/1.5090222
   * E. Caldeweyher, J.-M. Mewes, S. Ehlert and S. Grimme, Phys. Chem. Chem. Phys.
     2020, 22, 8499-8512. DOI: 10.1039/D0CP00502A
   
   for sTDA-xTB:
   * S. Grimme and C. Bannwarth, J. Chem. Phys., 2016, 145, 054103.
     DOI: 10.1063/1.4959605
   
   in the mass-spec context:
   * V. Asgeirsson, C. Bauer and S. Grimme, Chem. Sci., 2017, 8, 4879.
     DOI: 10.1039/c7sc00601b
   * J. Koopman and S. Grimme, ACS Omega 2019, 4, 12, 15120-15133.
     DOI: 10.1021/acsomega.9b02011
   
   for metadynamics refer to:
   * S. Grimme, J. Chem. Theory Comput., 2019, 155, 2847-2862
     DOI: 10.1021/acs.jctc.9b00143
   
   for SPH calculations refer to:
   * S. Spicher and S. Grimme, J. Chem. Theory Comput., 2021, 17, 1701-1714
     DOI: 10.1021/acs.jctc.0c01306
   
   for ONIOM refer to:
   * C. Plett, A. Katbashev, S. Ehlert, S. Grimme, M. Bursch,
     Phys. Chem. Chem. Phys., 2023, 25, 17860-17868. DOI: 10.1039/D3CP02178E
   
   for DIPRO refer to:
   * J. Kohn, N. Gildemeister, S. Grimme, D. Fazzi, A. Hansen,
     J. Chem. Phys., 2023, just accepted.
   
   for PTB refer to:
   * S. Grimme, M. Mueller, A. Hansen, J. Chem. Phys., 2023, 158, 124111.
     DOI: 10.1063/5.0137838
   
   with help from (in alphabetical order)
   P. Atkinson, C. Bannwarth, F. Bohle, G. Brandenburg, E. Caldeweyher
   M. Checinski, S. Dohm, S. Ehlert, S. Ehrlich, I. Gerasimov, C. Hölzer
   A. Katbashev, J. Kohn, J. Koopman, C. Lavigne, S. Lehtola, F. März, M. Müller,
   F. Musil, H. Neugebauer, J. Pisarek, C. Plett, P. Pracht, F. Pultar,
   J. Seibert, P. Shushkov, S. Spicher, M. Stahn, M. Steiner, T. Strunk,
   J. Stückrath, T. Rose, and J. Unsleber
   
 * started run on 2025/04/03 at 19:42:30.718     
   ID    Z sym.   atoms
    1    6 C      1, 2, 4, 6, 8
    2    1 H      3, 5, 7, 9, 15-20
    3    8 O      10-14

           -------------------------------------------------
          |                Calculation Setup                |
           -------------------------------------------------

          program call               : /srv/scratch/z5358697/.xtb/bin/xtb solv.coord --gfn2 --sp --chrg 0 --norestart --parallel 1 --alpb water reference -I xtb_sp-xcontrol-inp
          hostname                   : k155
          coordinate file            : solv.coord
          omp threads                :                     1


           -------------------------------------------------
          |                 G F N 2 - x T B                 |
           -------------------------------------------------

        Reference                      10.1021/acs.jctc.8b01176
      * Hamiltonian:
        H0-scaling (s, p, d)           1.850000    2.230000    2.230000
        zeta-weighting                 0.500000
      * Dispersion:
        s8                             2.700000
        a1                             0.520000
        a2                             5.000000
        s9                             5.000000
      * Repulsion:
        kExp                           1.500000    1.000000
        rExp                           1.000000
      * Coulomb:
        alpha                          2.000000
        third order                    shell-resolved
        anisotropic                    true
        a3                             3.000000
        a5                             4.000000
        cn-shift                       1.200000
        cn-exp                         4.000000
        max-rad                        5.000000

      * Solvation model:               ALPB
        Solvent                        water
        Parameter file                 internal GFN2-xTB/ALPB
        Dielectric constant                8.0200E+01
        Reference state                gsolv=reference [X=1]
        Free energy shift                  2.8945E-03 Eh       1.8164E+00 kcal/mol
        Temperature                        2.9815E+02 K
        Density                            1.0000E+00 kg/L
        Solvent mass                       1.8000E+01 g/mol
        Interaction kernel             P16
        Born radius scaling (c1)           1.4744E+00
        Born radii integrator          GBOBC
        Born offset                        0.0000E+00 a0       0.0000E+00 AA
        H-bond correction              true
        Ion screening                  false
        Surface tension                    1.0000E-05 Eh       1.5569E+01 dyn/cm
        Grid points                               974 per atom

          ...................................................
          :                      SETUP                      :
          :.................................................:
          :  # basis functions                  50          :
          :  # atomic orbitals                  50          :
          :  # shells                           30          :
          :  # electrons                        60          :
          :  max. iterations                   250          :
          :  Hamiltonian                  GFN2-xTB          :
          :  restarted?                      false          :
          :  GBSA solvation                   true          :
          :  PC potential                    false          :
          :  electronic temp.          300.0000000     K    :
          :  accuracy                    1.0000000          :
          :  -> integral cutoff          0.2500000E+02      :
          :  -> integral neglect         0.1000000E-07      :
          :  -> SCF convergence          0.1000000E-05 Eh   :
          :  -> wf. convergence          0.1000000E-03 e    :
          :  Broyden damping             0.4000000          :
          :  net charge                          0          :
          :  unpaired electrons                  0          :
          ...................................................

 iter      E             dE          RMSdq      gap      omega  full diag
   1    -36.3785588 -0.363786E+02  0.487E+00   10.68       0.0  T
   2    -36.4080483 -0.294895E-01  0.264E+00   10.53       1.0  T
   3    -36.4097302 -0.168190E-02  0.617E-01   10.55       1.0  T
   4    -36.4100833 -0.353039E-03  0.179E-01   10.55       1.0  T
   5    -36.4101299 -0.466032E-04  0.734E-02   10.57       1.0  T
   6    -36.4101444 -0.145455E-04  0.212E-02   10.57       1.1  T
   7    -36.4101451 -0.664242E-06  0.549E-03   10.57       4.1  T
   8    -36.4101453 -0.167805E-06  0.208E-03   10.57      10.8  T
   9    -36.4101453 -0.603847E-08  0.732E-04   10.57      30.6  T
  10    -36.4101453 -0.224294E-08  0.239E-04   10.57      93.5  T

   *** convergence criteria satisfied after 10 iterations ***

         #    Occupation            Energy/Eh            Energy/eV
      -------------------------------------------------------------
         1        2.0000           -0.7265552             -19.7706
       ...           ...                  ...                  ...
        24        2.0000           -0.4767787             -12.9738
        25        2.0000           -0.4605504             -12.5322
        26        2.0000           -0.4493473             -12.2274
        27        2.0000           -0.4286917             -11.6653
        28        2.0000           -0.4250724             -11.5668
        29        2.0000           -0.4211619             -11.4604
        30        2.0000           -0.4110988             -11.1866 (HOMO)
        31                         -0.0226056              -0.6151 (LUMO)
        32                          0.0193638               0.5269
        33                          0.0280297               0.7627
        34                          0.0443495               1.2068
        35                          0.0602301               1.6389
       ...                                ...                  ...
        50                          0.2867534               7.8030
      -------------------------------------------------------------
                  HL-Gap            0.3884932 Eh           10.5714 eV
             Fermi-level           -0.2168522 Eh           -5.9008 eV

 SCC (total)                   0 d,  0 h,  0 min,  0.028 sec
 SCC setup                      ...        0 min,  0.001 sec (  4.238%)
 Dispersion                     ...        0 min,  0.000 sec (  0.368%)
 classical contributions        ...        0 min,  0.000 sec (  0.075%)
 integral evaluation            ...        0 min,  0.002 sec (  6.992%)
 iterations                     ...        0 min,  0.019 sec ( 69.076%)
 molecular gradient             ...        0 min,  0.005 sec ( 18.782%)
 printout                       ...        0 min,  0.000 sec (  0.425%)

         :::::::::::::::::::::::::::::::::::::::::::::::::::::
         ::                     SUMMARY                     ::
         :::::::::::::::::::::::::::::::::::::::::::::::::::::
         :: total energy             -36.157372728320 Eh    ::
         :: total w/o Gsasa/hb       -36.142897482850 Eh    ::
         :: gradient norm              0.000064762924 Eh/a0 ::
         :: HOMO-LUMO gap             10.571437874815 eV    ::
         ::.................................................::
         :: SCC energy               -36.410068044668 Eh    ::
         :: -> isotropic ES            0.140900257099 Eh    ::
         :: -> anisotropic ES         -0.008533921216 Eh    ::
         :: -> anisotropic XC         -0.008135975912 Eh    ::
         :: -> dispersion             -0.014981257953 Eh    ::
         :: -> Gsolv                  -0.029055065265 Eh    ::
         ::    -> Gelec               -0.014579819795 Eh    ::
         ::    -> Gsasa                0.004164989560 Eh    ::
         ::    -> Ghb                 -0.021534784190 Eh    ::
         ::    -> Gshift               0.002894549160 Eh    ::
         :: repulsion energy           0.252695316348 Eh    ::
         :: add. restraining           0.000000000000 Eh    ::
         :: total charge               0.000000000000 e     ::
         :::::::::::::::::::::::::::::::::::::::::::::::::::::

           -------------------------------------------------
          |                Property Printout                |
           -------------------------------------------------

    * Orbital Energies and Occupations

         #    Occupation            Energy/Eh            Energy/eV
      -------------------------------------------------------------
         1        2.0000           -0.7265552             -19.7706
       ...           ...                  ...                  ...
        18        2.0000           -0.5312226             -14.4553
        19        2.0000           -0.5286609             -14.3856
        20        2.0000           -0.5188739             -14.1193
        21        2.0000           -0.5114578             -13.9175
        22        2.0000           -0.5021307             -13.6637
        23        2.0000           -0.4888801             -13.3031
        24        2.0000           -0.4767787             -12.9738
        25        2.0000           -0.4605504             -12.5322
        26        2.0000           -0.4493473             -12.2274
        27        2.0000           -0.4286917             -11.6653
        28        2.0000           -0.4250724             -11.5668
        29        2.0000           -0.4211619             -11.4604
        30        2.0000           -0.4110988             -11.1866 (HOMO)
        31                         -0.0226056              -0.6151 (LUMO)
        32                          0.0193638               0.5269
        33                          0.0280297               0.7627
        34                          0.0443495               1.2068
        35                          0.0602301               1.6389
        36                          0.0683449               1.8598
        37                          0.0925365               2.5180
        38                          0.1096532               2.9838
        39                          0.1113872               3.0310
        40                          0.1386188               3.7720
        41                          0.1565234               4.2592
       ...                                ...                  ...
        50                          0.2867534               7.8030
      -------------------------------------------------------------
                  HL-Gap            0.3884932 Eh           10.5714 eV
             Fermi-level           -0.2168522 Eh           -5.9008 eV

     #   Z          covCN         q      C6AA      α(0)
     1   6 C        3.704     0.051    19.869     6.373
     2   6 C        3.726     0.093    19.134     6.246
     3   1 H        0.923     0.034     2.532     2.489
     4   6 C        3.731     0.104    18.960     6.216
     5   1 H        0.923     0.040     2.443     2.444
     6   6 C        3.727     0.090    19.189     6.254
     7   1 H        0.923     0.030     2.580     2.512
     8   6 C        3.631     0.240    17.230     5.976
     9   1 H        0.923     0.041     2.440     2.443
    10   8 O        1.701    -0.347    19.835     6.013
    11   8 O        1.655    -0.507    23.049     6.481
    12   8 O        1.656    -0.501    22.911     6.462
    13   8 O        1.656    -0.505    23.009     6.475
    14   8 O        1.656    -0.504    22.979     6.471
    15   1 H        0.925     0.082     1.962     2.190
    16   1 H        0.924     0.062     2.180     2.309
    17   1 H        0.804     0.379     0.526     1.139
    18   1 H        0.804     0.378     0.528     1.141
    19   1 H        0.804     0.370     0.544     1.159
    20   1 H        0.805     0.373     0.537     1.151

 Mol. C6AA /au·bohr⁶  :       3285.951213
 Mol. C8AA /au·bohr⁸  :      69973.851982
 Mol. α(0) /au        :         81.943974


Wiberg/Mayer (AO) data.
largest (>0.10) Wiberg bond orders for each atom

 ---------------------------------------------------------------------------
     #   Z sym  total        # sym  WBO       # sym  WBO       # sym  WBO
 ---------------------------------------------------------------------------
     1   6 C    3.933 --     2 C    0.975    16 H    0.968    15 H    0.967
                            10 O    0.962
     2   6 C    3.960 --    14 O    0.998     1 C    0.975     4 C    0.970
                             3 H    0.959
     3   1 H    0.999 --     2 C    0.959
     4   6 C    3.961 --    13 O    0.996     6 C    0.972     2 C    0.970
                             5 H    0.956
     5   1 H    0.998 --     4 C    0.956
     6   6 C    3.962 --    12 O    1.002     4 C    0.972     7 H    0.958
                             8 C    0.952
     7   1 H    0.999 --     6 C    0.958
     8   6 C    3.935 --    11 O    0.993    10 O    0.992     6 C    0.952
                             9 H    0.949
     9   1 H    0.998 --     8 C    0.949
    10   8 O    2.076 --     8 C    0.992     1 C    0.962
    11   8 O    1.923 --     8 C    0.993    17 H    0.835
    12   8 O    1.922 --     6 C    1.002    18 H    0.840
    13   8 O    1.918 --     4 C    0.996    19 H    0.846
    14   8 O    1.919 --     2 C    0.998    20 H    0.846
    15   1 H    0.993 --     1 C    0.967
    16   1 H    0.996 --     1 C    0.968
    17   1 H    0.857 --    11 O    0.835
    18   1 H    0.857 --    12 O    0.840
    19   1 H    0.863 --    13 O    0.846
    20   1 H    0.860 --    14 O    0.846
 ---------------------------------------------------------------------------

Topologies differ in total number of bonds
Writing topology from bond orders to xtbtopo.mol

molecular dipole:
                 x           y           z       tot (Debye)
 q only:        1.096      -0.301       0.030
   full:        1.272      -0.322      -0.100       3.345
molecular quadrupole (traceless):
                xx          xy          yy          xz          yz          zz
 q only:        4.619       7.885      -0.874      -1.555      -1.891      -3.745
  q+dip:        3.856       8.580      -2.107      -2.165      -2.180      -1.748
   full:        4.610       8.974      -1.664      -1.939      -2.402      -2.945


           -------------------------------------------------
          | TOTAL ENERGY              -36.157372728320 Eh   |
          | GRADIENT NORM               0.000064762924 Eh/α |
          | HOMO-LUMO GAP              10.571437874815 eV   |
           -------------------------------------------------

------------------------------------------------------------------------
 * finished run on 2025/04/03 at 19:42:30.779     
------------------------------------------------------------------------
 total:
 * wall-time:     0 d,  0 h,  0 min,  0.061 sec
 *  cpu-time:     0 d,  0 h,  0 min,  0.023 sec
 * ratio c/w:     0.385 speedup
 SCF:
 * wall-time:     0 d,  0 h,  0 min,  0.028 sec
 *  cpu-time:     0 d,  0 h,  0 min,  0.015 sec
 * ratio c/w:     0.541 speedup

