41
 energy: -2932.481684890073 gnorm: 0.000757709743 xtb: 6.7.1 (edcfbbe)
C            4.39248968827232       -1.35820130675636       -2.47186290019273
C            4.58494685522147       -1.49338476163603       -0.98216802242054
O            3.30357537053749       -1.57650812980669       -0.26682622673121
P            2.39664451165540       -0.28860151845803        0.06603087169579
S            3.29872288304518        1.43060045182283        0.22526149206920
O            1.58429985290438       -0.79635312334367        1.35651267160258
C            2.07619354934814       -0.54743548138585        2.72165267879642
C            3.29247041128317       -1.37878506041524        3.04760370300219
S            0.91256400677973       -0.44475736454311       -1.43961372957562
C            0.11298449021439        1.20078727674210       -1.30233921519427
S           -0.95172230034514        1.50185776473302        0.16046441258016
P           -2.75358839534299        0.47107808758703       -0.36838429807488
S           -2.91724514402426        0.01088026474852       -2.24945719135011
O           -3.92362014660630        1.45772307162543        0.11034968966895
C           -4.07634805233701        1.81833594265415        1.53513696651876
C           -4.80906729853190        3.13180064065727        1.59080628429791
O           -2.90294009915716       -0.69990794534230        0.72562377696071
C           -1.87381666313395       -1.72284191262560        0.95711913357645
C           -2.01313379345802       -2.88725017261877        0.00841842619230
H            3.76535942181978       -2.16525974572930       -2.86136810104142
H            3.94336547861453       -0.39653349843028       -2.73537604273744
H            5.37268334817189       -1.42014307951599       -2.95564407131173
H            5.15760829280135       -0.66033650726816       -0.56402710350388
H            5.08030581448819       -2.43152947425274       -0.72409973547685
H            2.27056084134812        0.52464581859694        2.82362883757915
H            1.22362895107024       -0.81625556814565        3.34851113397704
H            4.15957577513190       -1.07967180053411        2.45093098678079
H            3.54056304251210       -1.23168994531321        4.10384560741545
H            3.09582234311358       -2.44210267395237        2.88419860656944
H           -0.47791811384083        1.32027619378143       -2.21416913963628
H            0.88749628186059        1.97324140711971       -1.26393817714861
H           -4.63425441606567        1.01124374431535        2.01648552117049
H           -3.08776984126506        1.89407561303119        2.00087365578509
H           -4.23358068524657        3.92185584640726        1.10098959142950
H           -5.78986378770961        3.05308805958382        1.11393474188019
H           -4.95634777472649        3.40883321245651        2.63905288497090
H           -0.88882282628265       -1.25066590164299        0.88578284114623
H           -2.03991700183825       -2.02683483085615        1.99300940385175
H           -3.01475580334021       -3.32308176023366        0.06658238260217
H           -1.81022435283327       -2.59199657981270       -1.02375435683665
H           -1.28662842503093       -3.65446394033770        0.29630485438092
41
 energy: -2932.481683001221 gnorm: 0.001426826216 xtb: 6.7.1 (edcfbbe)
C            4.39175142245409       -1.35706663931147       -2.47218037968946
C            4.58395646718470       -1.49280335933768       -0.98260059892622
O            3.30227876965093       -1.57555446044654       -0.26748118303237
P            2.39601309889794       -0.28733635552594        0.06611214715875
S            3.29984734082345        1.43094767764829        0.22682808070174
O            1.58409171333613       -0.79585574287813        1.35660759713921
C            2.07666545896923       -0.54830364399955        2.72169958023525
C            3.29281103421158       -1.38020556723746        3.04674555063762
S            0.91255942730826       -0.44685734925042       -1.44007809507407
C            0.11787656469713        1.20113159485981       -1.30199569271036
S           -0.95070127411785        1.50002938504965        0.15809511289003
P           -2.75456687236734        0.47129555631403       -0.36745428188225
S           -2.91779668546237        0.01069977157606       -2.24804641140139
O           -3.92525388824565        1.45718392566649        0.11071492428663
C           -4.07711990686217        1.81890950800708        1.53511838821380
C           -4.81059605520371        3.13199399854991        1.58936292205523
O           -2.90353525811751       -0.69990748386826        0.72643413697873
C           -1.87396073521695       -1.72270281186837        0.95790151252544
C           -2.01301018168271       -2.88755315121339        0.00991700532464
H            3.76553044489231       -2.16484489030866       -2.86210883800097
H            3.94138244854043       -0.39567935209400       -2.73523285929345
H            5.37219854149758       -1.41754866347981       -2.95604359369540
H            5.15693280707011       -0.66010799305813       -0.56418203809828
H            5.07913621047372       -2.43114996600496       -0.72479655473328
H            2.27155883903066        0.52364199145781        2.82422835877530
H            1.22414784502577       -0.81708198897486        3.34866661405686
H            4.15963068095672       -1.08152700502064        2.44931840629207
H            3.54189137178231       -1.23322023074097        4.10285044806507
H            3.09555199695210       -2.44352940445367        2.88354706818699
H           -0.47339379236070        1.32097352918041       -2.21350361763276
H            0.89215557051582        1.97374961113619       -1.26299377302550
H           -4.63430210956898        1.01200039917264        2.01757354361912
H           -3.08826817726210        1.89564993475177        2.00015352103131
H           -4.23480777076601        3.92241142795541        1.09987603671501
H           -5.79085228688749        3.05238514316319        1.11105195741784
H           -4.95935540947958        3.40932680725712        2.63759328798908
H           -0.88900335827065       -1.25041312735797        0.88652330233866
H           -2.04008882153914       -2.02642377000836        1.99384288768134
H           -3.01452444136530       -3.32360097647317        0.06841331704635
H           -1.81025053054930       -2.59267845994623       -1.02239262270426
H           -1.28629677764954       -3.65453760542463        0.29803872695265
41
 energy: -2932.481690083303 gnorm: 0.000378154010 xtb: 6.7.1 (edcfbbe)
C            4.39142574126156       -1.35652671353153       -2.47228237198826
C            4.58433159648182       -1.49308305027512       -0.98288224636331
O            3.30299895446823       -1.57657458094272       -0.26728764499464
P            2.39660166711273       -0.28849947881421        0.06657650675697
S            3.29919888034965        1.43047173103773        0.22633374502885
O            1.58455881263691       -0.79688720449305        1.35704434888421
C            2.07721450509395       -0.54932757886543        2.72203033917954
C            3.29330758148520       -1.38150759044909        3.04645562680035
S            0.91225766459844       -0.44461538576558       -1.43884406123619
C            0.11544626287766        1.20230608383135       -1.30140923196056
S           -0.95107555633732        1.50192123708770        0.16018007090976
P           -2.75330838846477        0.47153242863750       -0.36784594126469
S           -2.91734130995030        0.01018173925507       -2.24823071858526
O           -3.92421583117613        1.45722994267503        0.10999694497863
C           -4.07681279550081        1.81942253194166        1.53424419542108
C           -4.81133367613281        3.13197891459017        1.58784051803742
O           -2.90276615245467       -0.69931801135759        0.72639478179335
C           -1.87352652494750       -1.72243146413646        0.95847231427014
C           -2.01283401919621       -2.88764094661855        0.01105792312159
H            3.76591877376001       -2.16474340920909       -2.86260197083335
H            3.93986604886705       -0.39543043754088       -2.73461679067912
H            5.37181556880746       -1.41554012987528       -2.95657076461229
H            5.15715096839867       -0.66037509022075       -0.56425633834685
H            5.07980802449116       -2.43141991880401       -0.72564649209412
H            2.27235504523747        0.52257930001963        2.82463848775218
H            1.22474808500724       -0.81801138296780        3.34910896620973
H            4.15982441543657       -1.08314373387079        2.44838755302960
H            3.54310920065981       -1.23444943061125        4.10239602895230
H            3.09564492657437       -2.44482224229483        2.88347971799085
H           -0.47520635551037        1.32242673190048       -2.21326115434749
H            0.89023926841142        1.97440607732674       -1.26215247790661
H           -4.63366574902528        1.01248790002103        2.01706601586659
H           -3.08818750274612        1.89702846762235        1.99957895099911
H           -4.23559449945720        3.92293914242325        1.09899804225613
H           -5.79103245005403        3.05161949629953        1.10834869175509
H           -4.96160260700889        3.40926480456704        2.63596757449937
H           -0.88848514399742       -1.25036787626686        0.88700321338155
H           -2.03993181813645       -2.02563165324195        1.99451746597182
H           -3.01435344881854       -3.32364634046494        0.06985943344247
H           -1.81012765376222       -2.59329234173548       -1.02141048849563
H           -1.28614475328658       -3.65455170990509        0.29948999529589
41
 energy: -2932.481693392428 gnorm: 0.000482279702 xtb: 6.7.1 (edcfbbe)
C            4.39045924100076       -1.35494857336914       -2.47286682134268
C            4.58384671499586       -1.49260495633753       -0.98364973263145
O            3.30267464765135       -1.57670563692069       -0.26778764676534
P            2.39638897041961       -0.28873829449756        0.06677846112442
S            3.29995696596749        1.42957554777789        0.22807751798869
O            1.58483465376598       -0.79758426173629        1.35737573642889
C            2.07851229546245       -0.55132027143939        2.72220814771595
C            3.29428727243574       -1.38441376484280        3.04549330424405
S            0.91197216738823       -0.44368828241136       -1.43871363540152
C            0.11439196342846        1.20278591729153       -1.30001845184194
S           -0.95179541057965        1.50365648203171        0.16174326525901
P           -2.75237087675926        0.47117050226918       -0.36762211233614
S           -2.91286780688630        0.01011192657079       -2.24866216701734
O           -3.92356784737047        1.45705746656567        0.10916611813444
C           -4.07705231563877        1.82080418906391        1.53291337407448
C           -4.81344900893398        3.13237706887892        1.58483444320972
O           -2.90220034686004       -0.69897421419249        0.72736235201115
C           -1.87298484346078       -1.72196060904745        0.96040087950257
C           -2.01257329027380       -2.88774196503661        0.01373290616474
H            3.76639535537415       -2.16378214624749       -2.86408670297261
H            3.93711900406172       -0.39443101272203       -2.73405399887056
H            5.37082430014836       -1.41150509542865       -2.95739682936847
H            5.15681473244860       -0.66026663644206       -0.56449225568199
H            5.07939750544354       -2.43114917514853       -0.72731464052579
H            2.27432492934566        0.52038656774465        2.82564885317281
H            1.22636281947321       -0.81994521211613        3.34973027276965
H            4.16028538483778       -1.08672000359702        2.44639696309182
H            3.54551441960180       -1.23748284037763        4.10108644800827
H            3.09571383262102       -2.44756319036881        2.88277588058359
H           -0.47530272380298        1.32412102107753       -2.21235743447937
H            0.88969232258730        1.97438299256516       -1.25991429384162
H           -4.63295789095117        1.01365199114779        2.01648994957116
H           -3.08865311379831        1.90022939994855        1.99840669948115
H           -4.23796525108883        3.92403754385890        1.09699923717395
H           -5.79194983463634        3.05042094890582        1.10328353989987
H           -4.96650307376990        3.40971824052506        2.63245642225732
H           -0.88799680905254       -1.24994490098092        0.88842204833716
H           -2.03942032923643       -2.02422737463753        1.99670335913361
H           -3.01398718747573       -3.32388403579208        0.07314985124140
H           -1.81017136797369       -2.59436834913885       -1.01906560074895
H           -1.28574525716487       -3.65432811344062        0.30262967584953
41
 energy: -2932.481693392428 gnorm: 0.000482279702 xtb: 6.7.1 (edcfbbe)
C            4.39045924100076       -1.35494857336914       -2.47286682134268
C            4.58384671499586       -1.49260495633753       -0.98364973263145
O            3.30267464765135       -1.57670563692069       -0.26778764676534
P            2.39638897041961       -0.28873829449756        0.06677846112442
S            3.29995696596749        1.42957554777789        0.22807751798869
O            1.58483465376598       -0.79758426173629        1.35737573642889
C            2.07851229546245       -0.55132027143939        2.72220814771595
C            3.29428727243574       -1.38441376484280        3.04549330424405
S            0.91197216738823       -0.44368828241136       -1.43871363540152
C            0.11439196342846        1.20278591729153       -1.30001845184194
S           -0.95179541057965        1.50365648203171        0.16174326525901
P           -2.75237087675926        0.47117050226918       -0.36762211233614
S           -2.91286780688630        0.01011192657079       -2.24866216701734
O           -3.92356784737047        1.45705746656567        0.10916611813444
C           -4.07705231563877        1.82080418906391        1.53291337407448
C           -4.81344900893398        3.13237706887892        1.58483444320972
O           -2.90220034686004       -0.69897421419249        0.72736235201115
C           -1.87298484346078       -1.72196060904745        0.96040087950257
C           -2.01257329027380       -2.88774196503661        0.01373290616474
H            3.76639535537415       -2.16378214624749       -2.86408670297261
H            3.93711900406172       -0.39443101272203       -2.73405399887056
H            5.37082430014836       -1.41150509542865       -2.95739682936847
H            5.15681473244860       -0.66026663644206       -0.56449225568199
H            5.07939750544354       -2.43114917514853       -0.72731464052579
H            2.27432492934566        0.52038656774465        2.82564885317281
H            1.22636281947321       -0.81994521211613        3.34973027276965
H            4.16028538483778       -1.08672000359702        2.44639696309182
H            3.54551441960180       -1.23748284037763        4.10108644800827
H            3.09571383262102       -2.44756319036881        2.88277588058359
H           -0.47530272380298        1.32412102107753       -2.21235743447937
H            0.88969232258730        1.97438299256516       -1.25991429384162
H           -4.63295789095117        1.01365199114779        2.01648994957116
H           -3.08865311379831        1.90022939994855        1.99840669948115
H           -4.23796525108883        3.92403754385890        1.09699923717395
H           -5.79194983463634        3.05042094890582        1.10328353989987
H           -4.96650307376990        3.40971824052506        2.63245642225732
H           -0.88799680905254       -1.24994490098092        0.88842204833716
H           -2.03942032923643       -2.02422737463753        1.99670335913361
H           -3.01398718747573       -3.32388403579208        0.07314985124140
H           -1.81017136797369       -2.59436834913885       -1.01906560074895
H           -1.28574525716487       -3.65432811344062        0.30262967584953
