      -----------------------------------------------------------      
     |                   =====================                   |     
     |                           x T B                           |     
     |                   =====================                   |     
     |                         S. Grimme                         |     
     |          Mulliken Center for Theoretical Chemistry        |     
     |                    University of Bonn                     |     
      -----------------------------------------------------------      

   * xtb version 6.7.1 (edcfbbe) compiled by 'albert@albert-system' on 2024-07-22

   xtb is free software: you can redistribute it and/or modify it under
   the terms of the GNU Lesser General Public License as published by
   the Free Software Foundation, either version 3 of the License, or
   (at your option) any later version.
   
   xtb is distributed in the hope that it will be useful,
   but WITHOUT ANY WARRANTY; without even the implied warranty of
   MERCHANTABILITY or FITNESS FOR A PARTICULAR PURPOSE.  See the
   GNU Lesser General Public License for more details.
   
   Cite this work as:
   * C. Bannwarth, E. Caldeweyher, S. Ehlert, A. Hansen, P. Pracht,
     J. Seibert, S. Spicher, S. Grimme, WIREs Comput. Mol. Sci., 2020, 11,
     e01493. DOI: 10.1002/wcms.1493
   
   for GFN2-xTB:
   * C. Bannwarth, S. Ehlert and S. Grimme., J. Chem. Theory Comput., 2019,
     15, 1652-1671. DOI: 10.1021/acs.jctc.8b01176
   for GFN1-xTB:
   * S. Grimme, C. Bannwarth, P. Shushkov, J. Chem. Theory Comput., 2017,
     13, 1989-2009. DOI: 10.1021/acs.jctc.7b00118
   for GFN0-xTB:
   * P. Pracht, E. Caldeweyher, S. Ehlert, S. Grimme, ChemRxiv, 2019, preprint.
     DOI: 10.26434/chemrxiv.8326202.v1
   for GFN-FF:
   * S. Spicher and S. Grimme, Angew. Chem. Int. Ed., 2020, 59, 15665-15673.
     DOI: 10.1002/anie.202004239
   
   for ALPB and GBSA implicit solvation:
   * S. Ehlert, M. Stahn, S. Spicher, S. Grimme, J. Chem. Theory Comput.,
     2021, 17, 4250-4261. DOI: 10.1021/acs.jctc.1c00471
   
   for ddCOSMO and CPCM-X implicit solvation:
   * M. Stahn, S. Ehlert, S. Grimme, J. Phys. Chem. A,
     2023, XX, XXXX-XXXX. DOI: 10.1021/acs.jpca.3c04382
   
   for DFT-D4:
   * E. Caldeweyher, C. Bannwarth and S. Grimme, J. Chem. Phys., 2017,
     147, 034112. DOI: 10.1063/1.4993215
   * E. Caldeweyher, S. Ehlert, A. Hansen, H. Neugebauer, S. Spicher,
     C. Bannwarth and S. Grimme, J. Chem. Phys., 2019, 150, 154122.
     DOI: 10.1063/1.5090222
   * E. Caldeweyher, J.-M. Mewes, S. Ehlert and S. Grimme, Phys. Chem. Chem. Phys.
     2020, 22, 8499-8512. DOI: 10.1039/D0CP00502A
   
   for sTDA-xTB:
   * S. Grimme and C. Bannwarth, J. Chem. Phys., 2016, 145, 054103.
     DOI: 10.1063/1.4959605
   
   in the mass-spec context:
   * V. Asgeirsson, C. Bauer and S. Grimme, Chem. Sci., 2017, 8, 4879.
     DOI: 10.1039/c7sc00601b
   * J. Koopman and S. Grimme, ACS Omega 2019, 4, 12, 15120-15133.
     DOI: 10.1021/acsomega.9b02011
   
   for metadynamics refer to:
   * S. Grimme, J. Chem. Theory Comput., 2019, 155, 2847-2862
     DOI: 10.1021/acs.jctc.9b00143
   
   for SPH calculations refer to:
   * S. Spicher and S. Grimme, J. Chem. Theory Comput., 2021, 17, 1701-1714
     DOI: 10.1021/acs.jctc.0c01306
   
   for ONIOM refer to:
   * C. Plett, A. Katbashev, S. Ehlert, S. Grimme, M. Bursch,
     Phys. Chem. Chem. Phys., 2023, 25, 17860-17868. DOI: 10.1039/D3CP02178E
   
   for DIPRO refer to:
   * J. Kohn, N. Gildemeister, S. Grimme, D. Fazzi, A. Hansen,
     J. Chem. Phys., 2023, just accepted.
   
   for PTB refer to:
   * S. Grimme, M. Mueller, A. Hansen, J. Chem. Phys., 2023, 158, 124111.
     DOI: 10.1063/5.0137838
   
   with help from (in alphabetical order)
   P. Atkinson, C. Bannwarth, F. Bohle, G. Brandenburg, E. Caldeweyher
   M. Checinski, S. Dohm, S. Ehlert, S. Ehrlich, I. Gerasimov, C. Hölzer
   A. Katbashev, J. Kohn, J. Koopman, C. Lavigne, S. Lehtola, F. März, M. Müller,
   F. Musil, H. Neugebauer, J. Pisarek, C. Plett, P. Pracht, F. Pultar,
   J. Seibert, P. Shushkov, S. Spicher, M. Stahn, M. Steiner, T. Strunk,
   J. Stückrath, T. Rose, and J. Unsleber
   
 * started run on 2025/04/09 at 09:46:43.441     
   ID    Z sym.   atoms
    1    6 C      1, 2, 4, 6, 7, 9, 12, 13, 18, 20
    2    8 O      3, 5, 10, 11, 17, 19
    3    1 H      8, 21-38
    4   16 S      14, 16
    5   15 P      15

           -------------------------------------------------
          |                Calculation Setup                |
           -------------------------------------------------

          program call               : /software/projects/pawsey0265/mwang1/xtb/bin/xtb xtb_rrho.coord --gfn2 --bhess vtight --chrg 0 --enso --norestart -I rrho-xcontrol-inp --parallel 1 --alpb water
          hostname                   : nid002043
          coordinate file            : xtb_rrho.coord
          omp threads                :                     1


           -------------------------------------------------
          |                 G F N 2 - x T B                 |
           -------------------------------------------------

        Reference                      10.1021/acs.jctc.8b01176
      * Hamiltonian:
        H0-scaling (s, p, d)           1.850000    2.230000    2.230000
        zeta-weighting                 0.500000
      * Dispersion:
        s8                             2.700000
        a1                             0.520000
        a2                             5.000000
        s9                             5.000000
      * Repulsion:
        kExp                           1.500000    1.000000
        rExp                           1.000000
      * Coulomb:
        alpha                          2.000000
        third order                    shell-resolved
        anisotropic                    true
        a3                             3.000000
        a5                             4.000000
        cn-shift                       1.200000
        cn-exp                         4.000000
        max-rad                        5.000000

      * Solvation model:               ALPB
        Solvent                        water
        Parameter file                 internal GFN2-xTB/ALPB
        Dielectric constant                8.0200E+01
        Reference state                gsolv [1 M gas/solution]
        Free energy shift                  1.0808E-03 Eh       6.7819E-01 kcal/mol
        Temperature                        2.9815E+02 K
        Density                            1.0000E+00 kg/L
        Solvent mass                       1.8000E+01 g/mol
        Interaction kernel             P16
        Born radius scaling (c1)           1.4744E+00
        Born radii integrator          GBOBC
        Born offset                        0.0000E+00 a0       0.0000E+00 AA
        H-bond correction              true
        Ion screening                  false
        Surface tension                    1.0000E-05 Eh       1.5569E+01 dyn/cm
        Grid points                               974 per atom

          ...................................................
          :                      SETUP                      :
          :.................................................:
          :  # basis functions                 113          :
          :  # atomic orbitals                 110          :
          :  # shells                           60          :
          :  # electrons                       112          :
          :  max. iterations                   250          :
          :  Hamiltonian                  GFN2-xTB          :
          :  restarted?                      false          :
          :  GBSA solvation                   true          :
          :  PC potential                    false          :
          :  electronic temp.          300.0000000     K    :
          :  accuracy                    1.0000000          :
          :  -> integral cutoff          0.2500000E+02      :
          :  -> integral neglect         0.1000000E-07      :
          :  -> SCF convergence          0.1000000E-05 Eh   :
          :  -> wf. convergence          0.1000000E-03 e    :
          :  Broyden damping             0.4000000          :
          :  net charge                          0          :
          :  unpaired electrons                  0          :
          ...................................................

 iter      E             dE          RMSdq      gap      omega  full diag
   1    -65.0600592 -0.650601E+02  0.609E+00    4.03       0.0  T
   2    -65.1979590 -0.137900E+00  0.328E+00    3.13       1.0  T
   3    -65.2079091 -0.995009E-02  0.128E+00    3.15       1.0  T
   4    -65.2143253 -0.641619E-02  0.472E-01    3.01       1.0  T
   5    -65.2152609 -0.935626E-03  0.210E-01    3.11       1.0  T
   6    -65.2154097 -0.148732E-03  0.921E-02    3.11       1.0  T
   7    -65.2154262 -0.165936E-04  0.325E-02    3.12       1.0  T
   8    -65.2154283 -0.206642E-05  0.136E-02    3.12       1.2  T
   9    -65.2154290 -0.679355E-06  0.443E-03    3.12       3.7  T
  10    -65.2154291 -0.821839E-07  0.216E-03    3.12       7.5  T
  11    -65.2154291 -0.942987E-08  0.563E-04    3.12      28.8  T
  12    -65.2154291 -0.886800E-09  0.245E-04    3.12      66.1  T

   *** convergence criteria satisfied after 12 iterations ***

         #    Occupation            Energy/Eh            Energy/eV
      -------------------------------------------------------------
         1        2.0000           -0.7649375             -20.8150
       ...           ...                  ...                  ...
        50        2.0000           -0.4523426             -12.3089
        51        2.0000           -0.4506127             -12.2618
        52        2.0000           -0.4463371             -12.1455
        53        2.0000           -0.4382218             -11.9246
        54        2.0000           -0.4143740             -11.2757
        55        2.0000           -0.3953249             -10.7573
        56        2.0000           -0.3946677             -10.7395 (HOMO)
        57                         -0.2798398              -7.6148 (LUMO)
        58                         -0.2560320              -6.9670
        59                         -0.2510151              -6.8305
        60                         -0.2064687              -5.6183
        61                         -0.1804814              -4.9111
       ...                                ...                  ...
       110                          1.2697008              34.5503
      -------------------------------------------------------------
                  HL-Gap            0.1148280 Eh            3.1246 eV
             Fermi-level           -0.3372537 Eh           -9.1771 eV

 SCC (total)                   0 d,  0 h,  0 min,  0.103 sec
 SCC setup                      ...        0 min,  0.003 sec (  2.966%)
 Dispersion                     ...        0 min,  0.000 sec (  0.385%)
 classical contributions        ...        0 min,  0.000 sec (  0.082%)
 integral evaluation            ...        0 min,  0.031 sec ( 29.856%)
 iterations                     ...        0 min,  0.035 sec ( 34.001%)
 molecular gradient             ...        0 min,  0.034 sec ( 32.394%)
 printout                       ...        0 min,  0.000 sec (  0.287%)

         :::::::::::::::::::::::::::::::::::::::::::::::::::::
         ::                     SUMMARY                     ::
         :::::::::::::::::::::::::::::::::::::::::::::::::::::
         :: total energy             -64.664397185648 Eh    ::
         :: total w/o Gsasa/hb       -64.665145424681 Eh    ::
         :: gradient norm              0.051879005269 Eh/a0 ::
         :: HOMO-LUMO gap              3.124627601172 eV    ::
         ::.................................................::
         :: SCC energy               -65.215002792706 Eh    ::
         :: -> isotropic ES            0.180184394519 Eh    ::
         :: -> anisotropic ES         -0.015667178858 Eh    ::
         :: -> anisotropic XC          0.018603247147 Eh    ::
         :: -> dispersion             -0.039851384670 Eh    ::
         :: -> Gsolv                  -0.035546254961 Eh    ::
         ::    -> Gelec               -0.036294493993 Eh    ::
         ::    -> Gsasa                0.005169182829 Eh    ::
         ::    -> Ghb                 -0.005501703495 Eh    ::
         ::    -> Gshift               0.001080759698 Eh    ::
         :: repulsion energy           0.550605607058 Eh    ::
         :: add. restraining           0.000000000000 Eh    ::
         :: total charge              -0.000000000000 e     ::
         :::::::::::::::::::::::::::::::::::::::::::::::::::::

metadynamics with 1 initial structures loaded
           -------------------------------------------------
          |           Optimal kpush determination           |
           -------------------------------------------------
      ----------------------------------------------------------- 
     |                   =====================                   |
     |                        A N C O P T                        |
     |                   =====================                   |
     |               Approximate Normal Coordinate               |
     |                Rational Function Optimizer                |
      ----------------------------------------------------------- 
target rmsd / Å         0.100000
unbiased initial rmsd   0.217921
 
iter. min.        max.        rmsd       kpush
      ----------------------------------------------------------- 
     |                   =====================                   |
     |                        A N C O P T                        |
     |                   =====================                   |
     |               Approximate Normal Coordinate               |
     |                Rational Function Optimizer                |
      ----------------------------------------------------------- 
 1    0.000000    1.727273    0.013955   -0.863636
      ----------------------------------------------------------- 
     |                   =====================                   |
     |                        A N C O P T                        |
     |                   =====================                   |
     |               Approximate Normal Coordinate               |
     |                Rational Function Optimizer                |
      ----------------------------------------------------------- 
 2    0.000000    0.863636    0.019498   -0.431818
      ----------------------------------------------------------- 
     |                   =====================                   |
     |                        A N C O P T                        |
     |                   =====================                   |
     |               Approximate Normal Coordinate               |
     |                Rational Function Optimizer                |
      ----------------------------------------------------------- 
 3    0.000000    0.431818    0.028741   -0.215909
      ----------------------------------------------------------- 
     |                   =====================                   |
     |                        A N C O P T                        |
     |                   =====================                   |
     |               Approximate Normal Coordinate               |
     |                Rational Function Optimizer                |
      ----------------------------------------------------------- 
 4    0.000000    0.215909    0.043930   -0.107955
      ----------------------------------------------------------- 
     |                   =====================                   |
     |                        A N C O P T                        |
     |                   =====================                   |
     |               Approximate Normal Coordinate               |
     |                Rational Function Optimizer                |
      ----------------------------------------------------------- 
 5    0.000000    0.107955    0.066553   -0.053977
      ----------------------------------------------------------- 
     |                   =====================                   |
     |                        A N C O P T                        |
     |                   =====================                   |
     |               Approximate Normal Coordinate               |
     |                Rational Function Optimizer                |
      ----------------------------------------------------------- 
 6    0.000000    0.053977    0.095816   -0.026989
      ----------------------------------------------------------- 
     |                   =====================                   |
     |                        A N C O P T                        |
     |                   =====================                   |
     |               Approximate Normal Coordinate               |
     |                Rational Function Optimizer                |
      ----------------------------------------------------------- 
 7    0.000000    0.026989    0.128026   -0.013494
      ----------------------------------------------------------- 
     |                   =====================                   |
     |                        A N C O P T                        |
     |                   =====================                   |
     |               Approximate Normal Coordinate               |
     |                Rational Function Optimizer                |
      ----------------------------------------------------------- 
 8    0.013494    0.026989    0.109035   -0.020241
      ----------------------------------------------------------- 
     |                   =====================                   |
     |                        A N C O P T                        |
     |                   =====================                   |
     |               Approximate Normal Coordinate               |
     |                Rational Function Optimizer                |
      ----------------------------------------------------------- 
 9    0.020241    0.026989    0.101888   -0.023615
      ----------------------------------------------------------- 
     |                   =====================                   |
     |                        A N C O P T                        |
     |                   =====================                   |
     |               Approximate Normal Coordinate               |
     |                Rational Function Optimizer                |
      ----------------------------------------------------------- 
10    0.023615    0.026989    0.098868   -0.025302
final kpush: -0.025302
           -------------------------------------------------
          |            Biased Numerical Hessian             |
           -------------------------------------------------
kpush                :  -0.02530
alpha                :   1.00000
step length          :   0.00500
SCC accuracy         :   0.30000
Hessian scale factor :   1.00000
frozen atoms in %    :   0.00000    0
RMS gradient         :   0.00011
estimated CPU  time      0.15 min
estimated wall time      0.15 min

writing file <hessian>.

 projected vibrational frequencies (cm⁻¹)
eigval :       -0.00    -0.00    -0.00     0.00     0.00     0.00
eigval :       48.55    52.91    59.40    60.20    75.85    74.39
eigval :       78.24    83.97    78.08    75.37    91.82   105.12
eigval :      120.10   120.97   147.60   155.57   178.34   118.35
eigval :      172.76   138.41   189.67   204.71   209.29   256.69
eigval :      281.05   291.52   298.73   323.21   347.99   397.78
eigval :      417.55   428.01   452.75   516.83   578.01   616.51
eigval :      638.64   664.79   679.19   747.81   771.26   783.38
eigval :      809.73   823.49   877.88   885.74   902.27   946.87
eigval :      970.31   976.13  1019.18  1042.50  1045.87  1074.66
eigval :     1094.16  1095.83  1094.17  1103.31  1106.03  1113.70
eigval :     1122.53  1138.82  1148.81  1156.51  1180.66  1209.22
eigval :     1243.46  1250.91  1260.58  1287.98  1307.69  1308.97
eigval :     1367.45  1376.98  1393.12  1393.98  1399.31  1418.74
eigval :     1423.08  1427.14  1428.24  1438.32  1442.74  1463.31
eigval :     1467.05  1482.03  1484.16  1697.08  1700.68  2942.73
eigval :     2948.55  2954.85  2969.12  2971.07  2979.79  2984.45
eigval :     2993.67  2993.67  3008.61  3008.97  3026.69  3026.90
eigval :     3036.64  3037.78  3051.47  3052.13  3062.40  3064.88
           -------------------------------------------------
          |                Property Printout                |
           -------------------------------------------------

    * Orbital Energies and Occupations

         #    Occupation            Energy/Eh            Energy/eV
      -------------------------------------------------------------
         1        2.0000           -0.7692674             -20.9328
       ...           ...                  ...                  ...
        44        2.0000           -0.4734401             -12.8830
        45        2.0000           -0.4719214             -12.8416
        46        2.0000           -0.4657879             -12.6747
        47        2.0000           -0.4621742             -12.5764
        48        2.0000           -0.4591842             -12.4950
        49        2.0000           -0.4560593             -12.4100
        50        2.0000           -0.4523606             -12.3094
        51        2.0000           -0.4509440             -12.2708
        52        2.0000           -0.4456160             -12.1258
        53        2.0000           -0.4390564             -11.9473
        54        2.0000           -0.4140023             -11.2656
        55        2.0000           -0.3937919             -10.7156
        56        2.0000           -0.3919993             -10.6668 (HOMO)
        57                         -0.2771331              -7.5412 (LUMO)
        58                         -0.2529799              -6.8839
        59                         -0.2481077              -6.7514
        60                         -0.1989067              -5.4125
        61                         -0.1806521              -4.9158
        62                         -0.1589307              -4.3247
        63                         -0.1237486              -3.3674
        64                         -0.0510097              -1.3880
        65                         -0.0496944              -1.3523
        66                         -0.0288912              -0.7862
        67                         -0.0206155              -0.5610
       ...                                ...                  ...
       110                          1.2642905              34.4031
      -------------------------------------------------------------
                  HL-Gap            0.1148662 Eh            3.1257 eV
             Fermi-level           -0.3345662 Eh           -9.1040 eV

     #   Z          covCN         q      C6AA      α(0)
     1   6 C        3.751    -0.129    23.042     6.846
     2   6 C        3.692     0.063    19.692     6.350
     3   8 O        1.703    -0.251    18.159     5.753
     4   6 C        2.712     0.372    20.702     7.448
     5   8 O        0.856    -0.480    23.346     6.478
     6   6 C        3.856    -0.105    22.460     6.740
     7   6 C        3.859     0.018    20.226     6.396
     8   1 H        0.924     0.071     2.074     2.252
     9   6 C        2.780     0.373    20.683     7.449
    10   8 O        0.856    -0.475    23.244     6.464
    11   8 O        1.703    -0.251    18.165     5.754
    12   6 C        3.694     0.069    19.598     6.334
    13   6 C        3.751    -0.125    22.962     6.834
    14  16 S        2.011    -0.115   145.857    20.327
    15  15 P        3.871     0.378   144.532    21.596
    16  16 S        0.926    -0.454   159.214    21.342
    17   8 O        1.655    -0.257    18.276     5.771
    18   6 C        3.819     0.007    20.438     6.434
    19   8 O        1.654    -0.272    18.527     5.811
    20   6 C        3.823     0.016    20.296     6.411
    21   1 H        0.925     0.050     2.318     2.381
    22   1 H        0.925     0.077     2.015     2.220
    23   1 H        0.925     0.071     2.078     2.255
    24   1 H        0.924     0.064     2.148     2.292
    25   1 H        0.924     0.096     1.821     2.110
    26   1 H        0.924     0.128     1.547     1.945
    27   1 H        0.925     0.122     1.598     1.977
    28   1 H        0.924     0.060     2.197     2.318
    29   1 H        0.924     0.097     1.810     2.104
    30   1 H        0.925     0.079     1.985     2.203
    31   1 H        0.925     0.068     2.106     2.269
    32   1 H        0.925     0.050     2.314     2.379
    33   1 H        0.924     0.080     1.975     2.198
    34   1 H        0.925     0.116     1.647     2.007
    35   1 H        0.925     0.094     1.843     2.123
    36   1 H        0.925     0.106     1.729     2.056
    37   1 H        0.924     0.088     1.902     2.157
    38   1 H        0.925     0.100     1.783     2.088

 Mol. C6AA /au·bohr⁶  :      18240.871874
 Mol. C8AA /au·bohr⁸  :     514220.779995
 Mol. α(0) /au        :        207.870235


Wiberg/Mayer (AO) data.
largest (>0.10) Wiberg bond orders for each atom

 ---------------------------------------------------------------------------
     #   Z sym  total        # sym  WBO       # sym  WBO       # sym  WBO
 ---------------------------------------------------------------------------
     1   6 C    3.987 --     2 C    1.014    21 H    0.986    23 H    0.984
                            22 H    0.979
     2   6 C    3.899 --     1 C    1.014    24 H    0.970    25 H    0.966
                             3 O    0.908
     3   8 O    2.340 --     4 C    1.195     2 C    0.908     5 O    0.176
     4   6 C    3.917 --     5 O    1.687     3 O    1.195     6 C    0.970
     5   8 O    1.992 --     4 C    1.687     3 O    0.176
     6   6 C    3.979 --     7 C    0.996     4 C    0.970    27 H    0.952
                            26 H    0.933
     7   6 C    3.970 --     6 C    0.996     8 H    0.960     9 C    0.954
                            14 S    0.936
     8   1 H    0.995 --     7 C    0.960
     9   6 C    3.920 --    10 O    1.686    11 O    1.194     7 C    0.954
    10   8 O    1.997 --     9 C    1.686    11 O    0.174
    11   8 O    2.337 --     9 C    1.194    12 C    0.904    10 O    0.174
    12   6 C    3.896 --    13 C    1.014    28 H    0.971    29 H    0.966
                            11 O    0.904
    13   6 C    3.986 --    12 C    1.014    32 H    0.985    31 H    0.984
                            30 H    0.978
    14  16 S    2.270 --    15 P    0.976     7 C    0.936    16 S    0.135
    15  15 P    5.289 --    16 S    1.553    19 O    1.321    17 O    1.311
                            14 S    0.976
    16  16 S    1.861 --    15 P    1.553    14 S    0.135
    17   8 O    2.395 --    15 P    1.311    18 C    0.906
    18   6 C    3.876 --    35 H    0.976    33 H    0.976    34 H    0.971
                            17 O    0.906
    19   8 O    2.382 --    15 P    1.321    20 C    0.885
    20   6 C    3.871 --    38 H    0.976    36 H    0.973    37 H    0.972
                            19 O    0.885
    21   1 H    0.997 --     1 C    0.986
    22   1 H    0.993 --     1 C    0.979
    23   1 H    0.995 --     1 C    0.984
    24   1 H    0.996 --     2 C    0.970
    25   1 H    0.991 --     2 C    0.966
    26   1 H    0.983 --     6 C    0.933
    27   1 H    0.985 --     6 C    0.952
    28   1 H    0.996 --    12 C    0.971
    29   1 H    0.991 --    12 C    0.966
    30   1 H    0.993 --    13 C    0.978
    31   1 H    0.995 --    13 C    0.984
    32   1 H    0.997 --    13 C    0.985
    33   1 H    0.994 --    18 C    0.976
    34   1 H    0.986 --    18 C    0.971
    35   1 H    0.991 --    18 C    0.976
    36   1 H    0.989 --    20 C    0.973
    37   1 H    0.992 --    20 C    0.972
    38   1 H    0.990 --    20 C    0.976
 ---------------------------------------------------------------------------

Topologies differ in total number of bonds
Writing topology from bond orders to xtbtopo.mol

molecular dipole:
                 x           y           z       tot (Debye)
 q only:        0.917      -1.631       3.849
   full:        0.954      -1.133       3.600       9.894
molecular quadrupole (traceless):
                xx          xy          yy          xz          yz          zz
 q only:       20.274      -2.956       1.972     -15.220      18.189     -22.245
  q+dip:       20.163      -6.647       2.797     -14.589      17.463     -22.961
   full:       21.359      -6.158       1.941     -15.019      18.167     -23.300

           -------------------------------------------------
          |                Geometry Summary                 |
           -------------------------------------------------

      molecular mass/u    :      330.3579996
   center of mass at/Å    :       -0.0187538       0.0070234      -0.0193168
  moments of inertia/u·Å² :        0.1085915E+04   0.2959840E+04   0.3442453E+04
rotational constants/cm⁻¹ :        0.1552390E-01   0.5695453E-02   0.4896982E-02

 * 34 selected distances

     #   Z          #   Z                                           value/Å
     1   6 C        2   6 C                                       1.5201637
     2   6 C        3   8 O                                       1.4411426
     3   8 O        4   6 C                                       1.3170579
     4   6 C        5   8 O                                       1.2131095
     6   6 C        7   6 C                                       1.5204868
     7   6 C        8   1 H                                       1.0942488
     9   6 C       10   8 O                                       1.2117276
     9   6 C       11   8 O                                       1.3164396
    11   8 O       12   6 C                                       1.4420563
    12   6 C       13   6 C                                       1.5195071
    14  16 S       15  15 P                                       2.1219590 (max)
    15  15 P       16  16 S                                       1.9528178
    15  15 P       17   8 O                                       1.5967710
    17   8 O       18   6 C                                       1.4345142
    15  15 P       19   8 O                                       1.5825080
    19   8 O       20   6 C                                       1.4429118
     1   6 C       21   1 H                                       1.0880141
     1   6 C       22   1 H                                       1.0849552 (min)
     1   6 C       23   1 H                                       1.0864779
     2   6 C       24   1 H                                       1.0934011
     2   6 C       25   1 H                                       1.0902163
     6   6 C       26   1 H                                       1.0929945
     6   6 C       27   1 H                                       1.0892961
    12   6 C       28   1 H                                       1.0939850
    12   6 C       29   1 H                                       1.0907765
    13   6 C       30   1 H                                       1.0850445
    13   6 C       31   1 H                                       1.0863611
    13   6 C       32   1 H                                       1.0882770
    18   6 C       33   1 H                                       1.0905404
    18   6 C       34   1 H                                       1.0873682
    18   6 C       35   1 H                                       1.0893581
    20   6 C       36   1 H                                       1.0870531
    20   6 C       37   1 H                                       1.0908133
    20   6 C       38   1 H                                       1.0877428

 * 5 distinct bonds (by element types)

   Z      Z             #   av. dist./Å        max./Å        min./Å
   1 H    6 C          19     1.0893118     1.0942488     1.0849552
   6 C    6 C           3     1.5200526     1.5204868     1.5195071
   6 C    8 O           8     1.3523700     1.4429118     1.2117276
   8 O   15 P           2     1.5896395     1.5967710     1.5825080
  15 P   16 S           2     2.0373884     2.1219590     1.9528178

           -------------------------------------------------
          |               Frequency Printout                |
           -------------------------------------------------
 projected vibrational frequencies (cm⁻¹)
eigval :       -0.00    -0.00    -0.00     0.00     0.00     0.00
eigval :       48.55    52.91    59.40    60.20    75.85    74.39
eigval :       78.24    83.97    78.08    75.37    91.82   105.12
eigval :      120.10   120.97   147.60   155.57   178.34   118.35
eigval :      172.76   138.41   189.67   204.71   209.29   256.69
eigval :      281.05   291.52   298.73   323.21   347.99   397.78
eigval :      417.55   428.01   452.75   516.83   578.01   616.51
eigval :      638.64   664.79   679.19   747.81   771.26   783.38
eigval :      809.73   823.49   877.88   885.74   902.27   946.87
eigval :      970.31   976.13  1019.18  1042.50  1045.87  1074.66
eigval :     1094.16  1095.83  1094.17  1103.31  1106.03  1113.70
eigval :     1122.53  1138.82  1148.81  1156.51  1180.66  1209.22
eigval :     1243.46  1250.91  1260.58  1287.98  1307.69  1308.97
eigval :     1367.45  1376.98  1393.12  1393.98  1399.31  1418.74
eigval :     1423.08  1427.14  1428.24  1438.32  1442.74  1463.31
eigval :     1467.05  1482.03  1484.16  1697.08  1700.68  2942.73
eigval :     2948.55  2954.85  2969.12  2971.07  2979.79  2984.45
eigval :     2993.67  2993.67  3008.61  3008.97  3026.69  3026.90
eigval :     3036.64  3037.78  3051.47  3052.13  3062.40  3064.88
 reduced masses (amu)
   1: 19.99   2: 16.34   3: 13.05   4: 17.75   5: 15.24   6: 18.28   7: 21.83   8: 15.14
   9: 21.74  10: 14.36  11: 14.82  12: 15.42  13: 12.78  14: 13.14  15: 11.25  16: 10.12
  17: 11.88  18: 11.97  19: 13.01  20: 12.30  21: 16.39  22: 16.37  23: 22.36  24:  2.73
  25:  9.08  26:  4.46  27: 12.52  28:  8.58  29:  5.12  30: 12.35  31: 14.59  32: 13.02
  33:  9.53  34: 19.53  35: 15.87  36: 19.81  37: 12.06  38: 11.68  39: 26.90  40: 10.08
  41: 11.19  42: 11.38  43: 24.17  44: 14.68  45: 12.44  46: 21.35  47: 24.02  48: 12.04
  49:  5.38  50:  4.43  51:  8.78  52:  9.23  53:  9.79  54: 10.51  55: 10.11  56: 13.13
  57: 14.15  58:  8.53  59:  8.58  60:  7.91  61:  7.48  62:  7.50  63:  3.57  64:  4.00
  65:  3.59  66:  4.20  67:  5.50  68:  7.83  69:  6.39  70:  5.84  71:  8.70  72:  8.12
  73:  3.06  74:  4.01  75:  4.82  76:  5.82  77:  3.64  78:  3.32  79:  2.32  80:  2.33
  81:  3.01  82:  2.93  83:  2.03  84:  1.79  85:  2.01  86:  1.78  87:  1.52  88:  1.56
  89:  1.57  90:  1.48  91:  1.49  92:  1.56  93:  1.57  94: 13.34  95: 13.32  96:  1.77
  97:  1.69  98:  1.71  99:  1.65 100:  1.78 101:  1.63 102:  1.77 103:  1.71 104:  1.75
 105:  1.65 106:  1.71 107:  1.84 108:  1.87 109:  1.79 110:  1.80 111:  1.65 112:  1.59
 113:  1.78 114:  1.73
 IR intensities (km·mol⁻¹)
   1:  2.27   2:  0.32   3:  0.43   4:  0.11   5:  0.55   6:  1.30   7:  3.34   8:  4.23
   9:  0.35  10:  3.29  11: 10.63  12:  2.29  13:  1.25  14:  3.12  15:  2.74  16:  2.69
  17:  3.33  18: 13.86  19:  6.81  20:  3.77  21:  6.20  22:  0.99  23: 14.00  24:  0.93
  25:  6.42  26:  0.64  27:  0.79  28:  7.16  29:  8.28  30:  5.87  31: 21.89  32: 16.13
  33: 32.72  34: 37.09  35:  7.38  36: 23.65  37:  5.41  38:  2.25  39:118.96  40: 13.37
  41: 25.52  42:  8.64  43:231.36  44: 36.91  45:  2.78  46:247.47  47:261.17  48: 32.11
  49: 22.78  50:  5.67  51: 22.81  52: 25.24  53:  6.11  54: 13.01  55:149.69  56:190.86
  57:185.69  58: 41.99  59: 17.44  60: 72.77  61: 16.57  62: 33.21  63:  2.23  64:  8.87
  65:  0.55  66:  8.00  67: 20.60  68:225.76  69: 55.20  70: 64.12  71:283.75  72:290.71
  73:  4.30  74: 61.77  75:105.54  76:128.59  77: 23.24  78: 10.82  79: 15.64  80: 22.55
  81:  6.35  82:  8.94  83: 30.40  84: 10.01  85:  4.90  86:  5.69  87: 13.30  88: 12.17
  89:  8.59  90:  7.48  91:  7.91  92:  2.65  93:  5.25  94:170.57  95:******  96:  8.08
  97: 24.72  98: 25.92  99:  8.42 100:  0.46 101: 10.68 102:  6.41 103:  6.51 104:  7.38
 105:  2.77 106:  0.58 107:  0.50 108:  1.41 109: 40.86 110: 31.94 111: 23.33 112: 22.53
 113: 18.17 114: 18.83
 Raman intensities (Ä⁴*amu⁻¹)
   1:  0.00   2:  0.00   3:  0.00   4:  0.00   5:  0.00   6:  0.00   7:  0.00   8:  0.00
   9:  0.00  10:  0.00  11:  0.00  12:  0.00  13:  0.00  14:  0.00  15:  0.00  16:  0.00
  17:  0.00  18:  0.00  19:  0.00  20:  0.00  21:  0.00  22:  0.00  23:  0.00  24:  0.00
  25:  0.00  26:  0.00  27:  0.00  28:  0.00  29:  0.00  30:  0.00  31:  0.00  32:  0.00
  33:  0.00  34:  0.00  35:  0.00  36:  0.00  37:  0.00  38:  0.00  39:  0.00  40:  0.00
  41:  0.00  42:  0.00  43:  0.00  44:  0.00  45:  0.00  46:  0.00  47:  0.00  48:  0.00
  49:  0.00  50:  0.00  51:  0.00  52:  0.00  53:  0.00  54:  0.00  55:  0.00  56:  0.00
  57:  0.00  58:  0.00  59:  0.00  60:  0.00  61:  0.00  62:  0.00  63:  0.00  64:  0.00
  65:  0.00  66:  0.00  67:  0.00  68:  0.00  69:  0.00  70:  0.00  71:  0.00  72:  0.00
  73:  0.00  74:  0.00  75:  0.00  76:  0.00  77:  0.00  78:  0.00  79:  0.00  80:  0.00
  81:  0.00  82:  0.00  83:  0.00  84:  0.00  85:  0.00  86:  0.00  87:  0.00  88:  0.00
  89:  0.00  90:  0.00  91:  0.00  92:  0.00  93:  0.00  94:  0.00  95:  0.00  96:  0.00
  97:  0.00  98:  0.00  99:  0.00 100:  0.00 101:  0.00 102:  0.00 103:  0.00 104:  0.00
 105:  0.00 106:  0.00 107:  0.00 108:  0.00 109:  0.00 110:  0.00 111:  0.00 112:  0.00
 113:  0.00 114:  0.00
 output can be read by thermo (or use thermo option).
 writing <g98.out> molden fake output.
 recommended (thermochemical) frequency scaling factor: 1.0
           -------------------------------------------------
          |             Thermodynamic Functions             |
           -------------------------------------------------

Molecule has no symmetry elements
It seems to be the C1 point group
c1  symmetry found (for desy threshold:  0.10E+00) used in thermo

          ...................................................
          :                      SETUP                      :
          :.................................................:
          :  # frequencies                         108      :
          :  # imaginary freq.                       0      :
          :  linear?                             false      :
          :  only rotor calc.                    false      :
          :  symmetry                               c1      :
          :  rotational number                       1      :
          :  scaling factor                  1.0000000      :
          :  rotor cutoff                    0.0000000 cm⁻¹ :
          :  imag. cutoff                 -100.0000000 cm⁻¹ :
          :.................................................:

    mode    ω/cm⁻¹     T·S(HO)/kcal·mol⁻¹    T·S(FR)/kcal·mol⁻¹   T·S(vib)
   ------------------------------------------------------------------------
       1     48.55    -1.45363 (100.00%)    -1.06521 (  0.00%)    -1.45363
       2     52.91    -1.40296 (100.00%)    -1.03976 (  0.00%)    -1.40296
       3     59.40    -1.33483 (100.00%)    -1.00549 (  0.00%)    -1.33483
       4     60.20    -1.32695 (100.00%)    -1.00152 (  0.00%)    -1.32695
       5     75.85    -1.19123 (100.00%)    -0.93306 (  0.00%)    -1.19123
       6     74.39    -1.20266 (100.00%)    -0.93883 (  0.00%)    -1.20266
       7     78.24    -1.17310 (100.00%)    -0.92389 (  0.00%)    -1.17310
       8     83.97    -1.13176 (100.00%)    -0.90296 (  0.00%)    -1.13176
       9     78.08    -1.17425 (100.00%)    -0.92447 (  0.00%)    -1.17425
      10     75.37    -1.19494 (100.00%)    -0.93493 (  0.00%)    -1.19494
      11     91.82    -1.07959 (100.00%)    -0.87648 (  0.00%)    -1.07959
      12    105.12    -1.00089 (100.00%)    -0.83639 (  0.00%)    -1.00089
      13    120.10    -0.92388 (100.00%)    -0.79693 (  0.00%)    -0.92388
      14    120.97    -0.91976 (100.00%)    -0.79481 (  0.00%)    -0.91976
      15    147.60    -0.80587 (100.00%)    -0.73585 (  0.00%)    -0.80587
      16    155.57    -0.77606 (100.00%)    -0.72028 (  0.00%)    -0.77606
      17    178.34    -0.69938 (100.00%)    -0.67982 (  0.00%)    -0.69938
      18    118.35    -0.93234 (100.00%)    -0.80127 (  0.00%)    -0.93234
      19    172.76    -0.71713 (100.00%)    -0.68924 (  0.00%)    -0.71713
      20    138.41    -0.84249 (100.00%)    -0.75490 (  0.00%)    -0.84249
      21    189.67    -0.66520 (100.00%)    -0.66158 (  0.00%)    -0.66520
      22    204.71    -0.62324 (100.00%)    -0.63897 (  0.00%)    -0.62324
      23    209.29    -0.61117 (100.00%)    -0.63242 (  0.00%)    -0.61117
      24    256.69    -0.50213 (100.00%)    -0.57193 (  0.00%)    -0.50213
      25    281.05    -0.45536 (100.00%)    -0.54508 (  0.00%)    -0.45536
      26    291.52    -0.43683 (100.00%)    -0.53424 (  0.00%)    -0.43683
      27    298.73    -0.42456 (100.00%)    -0.52700 (  0.00%)    -0.42456
   ------------------------------------------------------------------------

   temp. (K)  partition function   enthalpy   heat capacity  entropy
                                   cal/mol     cal/K/mol   cal/K/mol   J/K/mol
 298.15  VIB  0.491E+11            13954.755     79.137     95.726
         ROT  0.804E+07              888.752      2.981     34.577
         INT  0.395E+18            14843.507     82.118    130.303
         TR   0.581E+28             1481.254      4.968     43.260
         TOT                       16324.7614    87.0862   173.5632   726.1883

       T/K    H(0)-H(T)+PV         H(T)/Eh          T*S/Eh         G(T)/Eh
   ------------------------------------------------------------------------
    298.15    0.260152E-01    0.314539E+00    0.824655E-01    0.232073E+00
   ------------------------------------------------------------------------

         :::::::::::::::::::::::::::::::::::::::::::::::::::::
         ::                  THERMODYNAMIC                  ::
         :::::::::::::::::::::::::::::::::::::::::::::::::::::
         :: total free energy         -64.463115290713 Eh   ::
         ::.................................................::
         :: total energy              -64.695188437522 Eh   ::
         :: zero point energy           0.288523448662 Eh   ::
         :: G(RRHO) w/o ZPVE           -0.056450301854 Eh   ::
         :: G(RRHO) contrib.            0.232073146809 Eh   ::
         :::::::::::::::::::::::::::::::::::::::::::::::::::::

optimized geometry written to: xtbopt.coord


           -------------------------------------------------
          | TOTAL ENERGY              -64.695188437522 Eh   |
          | TOTAL ENTHALPY            -64.380649825608 Eh   |
          | TOTAL FREE ENERGY         -64.463115290713 Eh   |
          | GRADIENT NORM               0.000111909737 Eh/α |
          | HOMO-LUMO GAP               3.125669314292 eV   |
           -------------------------------------------------

------------------------------------------------------------------------
 * finished run on 2025/04/09 at 09:47:01.198     
------------------------------------------------------------------------
 total:
 * wall-time:     0 d,  0 h,  0 min, 17.756 sec
 *  cpu-time:     0 d,  0 h,  0 min, 17.478 sec
 * ratio c/w:     0.984 speedup
 SCF:
 * wall-time:     0 d,  0 h,  0 min,  0.104 sec
 *  cpu-time:     0 d,  0 h,  0 min,  0.093 sec
 * ratio c/w:     0.893 speedup
 analytical hessian:
 * wall-time:     0 d,  0 h,  0 min,  8.810 sec
 *  cpu-time:     0 d,  0 h,  0 min,  8.807 sec
 * ratio c/w:     1.000 speedup

