38
 energy: -64.689699032431 gnorm: 0.051879629123 xtb: 6.7.1 (edcfbbe)
C            5.01858444542058       -2.47815036356366       -1.94523019120741
C            4.96296556038028       -2.11308886009192       -0.48058282403150
O            3.59777418574361       -2.24881366600981        0.04172333496800
C            2.75397098981493       -1.24076657329682       -0.20155250256719
O            3.04604595773441       -0.22213596905225       -0.80358867136012
C            1.40043543454251       -1.51668902652623        0.40159062218662
C            0.33693634087535       -0.56632555420846       -0.14659224101552
H            0.17410965020157       -0.73685572670379       -1.21372992321952
C            0.67294823291898        0.90528867425364        0.04021912499883
O            0.58328438902612        1.72522116816566       -0.85576217170514
O            1.02997800951832        1.17898158468756        1.29524559929818
C            1.38417032104768        2.57004161232060        1.59676393013183
C            2.83645245545333        2.82257603250994        1.26480159785984
S           -1.23415916514534       -0.98037070397511        0.75319304319599
P           -2.64153845980555        0.24113198015735       -0.27072332683916
S           -2.64601071257423        0.11611393642746       -2.20521468507573
O           -3.97609896403998       -0.16553962567768        0.52868376533858
C           -4.69798327205143       -1.39381346318754        0.23139723109755
O           -2.41934624213922        1.75066021570177        0.22394688541934
C           -2.44024080905789        2.09534853817145        1.64322393452713
H            4.39903108431656       -1.80895645006795       -2.54845694012699
H            6.05408479544616       -2.39011346249206       -2.29078798639627
H            4.68963815803005       -3.50935411760172       -2.10280296449351
H            5.30822423842221       -1.09445037352788       -0.29189549039527
H            5.53954095315208       -2.80899856303469        0.12913839830624
H            1.50495770582103       -1.41605171527565        1.48916616137447
H            1.12305765155069       -2.55464255759921        0.19776628368274
H            0.71072295901687        3.22928112699538        1.04336765707990
H            1.18855640599910        2.66422978303390        2.66618043309799
H            3.09064985666699        3.85012015104767        1.54418086926800
H            3.48574542687568        2.14211791943941        1.82467336629108
H            3.02790827659989        2.69928178468883        0.19463293504810
H           -4.76295061620855       -1.54511393745839       -0.84987250411829
H           -5.69507757092355       -1.25894737983694        0.65177627019671
H           -4.19985536795645       -2.24234032458389        0.70860396271385
H           -2.04192519560038        3.10792617138870        1.70431515840371
H           -1.80931611733331        1.40870113838586        2.21504551086494
H           -3.46827285496759        2.06750689749089        2.01163392267607
38
 energy: -64.693100654781 gnorm: 0.023144311444 xtb: 6.7.1 (edcfbbe)
C            5.02415452440708       -2.47792523896070       -1.94888136696052
C            4.95742804172961       -2.11045940945668       -0.48203405095446
O            3.60065135440119       -2.22876661597672        0.03139217781355
C            2.75665039472441       -1.23196281375364       -0.20394544771709
O            3.04197723169312       -0.21401126418503       -0.79710633872542
C            1.40446650959503       -1.51811420515797        0.40141275950555
C            0.33556834879429       -0.57725481852764       -0.14206852334910
H            0.14548855287806       -0.74650289884739       -1.20571145628197
C            0.66890480481657        0.89213030531890        0.04159901101448
O            0.54440720959696        1.70750178170267       -0.84461505451634
O            1.02740688649351        1.17379539428835        1.28453479652137
C            1.38316293956265        2.55227303789133        1.59128915387595
C            2.83644316708074        2.82311475593630        1.26567791721355
S           -1.21140568287694       -0.95036790410413        0.79128959480780
P           -2.62114935035141        0.23573405292453       -0.25342548044813
S           -2.64470986585142        0.10881102039697       -2.20220618440647
O           -3.97493307166043       -0.15530965044529        0.51426185481710
C           -4.68558021007723       -1.37961691945476        0.22685324019995
O           -2.40379521969195        1.73875694909283        0.24164358578473
C           -2.44194133483945        2.09094253120557        1.64716656053259
H            4.40457440677853       -1.80637701801093       -2.54138050615402
H            6.05318554928129       -2.39358455767057       -2.29342851853514
H            4.68363589290650       -3.50035948307916       -2.10103715336840
H            5.29581142243017       -1.08615987557708       -0.30994900161013
H            5.52939329887294       -2.80651377291229        0.13236816739925
H            1.49626743331973       -1.40311564810883        1.48582161065172
H            1.12753147072651       -2.55460785274637        0.20152906131662
H            0.71924067479814        3.20956410304797        1.02379070909749
H            1.18728603641749        2.64374346232559        2.66065860242606
H            3.08575231522609        3.84693891765085        1.53906960278446
H            3.48053652626078        2.14250142387093        1.81914172761213
H            3.01981154873988        2.68878417714299        0.20032328080747
H           -4.73759859192049       -1.53880648242747       -0.85076163403854
H           -5.68193145652840       -1.23948455089253        0.64167543088891
H           -4.18326997072670       -2.21681886496411        0.71138508891177
H           -2.04794414680301        3.10398514769224        1.69716708780978
H           -1.81789651199218        1.40376282307013        2.21975594535123
H           -3.47058299144017        2.05679026279566        2.00122132539633
38
 energy: -64.694330763628 gnorm: 0.008926437332 xtb: 6.7.1 (edcfbbe)
C            5.02472167078568       -2.47533493217636       -1.95360093113943
C            4.94850043506214       -2.09932041260128       -0.48436185802062
O            3.59879423843895       -2.20965291461457        0.01580711697030
C            2.75366430179577       -1.22089834686674       -0.20485514567736
O            3.02907288557106       -0.19462822796930       -0.78514890348100
C            1.40348598251623       -1.52393543413605        0.40397974741410
C            0.32402257170614       -0.59325345934482       -0.13183868545198
H            0.11244933953860       -0.76296541419347       -1.19212122342220
C            0.65007467633436        0.87869067640039        0.04288802134555
O            0.49560551155264        1.69052064734589       -0.84071518710828
O            1.03042320679171        1.16378699581926        1.27132769078428
C            1.37851833746101        2.53184146711508        1.58230745153553
C            2.83518260753360        2.81367682439902        1.26069083254799
S           -1.20249937362849       -0.94983833919254        0.82050450538908
P           -2.59386800941751        0.24426096323440       -0.24009396393778
S           -2.60632895430136        0.08942005371261       -2.18747511173516
O           -3.96202652555383       -0.13827765234423        0.49811180781440
C           -4.66088909254623       -1.36205186305434        0.22338147180173
O           -2.38614520747206        1.73961515754609        0.25594941204734
C           -2.44373786456277        2.09329696485780        1.65193826979656
H            4.40910243502856       -1.80036484007283       -2.54276422522442
H            6.05137030388791       -2.39691542426254       -2.29222298842828
H            4.67472571007198       -3.49237471245975       -2.10093184268000
H            5.28845557556414       -1.07186061829461       -0.32848305913053
H            5.51755613457264       -2.79327427131675        0.13447381720880
H            1.48882731172796       -1.39700480273725        1.48590252323669
H            1.13727318898294       -2.56207294578854        0.20666509981414
H            0.72130589831367        3.19078304395718        1.00770216927509
H            1.18284387408834        2.62063699729665        2.65130959507079
H            3.07280299233119        3.83667481522560        1.52994249594355
H            3.47940641959684        2.13768241736150        1.81377387149253
H            3.01532531840190        2.67339591587653        0.19760537060435
H           -4.70738250472726       -1.53288481298842       -0.85158603530897
H           -5.65829774072042       -1.22092748074292        0.63195408420890
H           -4.15804736688026       -2.19251485215071        0.71500126997371
H           -2.05733806440194        3.10770163726233        1.70125443695346
H           -1.82581220796387        1.40996338139755        2.23380967555691
H           -3.47413987870854        2.05141409959477        1.99439599943449
38
 energy: -64.694791099737 gnorm: 0.006297530519 xtb: 6.7.1 (edcfbbe)
C            5.02329163427154       -2.47084110847328       -1.95953741326723
C            4.94172968150497       -2.08632026021016       -0.48966405678759
O            3.59532689241001       -2.19913175085730        0.00274331057101
C            2.74781845917047       -1.21270779330601       -0.20254807393828
O            3.01351960618588       -0.17496965086075       -0.77010275040207
C            1.40091975832565       -1.53128665734741        0.40961993187820
C            0.31152883302078       -0.61058317291418       -0.12208418675344
H            0.08732176119389       -0.78559183324116       -1.17932386657746
C            0.63677751598787        0.86342281587267        0.04144621840415
O            0.44832796243357        1.67414652005944       -0.83988901204430
O            1.03918618051484        1.15040889146197        1.26047761101744
C            1.37492819266412        2.51572352130726        1.57287400069294
C            2.83372118664048        2.80428370709623        1.25436763370824
S           -1.20276507917418       -0.94714015502889        0.84838163347043
P           -2.57456712975219        0.25305391179819       -0.23374525491020
S           -2.55741540247125        0.08044824104787       -2.17998751786912
O           -3.95393248303786       -0.11957105854652        0.48348859354803
C           -4.64226131596219       -1.34801103125630        0.22122814006888
O           -2.36755713714783        1.74174801841091        0.26458131451240
C           -2.44524551688411        2.09750143729802        1.65746879948820
H            4.41213542956025       -1.79450661303628       -2.55216595351797
H            6.05147336050770       -2.39900060114079       -2.29330804085942
H            4.66753843308733       -3.48648400006100       -2.10221627046205
H            5.28406197834181       -1.05778937727210       -0.34294214072492
H            5.51249987129078       -2.77559824121978        0.13240643535679
H            1.48786843602787       -1.39887916708824        1.49049062002944
H            1.14679327604535       -2.57226748825174        0.21369284701594
H            0.71978801381683        3.17562542906989        0.99646960363782
H            1.17780858677506        2.60552136567254        2.64131415519354
H            3.06250193544464        3.82986656859964        1.51941268442088
H            3.47952534065807        2.13370720168105        1.81229728231873
H            3.01546552906428        2.65868033461030        0.19203588018811
H           -4.68412880103699       -1.53247951434791       -0.85256269838230
H           -5.64261750100002       -1.21013352059143        0.62371557822930
H           -4.13668130985263       -2.17196890171454        0.72202055407579
H           -2.06454801004522        3.11369964795989        1.71259255388475
H           -1.83337714452939        1.41878319647970        2.25258051286447
H           -3.47976288727874        2.05165138943493        1.98884891739526
38
 energy: -64.695022681489 gnorm: 0.006813671046 xtb: 6.7.1 (edcfbbe)
C            5.02165809891605       -2.46482890699252       -1.96709965400073
C            4.93728957161257       -2.07235951006109       -0.49837221043907
O            3.59244287170839       -2.19384759878160       -0.00808234950005
C            2.74103563331327       -1.20749658122299       -0.19567650348718
O            2.99641400308008       -0.15860879445389       -0.75044827177880
C            1.39842161813322       -1.54163686231071        0.41870521632532
C            0.30259078640328       -0.62972366476186       -0.11264287255612
H            0.07303205968644       -0.81333245097708       -1.16690235501836
C            0.62070584622072        0.84737222466555        0.04154879687508
O            0.40963332431216        1.65504528209332       -0.83821172001390
O            1.04817359394066        1.13592283701493        1.25211177053168
C            1.37415207741350        2.50232671249833        1.56246109283218
C            2.83358097786076        2.79599575579803        1.24737144577216
S           -1.20792095074848       -0.95058202796282        0.86414430577021
P           -2.56040793059741        0.26441113948111       -0.22810007979551
S           -2.51125074024542        0.08163741710286       -2.17209171595836
O           -3.95116688489423       -0.09894458671951        0.46900914248417
C           -4.62729174311932       -1.33650542642023        0.21908668705220
O           -2.35242562397602        1.74842901694181        0.27274711087016
C           -2.44952197731764        2.10525235941216        1.66528650825039
H            4.41450556584911       -1.78951738901409       -2.56614446470911
H            6.05214442954016       -2.39914877301799       -2.29787537018873
H            4.66281524433117       -3.48070166242350       -2.10501742459841
H            5.27697586055486       -1.04225213415580       -0.35675050005493
H            5.51375456466223       -2.75464497839566        0.12642502056800
H            1.48832891453416       -1.40693005195143        1.49933192905550
H            1.15671078652929       -2.58575925612918        0.22338372139855
H            0.71787475185134        3.16014905937802        0.98487616037031
H            1.17385379646509        2.59563453147891        2.63022688242456
H            3.05630781665548        3.82535028422939        1.50639082818746
H            3.48077639069841        2.13201201363184        1.81312282401149
H            3.01985278427138        2.64363414710460        0.18608770344558
H           -4.66413165499294       -1.53560063102687       -0.85335713372370
H           -5.63120658029532       -1.20458133568193        0.61570482378461
H           -4.11630967134439       -2.15160291156757        0.73117188432443
H           -2.07358411895491        3.12331471913773        1.72689365787424
H           -1.84215334668401        1.42989749243917        2.27041603691073
H           -3.48866200860233        2.05523084271543        1.98474665217852
38
 energy: -64.695121548085 gnorm: 0.004984837405 xtb: 6.7.1 (edcfbbe)
C            5.02042393165562       -2.46017344868479       -1.97307373467606
C            4.93532101575218       -2.06283792340579       -0.50647399494516
O            3.59056338818962       -2.19453871454241       -0.01377222857476
C            2.73537751212202       -1.20825772945972       -0.18987850958291
O            2.98488482785517       -0.15393158652498       -0.73696302574470
C            1.39623117698108       -1.55004528715206        0.42734677083245
C            0.29817340315466       -0.64260686827912       -0.10503008609779
H            0.06823679783763       -0.83339219264249       -1.15768073458022
C            0.61837410609291        0.83483909133650        0.04130648553362
O            0.39150466230155        1.64110695966647       -0.83563134440389
O            1.05574830227930        1.12604429112103        1.24824205583442
C            1.37479765065859        2.49604343784199        1.55507416894799
C            2.83383556218092        2.79168666595338        1.24327562192142
S           -1.21457138739338       -0.95184375094756        0.87358753008916
P           -2.55341219460551        0.27294432947452       -0.22724588088080
S           -2.49135997460991        0.09326899916309       -2.17024457056973
O           -3.94980628672287       -0.08625766515581        0.45941590085504
C           -4.61808495145085       -1.33120866346761        0.21757301504831
O           -2.34460771517939        1.75492159848703        0.27804300776877
C           -2.45363679344662        2.11085358644322        1.67183454257755
H            4.41483662223075       -1.78756192740851       -2.57731608604194
H            6.05209000442393       -2.39690231634418       -2.30315801976293
H            4.66197799966939       -3.47706973460679       -2.10779934945626
H            5.26732548258140       -1.03015357746627       -0.36669700288003
H            5.51857731160704       -2.73822436096814        0.12010127325801
H            1.48895865880668       -1.41496142233446        1.50804907823706
H            1.16046025000663       -2.59575052911446        0.23310892651240
H            0.71659419723637        3.14906905459986        0.97417997373587
H            1.17004238795092        2.59325688630451        2.62203965200353
H            3.05374635581709        3.82383726559205        1.49650306869109
H            3.48146475685478        2.13332454837689        1.81613295164718
H            3.02547719620293        2.63333132303992        0.18342043064295
H           -4.65274646338078       -1.53803880563934       -0.85349213401205
H           -5.62346973755963       -1.20368456541133        0.61237072909002
H           -4.10174492086661       -2.13911867582244        0.73635318881495
H           -2.08095195433169        3.13016665292743        1.73726715072407
H           -1.84823863984890        1.43700012650132        2.28070036969490
H           -3.49539440428169        2.05787522964392        1.98300838522310
38
 energy: -64.695170585558 gnorm: 0.002298714999 xtb: 6.7.1 (edcfbbe)
C            5.01931642907847       -2.45666711092445       -1.97809863150304
C            4.93485890972709       -2.05613127950922       -0.51376949785235
O            3.59052170140917       -2.19780697934346       -0.01593231229647
C            2.73202788994245       -1.21217119069470       -0.18361309146769
O            2.97766357228138       -0.15581215807153       -0.72710168757529
C            1.39541637555737       -1.55801102799403        0.43570199919426
C            0.29896672566601       -0.65165846141200       -0.10019132257366
H            0.07148203176922       -0.84692851347441       -1.15230737092851
C            0.61687834443753        0.82636859382209        0.04259907196661
O            0.38594025078605        1.63091118778188       -0.83290233214298
O            1.05978151542711        1.11999190145242        1.24733935538850
C            1.37694567241630        2.49329416795568        1.54945287043170
C            2.83518085033232        2.78950804707656        1.24066395561890
S           -1.22004927789700       -0.95243380805838        0.87265106280526
P           -2.55237051809188        0.28001745703030       -0.22711240558767
S           -2.48401277096247        0.10582629705594       -2.17052017152080
O           -3.95166332509875       -0.07798598371809        0.45350172688283
C           -4.61352590351838       -1.32868458188069        0.21657651263229
O           -2.34263072465278        1.76128885040837        0.28314619971777
C           -2.45754002939014        2.11498881308297        1.67811533886845
H            4.41311185850076       -1.78739772897778       -2.58541115749615
H            6.05100387143231       -2.39313459211210       -2.30898109659602
H            4.66288324286054       -3.47475011430131       -2.11015464345380
H            5.25635064196797       -1.02002129527657       -0.37547409905342
H            5.52506359077895       -2.72474514862875        0.11393996000185
H            1.48863850180310       -1.42216841416834        1.51647596403672
H            1.16195467307120       -2.60442901475439        0.24274994370150
H            0.71736460447122        3.14094234294876        0.96410390674758
H            1.16800717370885        2.59426344765257        2.61548639264340
H            3.05368884064504        3.82354199573355        1.48840689140605
H            3.48221683008756        2.13572159427191        1.81954268256188
H            3.03118685396810        2.62556539782583        0.18244218860451
H           -4.64710050108449       -1.53873432856045       -0.85329688739775
H           -5.61902540744195       -1.20480526650506        0.61193478839493
H           -4.09159198040294       -2.13047347618275        0.73862816059776
H           -2.08718037751447        3.13502496521000        1.74514751881881
H           -1.85251234454934        1.44128851771735        2.28665388622309
H           -3.50024965475022        2.05941719861713        1.98408390567575
38
 energy: -64.695182270969 gnorm: 0.001362604750 xtb: 6.7.1 (edcfbbe)
C            5.01857582984784       -2.45597748130367       -1.97974072294541
C            4.93470658176791       -2.05447825660718       -0.51623368281033
O            3.59078839657389       -2.20012358054101       -0.01591662879879
C            2.73109450890537       -1.21547322142187       -0.18181318930401
O            2.97643593911776       -0.15913063372099       -0.72477629406266
C            1.39495115261500       -1.56063940357748        0.43871088543876
C            0.29980262532184       -0.65356378727077       -0.09878861077708
H            0.07322956164617       -0.84914979169532       -1.15120300319459
C            0.61889330757859        0.82406444881482        0.04318134265706
O            0.38386051851894        1.62899633512221       -0.83138975903261
O            1.06178680997670        1.11894003605491        1.24765229479923
C            1.37833442009879        2.49357429156268        1.54774893908264
C            2.83631828257165        2.78967576637316        1.24017982985540
S           -1.22098183863967       -0.95291655286737        0.87303411120606
P           -2.55152492586941        0.28130054684425       -0.22751605436632
S           -2.48698187151777        0.11255560197139       -2.17178843852485
O           -3.95103869962357       -0.07697189880920        0.45230260214116
C           -4.61215854594909       -1.32832086839234        0.21602248642146
O           -2.34225701366956        1.76290821334351        0.28511850295667
C           -2.45854898785029        2.11522913807899        1.68029304707951
H            4.41080369295532       -1.78846444413900       -2.58710789160146
H            6.04966170701050       -2.39088710683156       -2.31154522590544
H            4.66378209885823       -3.47463128169651       -2.11061604637224
H            5.25043113240614       -1.01647237485002       -0.37926141689951
H            5.52791075567072       -2.71994635415514        0.11178886415794
H            1.48760678999301       -1.42376127418792        1.51932160919055
H            1.16027101517172       -2.60689195954062        0.24684138635095
H            0.71877728211100        3.13866856711353        0.95962267511788
H            1.16778405572059        2.59592620538535        2.61326054533766
H            3.05408859815479        3.82417263613817        1.48551738569884
H            3.48276702413176        2.13771531998511        1.82125684982999
H            3.03371249099502        2.62320092829283        0.18284372675983
H           -4.64670972843895       -1.53770079413958       -0.85352861674618
H           -5.61685465149105       -1.20496908221199        0.61316315903731
H           -4.08856704635976       -2.12880579839497        0.73731743667228
H           -2.08928025003849        3.13549345979599        1.74749927599093
H           -1.85328471742236        1.44144781219719        2.28801806416025
H           -3.50118816407802        2.05841694037518        1.98500813687398
38
 energy: -64.695168488003 gnorm: 0.003461023616 xtb: 6.7.1 (edcfbbe)
C            5.01747106536519       -2.45494450990832       -1.98219528371941
C            4.93447911548202       -2.05200716672291       -0.51991844822890
O            3.59118580990600       -2.20358824593065       -0.01589351763150
C            2.72969643134919       -1.22041222553746       -0.17912584519170
O            2.97459977451141       -0.16409565495473       -0.72130117306473
C            1.39425474011766       -1.56457040172805        0.44320960375722
C            0.30105029284998       -0.65641373282096       -0.09668731355223
H            0.07583502657926       -0.85247577246387       -1.14954657467980
C            0.62191741603643        0.82061635258003        0.04404875284662
O            0.38074444104001        1.62613446118551       -0.82912723311228
O            1.06478761487606        1.11736521024481        1.24812003974032
C            1.38040927071019        2.49399302244752        1.54520199564445
C            2.83801581405044        2.78992757958845        1.23945721344782
S           -1.22237477405401       -0.95363683159430        0.87362309362221
P           -2.55025513179329        0.28321668548966       -0.22812099566628
S           -2.49143210969354        0.12262806145082       -2.17368723955551
O           -3.95009947791090       -0.07545767261873        0.45050780205214
C           -4.61011091831987       -1.32777858774395        0.21519287959570
O           -2.34169661705908        1.76532841255910        0.28806449281010
C           -2.46005784932480        2.11559092617373        1.68354655820196
H            4.40735819882452       -1.79005655522644       -2.58964551272597
H            6.04765798447153       -2.38752654736059       -2.31537668142575
H            4.66512725155922       -3.47445076609233       -2.11130746309969
H            5.24157815347174       -1.01116571381313       -0.38492113258605
H            5.53216750870687       -2.71277264157195        0.10857295435142
H            1.48606644015304       -1.42614696520988        1.52357663072730
H            1.15775245899042       -2.61057511287742        0.25295863599348
H            0.72088554530281        3.13526604236361        0.95292222497596
H            1.16744731178376        2.59841095062580        2.60993340632647
H            3.05468505666940        3.82511547827861        1.48120050554685
H            3.48358622665115        2.14069557430312        1.82381881258970
H            3.03748590697780        2.61966877252179        0.18344532215985
H           -4.64611991749813       -1.53615731581722       -0.85387502125953
H           -5.61360565481915       -1.20521357681154        0.61499741122044
H           -4.08404257558496       -2.12631164294685        0.73535884197609
H           -2.09242001765809        3.13619642367369        1.75100963741730
H           -1.85444009976404        1.44168887153725        2.29005456521020
H           -3.50259157618503        2.05692511582247        1.98638563076067
38
 energy: -64.695184070447 gnorm: 0.001415105145 xtb: 6.7.1 (edcfbbe)
C            5.01755970595127       -2.45593152955052       -1.98101973267401
C            4.93455081310723       -2.05346226877229       -0.51798634544881
O            3.59129957805248       -2.20211030975991       -0.01561443188762
C            2.73086205287312       -1.21837499533176       -0.18008992186864
O            2.97607139060106       -0.16215292785046       -0.72324918482483
C            1.39467899201854       -1.56238020201312        0.44099545703167
C            0.30095215428441       -0.65436855608321       -0.09838998023694
H            0.07573407074613       -0.84921655593489       -1.15136272785360
C            0.61987315185380        0.82295173043714        0.04410694797356
O            0.38335534434844        1.62788805897754       -0.83018205020745
O            1.06315070185506        1.11885880947098        1.24810687116377
C            1.37980713502711        2.49423704884901        1.54645648815943
C            2.83784703607019        2.79003000402767        1.23985955205557
S           -1.22146375781695       -0.95327680848740        0.87143598042706
P           -2.55151664073824        0.28213046097519       -0.22779562776973
S           -2.48994450395342        0.11692767278193       -2.17288300802838
O           -3.95087090550262       -0.07662843929144        0.45197860307269
C           -4.61165160422568       -1.32801735837788        0.21571198521488
O           -2.34232604759156        1.76398429454789        0.28710459895101
C           -2.45912895679151        2.11457182584323        1.68225957268008
H            4.40770584758343       -1.79005430412319       -2.58782216916342
H            6.04787958985575       -2.38892097578733       -2.31398311096626
H            4.66448588807651       -3.47517371513685       -2.11061671166065
H            5.24553413859961       -1.01389245218093       -0.38280321747768
H            5.53024627120062       -2.71619747195976        0.11015755840195
H            1.48617864070851       -1.42397022186693        1.52135111920263
H            1.15833459825449       -2.60840828336904        0.25019421588048
H            0.72083157601317        3.13754024488274        0.95586933501932
H            1.16814481090458        2.59783887420126        2.61146967543560
H            3.05468615689680        3.82494234370194        1.48291113175055
H            3.48371356417256        2.13974677793168        1.82292529107214
H            3.03619000050746        2.62112879685612        0.18331955113402
H           -4.64774525714416       -1.53616771165878       -0.85380977059756