      -----------------------------------------------------------      
     |                   =====================                   |     
     |                           x T B                           |     
     |                   =====================                   |     
     |                         S. Grimme                         |     
     |          Mulliken Center for Theoretical Chemistry        |     
     |                    University of Bonn                     |     
      -----------------------------------------------------------      

   * xtb version 6.7.1 (edcfbbe) compiled by 'albert@albert-system' on 2024-07-22

   xtb is free software: you can redistribute it and/or modify it under
   the terms of the GNU Lesser General Public License as published by
   the Free Software Foundation, either version 3 of the License, or
   (at your option) any later version.
   
   xtb is distributed in the hope that it will be useful,
   but WITHOUT ANY WARRANTY; without even the implied warranty of
   MERCHANTABILITY or FITNESS FOR A PARTICULAR PURPOSE.  See the
   GNU Lesser General Public License for more details.
   
   Cite this work as:
   * C. Bannwarth, E. Caldeweyher, S. Ehlert, A. Hansen, P. Pracht,
     J. Seibert, S. Spicher, S. Grimme, WIREs Comput. Mol. Sci., 2020, 11,
     e01493. DOI: 10.1002/wcms.1493
   
   for GFN2-xTB:
   * C. Bannwarth, S. Ehlert and S. Grimme., J. Chem. Theory Comput., 2019,
     15, 1652-1671. DOI: 10.1021/acs.jctc.8b01176
   for GFN1-xTB:
   * S. Grimme, C. Bannwarth, P. Shushkov, J. Chem. Theory Comput., 2017,
     13, 1989-2009. DOI: 10.1021/acs.jctc.7b00118
   for GFN0-xTB:
   * P. Pracht, E. Caldeweyher, S. Ehlert, S. Grimme, ChemRxiv, 2019, preprint.
     DOI: 10.26434/chemrxiv.8326202.v1
   for GFN-FF:
   * S. Spicher and S. Grimme, Angew. Chem. Int. Ed., 2020, 59, 15665-15673.
     DOI: 10.1002/anie.202004239
   
   for ALPB and GBSA implicit solvation:
   * S. Ehlert, M. Stahn, S. Spicher, S. Grimme, J. Chem. Theory Comput.,
     2021, 17, 4250-4261. DOI: 10.1021/acs.jctc.1c00471
   
   for ddCOSMO and CPCM-X implicit solvation:
   * M. Stahn, S. Ehlert, S. Grimme, J. Phys. Chem. A,
     2023, XX, XXXX-XXXX. DOI: 10.1021/acs.jpca.3c04382
   
   for DFT-D4:
   * E. Caldeweyher, C. Bannwarth and S. Grimme, J. Chem. Phys., 2017,
     147, 034112. DOI: 10.1063/1.4993215
   * E. Caldeweyher, S. Ehlert, A. Hansen, H. Neugebauer, S. Spicher,
     C. Bannwarth and S. Grimme, J. Chem. Phys., 2019, 150, 154122.
     DOI: 10.1063/1.5090222
   * E. Caldeweyher, J.-M. Mewes, S. Ehlert and S. Grimme, Phys. Chem. Chem. Phys.
     2020, 22, 8499-8512. DOI: 10.1039/D0CP00502A
   
   for sTDA-xTB:
   * S. Grimme and C. Bannwarth, J. Chem. Phys., 2016, 145, 054103.
     DOI: 10.1063/1.4959605
   
   in the mass-spec context:
   * V. Asgeirsson, C. Bauer and S. Grimme, Chem. Sci., 2017, 8, 4879.
     DOI: 10.1039/c7sc00601b
   * J. Koopman and S. Grimme, ACS Omega 2019, 4, 12, 15120-15133.
     DOI: 10.1021/acsomega.9b02011
   
   for metadynamics refer to:
   * S. Grimme, J. Chem. Theory Comput., 2019, 155, 2847-2862
     DOI: 10.1021/acs.jctc.9b00143
   
   for SPH calculations refer to:
   * S. Spicher and S. Grimme, J. Chem. Theory Comput., 2021, 17, 1701-1714
     DOI: 10.1021/acs.jctc.0c01306
   
   for ONIOM refer to:
   * C. Plett, A. Katbashev, S. Ehlert, S. Grimme, M. Bursch,
     Phys. Chem. Chem. Phys., 2023, 25, 17860-17868. DOI: 10.1039/D3CP02178E
   
   for DIPRO refer to:
   * J. Kohn, N. Gildemeister, S. Grimme, D. Fazzi, A. Hansen,
     J. Chem. Phys., 2023, just accepted.
   
   for PTB refer to:
   * S. Grimme, M. Mueller, A. Hansen, J. Chem. Phys., 2023, 158, 124111.
     DOI: 10.1063/5.0137838
   
   with help from (in alphabetical order)
   P. Atkinson, C. Bannwarth, F. Bohle, G. Brandenburg, E. Caldeweyher
   M. Checinski, S. Dohm, S. Ehlert, S. Ehrlich, I. Gerasimov, C. Hölzer
   A. Katbashev, J. Kohn, J. Koopman, C. Lavigne, S. Lehtola, F. März, M. Müller,
   F. Musil, H. Neugebauer, J. Pisarek, C. Plett, P. Pracht, F. Pultar,
   J. Seibert, P. Shushkov, S. Spicher, M. Stahn, M. Steiner, T. Strunk,
   J. Stückrath, T. Rose, and J. Unsleber
   
 * started run on 2025/04/09 at 05:21:07.034     
   ID    Z sym.   atoms
    1    6 C      1, 2, 7, 8, 10, 15, 16, 18, 19
    2    8 O      3, 6, 14, 17
    3   15 P      4, 12
    4   16 S      5, 9, 11, 13
    5    1 H      20-41

           -------------------------------------------------
          |                Calculation Setup                |
           -------------------------------------------------

          program call               : /srv/scratch/z5358697/.xtb/bin/xtb gas.coord --gfn2 --sp --chrg 0 --norestart --parallel 1
          hostname                   : k163
          coordinate file            : gas.coord
          omp threads                :                     1


           -------------------------------------------------
          |                 G F N 2 - x T B                 |
           -------------------------------------------------

        Reference                      10.1021/acs.jctc.8b01176
      * Hamiltonian:
        H0-scaling (s, p, d)           1.850000    2.230000    2.230000
        zeta-weighting                 0.500000
      * Dispersion:
        s8                             2.700000
        a1                             0.520000
        a2                             5.000000
        s9                             5.000000
      * Repulsion:
        kExp                           1.500000    1.000000
        rExp                           1.000000
      * Coulomb:
        alpha                          2.000000
        third order                    shell-resolved
        anisotropic                    true
        a3                             3.000000
        a5                             4.000000
        cn-shift                       1.200000
        cn-exp                         4.000000
        max-rad                        5.000000


          ...................................................
          :                      SETUP                      :
          :.................................................:
          :  # basis functions                 134          :
          :  # atomic orbitals                 128          :
          :  # shells                           66          :
          :  # electrons                       116          :
          :  max. iterations                   250          :
          :  Hamiltonian                  GFN2-xTB          :
          :  restarted?                      false          :
          :  GBSA solvation                  false          :
          :  PC potential                    false          :
          :  electronic temp.          300.0000000     K    :
          :  accuracy                    1.0000000          :
          :  -> integral cutoff          0.2500000E+02      :
          :  -> integral neglect         0.1000000E-07      :
          :  -> SCF convergence          0.1000000E-05 Eh   :
          :  -> wf. convergence          0.1000000E-03 e    :
          :  Broyden damping             0.4000000          :
          :  net charge                          0          :
          :  unpaired electrons                  0          :
          ...................................................

 iter      E             dE          RMSdq      gap      omega  full diag
   1    -65.3869037 -0.653869E+02  0.639E+00    4.28       0.0  T
   2    -65.5520192 -0.165115E+00  0.393E+00    3.24       1.0  T
   3    -65.5704936 -0.184745E-01  0.131E+00    3.04       1.0  T
   4    -65.5725947 -0.210106E-02  0.517E-01    2.82       1.0  T
   5    -65.5733609 -0.766228E-03  0.262E-01    2.93       1.0  T
   6    -65.5736758 -0.314837E-03  0.118E-01    2.90       1.0  T
   7    -65.5737170 -0.412374E-04  0.407E-02    2.91       1.0  T
   8    -65.5737227 -0.573717E-05  0.192E-02    2.92       1.0  T
   9    -65.5737237 -0.937063E-06  0.473E-03    2.92       3.3  T
  10    -65.5737237 -0.334343E-07  0.217E-03    2.92       7.2  T
  11    -65.5737237 -0.729838E-08  0.458E-04    2.92      34.1  T
  12    -65.5737237 -0.378776E-09  0.220E-04    2.92      70.8  T

   *** convergence criteria satisfied after 12 iterations ***

         #    Occupation            Energy/Eh            Energy/eV
      -------------------------------------------------------------
         1        2.0000           -0.7522255             -20.4691
       ...           ...                  ...                  ...
        52        2.0000           -0.4350434             -11.8381
        53        2.0000           -0.4063194             -11.0565
        54        2.0000           -0.3971129             -10.8060
        55        2.0000           -0.3757107             -10.2236
        56        2.0000           -0.3727236             -10.1423
        57        2.0000           -0.3685084             -10.0276
        58        2.0000           -0.3630090              -9.8780 (HOMO)
        59                         -0.2558456              -6.9619 (LUMO)
        60                         -0.2431215              -6.6157
        61                         -0.2066305              -5.6227
        62                         -0.1801534              -4.9022
        63                         -0.1626600              -4.4262
       ...                                ...                  ...
       128                          1.2694075              34.5423
      -------------------------------------------------------------
                  HL-Gap            0.1071634 Eh            2.9161 eV
             Fermi-level           -0.3094273 Eh           -8.4199 eV

 SCC (total)                   0 d,  0 h,  0 min,  0.049 sec
 SCC setup                      ...        0 min,  0.000 sec (  0.477%)
 Dispersion                     ...        0 min,  0.000 sec (  0.556%)
 classical contributions        ...        0 min,  0.000 sec (  0.103%)
 integral evaluation            ...        0 min,  0.007 sec ( 14.894%)
 iterations                     ...        0 min,  0.021 sec ( 43.646%)
 molecular gradient             ...        0 min,  0.019 sec ( 39.920%)
 printout                       ...        0 min,  0.000 sec (  0.377%)

         :::::::::::::::::::::::::::::::::::::::::::::::::::::
         ::                     SUMMARY                     ::
         :::::::::::::::::::::::::::::::::::::::::::::::::::::
         :: total energy             -65.012074404352 Eh    ::
         :: gradient norm              0.027281980958 Eh/a0 ::
         :: HOMO-LUMO gap              2.916064350275 eV    ::
         ::.................................................::
         :: SCC energy               -65.572848698909 Eh    ::
         :: -> isotropic ES            0.104963359732 Eh    ::
         :: -> anisotropic ES         -0.009084214539 Eh    ::
         :: -> anisotropic XC          0.030617616072 Eh    ::
         :: -> dispersion             -0.053642312444 Eh    ::
         :: repulsion energy           0.560774294557 Eh    ::
         :: add. restraining           0.000000000000 Eh    ::
         :: total charge              -0.000000000000 e     ::
         :::::::::::::::::::::::::::::::::::::::::::::::::::::

           -------------------------------------------------
          |                Property Printout                |
           -------------------------------------------------

    * Orbital Energies and Occupations

         #    Occupation            Energy/Eh            Energy/eV
      -------------------------------------------------------------
         1        2.0000           -0.7522255             -20.4691
       ...           ...                  ...                  ...
        46        2.0000           -0.4650465             -12.6546
        47        2.0000           -0.4585861             -12.4788
        48        2.0000           -0.4562540             -12.4153
        49        2.0000           -0.4480606             -12.1924
        50        2.0000           -0.4455852             -12.1250
        51        2.0000           -0.4404263             -11.9846
        52        2.0000           -0.4350434             -11.8381
        53        2.0000           -0.4063194             -11.0565
        54        2.0000           -0.3971129             -10.8060
        55        2.0000           -0.3757107             -10.2236
        56        2.0000           -0.3727236             -10.1423
        57        2.0000           -0.3685084             -10.0276
        58        2.0000           -0.3630090              -9.8780 (HOMO)
        59                         -0.2558456              -6.9619 (LUMO)
        60                         -0.2431215              -6.6157
        61                         -0.2066305              -5.6227
        62                         -0.1801534              -4.9022
        63                         -0.1626600              -4.4262
        64                         -0.1503443              -4.0911
        65                         -0.1389004              -3.7797
        66                         -0.1367450              -3.7210
        67                         -0.1220609              -3.3214
        68                         -0.1168838              -3.1806
        69                         -0.0332676              -0.9053
       ...                                ...                  ...
       128                          1.2694075              34.5423
      -------------------------------------------------------------
                  HL-Gap            0.1071634 Eh            2.9161 eV
             Fermi-level           -0.3094273 Eh           -8.4199 eV

     #   Z          covCN         q      C6AA      α(0)
     1   6 C        3.751    -0.118    22.819     6.812
     2   6 C        3.830     0.083    19.177     6.231
     3   8 O        1.655    -0.235    17.905     5.712
     4  15 P        3.826     0.378   144.511    21.594
     5  16 S        0.926    -0.433   158.170    21.272
     6   8 O        1.656    -0.253    18.210     5.761
     7   6 C        3.862     0.085    19.141     6.222
     8   6 C        3.751    -0.114    22.738     6.800
     9  16 S        2.000    -0.116   145.907    20.330
    10   6 C        3.808     0.039    19.921     6.354
    11  16 S        2.000    -0.123   146.208    20.351
    12  15 P        3.857     0.380   144.446    21.589
    13  16 S        0.926    -0.426   157.873    21.252
    14   8 O        1.655    -0.236    17.930     5.716
    15   6 C        3.865     0.083    19.165     6.225
    16   6 C        3.751    -0.113    22.723     6.798
    17   8 O        1.655    -0.248    18.131     5.748
    18   6 C        3.865     0.085    19.127     6.219
    19   6 C        3.752    -0.115    22.766     6.804
    20   1 H        0.925     0.070     2.082     2.256
    21   1 H        0.925     0.061     2.189     2.313
    22   1 H        0.925     0.058     2.221     2.331
    23   1 H        0.924     0.069     2.092     2.262
    24   1 H        0.924     0.060     2.202     2.320
    25   1 H        0.924     0.060     2.203     2.321
    26   1 H        0.924     0.063     2.161     2.299
    27   1 H        0.925     0.061     2.183     2.310
    28   1 H        0.925     0.061     2.189     2.314
    29   1 H        0.925     0.058     2.225     2.332
    30   1 H        0.924     0.080     1.982     2.202
    31   1 H        0.925     0.081     1.966     2.193
    32   1 H        0.924     0.067     2.119     2.277
    33   1 H        0.924     0.074     2.039     2.233
    34   1 H        0.925     0.059     2.209     2.324
    35   1 H        0.925     0.058     2.225     2.333
    36   1 H        0.925     0.060     2.193     2.316
    37   1 H        0.924     0.060     2.195     2.317
    38   1 H        0.924     0.050     2.315     2.379
    39   1 H        0.925     0.060     2.201     2.320
    40   1 H        0.925     0.063     2.162     2.300
    41   1 H        0.925     0.062     2.179     2.308

 Mol. C6AA /au·bohr⁶  :      26555.874081
 Mol. C8AA /au·bohr⁸  :     863449.153290
 Mol. α(0) /au        :        258.353033


Wiberg/Mayer (AO) data.
largest (>0.10) Wiberg bond orders for each atom

 ---------------------------------------------------------------------------
     #   Z sym  total        # sym  WBO       # sym  WBO       # sym  WBO
 ---------------------------------------------------------------------------
     1   6 C    3.988 --     2 C    1.020    22 H    0.985    21 H    0.980
                            20 H    0.978
     2   6 C    3.903 --     1 C    1.020    24 H    0.970    23 H    0.966
                             3 O    0.897
     3   8 O    2.431 --     4 P    1.335     2 C    0.897
     4  15 P    5.286 --     5 S    1.509     3 O    1.335     6 O    1.306
                             9 S    0.999
     5  16 S    1.868 --     4 P    1.509     9 S    0.141
     6   8 O    2.395 --     4 P    1.306     7 C    0.899
     7   6 C    3.911 --     8 C    1.023    26 H    0.970    25 H    0.968
                             6 O    0.899
     8   6 C    3.991 --     7 C    1.023    27 H    0.984    29 H    0.980
                            28 H    0.977
     9  16 S    2.290 --     4 P    0.999    10 C    0.980     5 S    0.141
    10   6 C    3.962 --    11 S    0.991     9 S    0.980    31 H    0.969
                            30 H    0.948
    11  16 S    2.288 --    10 C    0.991    12 P    0.990    13 S    0.139
    12  15 P    5.275 --    13 S    1.521    14 O    1.330    17 O    1.308
                            11 S    0.990
    13  16 S    1.861 --    12 P    1.521    11 S    0.139
    14   8 O    2.418 --    12 P    1.330    15 C    0.892
    15   6 C    3.904 --    16 C    1.023    32 H    0.969    33 H    0.964
                            14 O    0.892
    16   6 C    3.992 --    15 C    1.023    34 H    0.984    35 H    0.980
                            36 H    0.975
    17   8 O    2.405 --    12 P    1.308    18 C    0.905
    18   6 C    3.911 --    19 C    1.019    38 H    0.974    37 H    0.965
                            17 O    0.905
    19   6 C    3.989 --    18 C    1.019    41 H    0.985    40 H    0.984
                            39 H    0.980
    20   1 H    0.995 --     1 C    0.978
    21   1 H    0.995 --     1 C    0.980
    22   1 H    0.997 --     1 C    0.985
    23   1 H    0.995 --     2 C    0.966
    24   1 H    0.996 --     2 C    0.970
    25   1 H    0.996 --     7 C    0.968
    26   1 H    0.995 --     7 C    0.970
    27   1 H    0.996 --     8 C    0.984
    28   1 H    0.996 --     8 C    0.977
    29   1 H    0.996 --     8 C    0.980
    30   1 H    0.994 --    10 C    0.948
    31   1 H    0.993 --    10 C    0.969
    32   1 H    0.995 --    15 C    0.969
    33   1 H    0.994 --    15 C    0.964
    34   1 H    0.996 --    16 C    0.984
    35   1 H    0.996 --    16 C    0.980
    36   1 H    0.996 --    16 C    0.975
    37   1 H    0.996 --    18 C    0.965
    38   1 H    0.997 --    18 C    0.974
    39   1 H    0.995 --    19 C    0.980
    40   1 H    0.996 --    19 C    0.984
    41   1 H    0.996 --    19 C    0.985
 ---------------------------------------------------------------------------

Topologies differ in total number of bonds
Writing topology from bond orders to xtbtopo.mol

molecular dipole:
                 x           y           z       tot (Debye)
 q only:       -0.195       0.103      -0.236
   full:        0.049       0.159       0.209       0.679
molecular quadrupole (traceless):
                xx          xy          yy          xz          yz          zz
 q only:       16.945      -1.470     -13.652      10.637      -0.578      -3.293
  q+dip:       20.729      -3.409     -16.305       8.624      -2.920      -4.424
   full:       20.477      -2.680     -16.263      10.614      -2.494      -4.213


           -------------------------------------------------
          | TOTAL ENERGY              -65.012074404352 Eh   |
          | GRADIENT NORM               0.027281980958 Eh/α |
          | HOMO-LUMO GAP               2.916064350275 eV   |
           -------------------------------------------------

------------------------------------------------------------------------
 * finished run on 2025/04/09 at 05:21:07.127     
------------------------------------------------------------------------
 total:
 * wall-time:     0 d,  0 h,  0 min,  0.093 sec
 *  cpu-time:     0 d,  0 h,  0 min,  0.060 sec
 * ratio c/w:     0.650 speedup
 SCF:
 * wall-time:     0 d,  0 h,  0 min,  0.049 sec
 *  cpu-time:     0 d,  0 h,  0 min,  0.048 sec
 * ratio c/w:     0.991 speedup

