
                                 *****************
                                 * O   R   C   A *
                                 *****************

                                            #,                                       
                                            ###                                      
                                            ####                                     
                                            #####                                    
                                            ######                                   
                                           ########,                                 
                                     ,,################,,,,,                         
                               ,,#################################,,                 
                          ,,##########################################,,             
                       ,#########################################, ''#####,          
                    ,#############################################,,   '####,        
                  ,##################################################,,,,####,       
                ,###########''''           ''''###############################       
              ,#####''   ,,,,##########,,,,          '''####'''          '####       
            ,##' ,,,,###########################,,,                        '##       
           ' ,,###''''                  '''############,,,                           
         ,,##''                                '''############,,,,        ,,,,,,###''
      ,#''                                            '''#######################'''  
     '                                                          ''''####''''         
             ,#######,   #######,   ,#######,      ##                                
            ,#'     '#,  ##    ##  ,#'     '#,    #''#        ,####,   ,####,        
            ##       ##  ##   ,#'  ##            #'  '#       #'       #'  '#        
            ##       ##  #######   ##           ,######,      #####,   #    #        
            '#,     ,#'  ##    ##  '#,     ,#' ,#      #,     #,   #   #,  ,#        
             '#######'   ##     ##  '#######'  #'      '#     '####' # '####'        



                #########################################################
                #                        -***-                          #
                #          Department of theory and spectroscopy        #
                #                                                       #
                #                      Frank Neese                      #
                #                                                       #
                #     Directorship, Architecture, Infrastructure        #
                #                    SHARK, DRIVERS                     #
                #        Core code/Algorithms in most modules           #
                #                                                       #
                #        Max Planck Institute fuer Kohlenforschung      #
                #                Kaiser Wilhelm Platz 1                 #
                #                 D-45470 Muelheim/Ruhr                 #
                #                      Germany                          #
                #                                                       #
                #                  All rights reserved                  #
                #                        -***-                          #
                #########################################################


                         Program Version 6.0.0  -   RELEASE  -


 With contributions from (in alphabetic order):
   Daniel Aravena         : Magnetic Suceptibility
   Michael Atanasov       : Ab Initio Ligand Field Theory (pilot matlab implementation)
   Alexander A. Auer      : GIAO ZORA, VPT2 properties, NMR spectrum
   Ute Becker             : All parallelization in ORCA, NUMFREQ, NUMCALC
   Giovanni Bistoni       : ED, misc. LED, open-shell LED, HFLD
   Martin Brehm           : Molecular dynamics
   Dmytro Bykov           : pre 5.0 version of the SCF Hessian
   Marcos Casanova-Páez   : Triplet and SCS-CIS(D). UHF-(DLPNO)-IP/EA/STEOM-CCSD. UHF-CVS-IP/STEOM-CCSD
   Vijay G. Chilkuri      : MRCI spin determinant printing, contributions to CSF-ICE
   Pauline Colinet        : FMM embedding
   Dipayan Datta          : RHF DLPNO-CCSD density
   Achintya Kumar Dutta   : EOM-CC, STEOM-CC
   Nicolas Foglia         : Exact transition moments, OPA infrastructure, MCD improvements
   Dmitry Ganyushin       : Spin-Orbit,Spin-Spin,Magnetic field MRCI
   Miquel Garcia          : C-PCM and meta-GGA Hessian, CCSD/C-PCM, Gaussian charge scheme
   Tiago L. C. Gouveia    : GS-ROHF, GS-ROCIS
   Yang Guo               : DLPNO-NEVPT2, F12-NEVPT2, CIM, IAO-localization
   Andreas Hansen         : Spin unrestricted coupled pair/coupled cluster methods
   Ingolf Harden          : AUTO-CI MPn and infrastructure 
   Benjamin Helmich-Paris : MC-RPA, TRAH-(SCF,CASSCF), AVAS, COSX integrals, SCF dyn. polar.
   Lee Huntington         : MR-EOM, pCC
   Robert Izsak           : Overlap fitted RIJCOSX, COSX-SCS-MP3, EOM
   Riya Kayal             : Wick's Theorem for AUTO-CI, AUTO-CI UHF-CCSDT
   Emily Kempfer          : AUTO-CI, RHF CISDT and CCSDT
   Christian Kollmar      : KDIIS, OOCD, Brueckner-CCSD(T), CCSD density, CASPT2, CASPT2-K, improved NEVPT2
   Axel Koslowski         : Symmetry handling
   Simone Kossmann        : Meta GGA functionals, TD-DFT gradient, OOMP2, (MP2 Hessian; deprecated post 5.0)
   Lucas Lang             : DCDCAS
   Marvin Lechner         : AUTO-CI (C++ implementation), FIC-MRCC
   Spencer Leger          : CASSCF response
   Dagmar Lenk            : GEPOL surface, SMD, ORCA-2-JSON
   Dimitrios Liakos       : Extrapolation schemes; Compound Job, initial MDCI parallelization
   Dimitrios Manganas     : Further ROCIS development; embedding schemes. LFT, Crystal Embedding
   Dimitrios Pantazis     : SARC Basis sets
   Anastasios Papadopoulos: AUTO-CI, single reference methods and gradients
   Taras Petrenko         : pre 6.0 DFT Hessian and TD-DFT gradient, (ASA, deprecated), ECA, 1-Electron XAS/XES, NRVS
   Peter Pinski           : DLPNO-MP2, DLPNO-MP2 Gradient
   Christoph Reimann      : Effective Core Potentials
   Marius Retegan         : Local ZFS, SOC
   Christoph Riplinger    : Optimizer, TS searches, QM/MM, DLPNO-CCSD(T), (RO)-DLPNO pert. Triples
   Michael Roemelt        : Original ROCIS implementation
   Masaaki Saitow         : Open-shell DLPNO-CCSD energy and density
   Barbara Sandhoefer     : DKH picture change effects
   Kantharuban Sivalingam : CASSCF convergence/infrastructure, NEVPT2 and variants, FIC-MRCI
   Bernardo de Souza      : ESD, SOC TD-DFT
   Georgi Stoychev        : AutoAux, RI-MP2 NMR, DLPNO-MP2 response, X2C
   Van Anh Tran           : RI-MP2 g-tensors
   Willem Van den Heuvel  : Paramagnetic NMR
   Zikuan Wang            : NOTCH, Electric field optimization 
   Frank Wennmohs         : Technical directorship and infrastructure
   Hang Xu                : AUTO-CI-Response properties 


 We gratefully acknowledge several colleagues who have allowed us to
 interface, adapt or use parts of their codes:
   Stefan Grimme, W. Hujo, H. Kruse, P. Pracht,  : VdW corrections, initial TS optimization,
                  C. Bannwarth, S. Ehlert,         DFT functionals, gCP, sTDA/sTD-DF
                  L. Wittmann, M. Mueller
   Ed Valeev, F. Pavosevic, A. Kumar             : LibInt (2-el integral package), F12 methods
   Garnet Chan, S. Sharma, J. Yang, R. Olivares  : DMRG
   Ulf Ekstrom                                   : XCFun DFT Library
   Mihaly Kallay                                 : mrcc  (arbitrary order and MRCC methods)
   Frank Weinhold                                : gennbo (NPA and NBO analysis)
   Simon Mueller                                 : openCOSMO-RS
   Christopher J. Cramer and Donald G. Truhlar   : smd solvation model
   Lars Goerigk                                  : TD-DFT with DH, B97 family of functionals
   V. Asgeirsson, H. Jonsson                     : NEB implementation
   FAccTs GmbH                                   : IRC, NEB, NEB-TS, DLPNO-Multilevel, CI-OPT
                                                   MM, QMMM, 2- and 3-layer-ONIOM, Crystal-QMMM,
                                                   LR-CPCM, SF, NACMEs, symmetry and pop. for TD-DFT,
                                                   nearIR, NL-DFT gradient (VV10), updates on ESD,
                                                   ML-optimized integration grids, MBIS, APM,
                                                   GOAT, DOCKER, SOLVATOR, interface openCOSMO-RS
   S Lehtola, MJT Oliveira, MAL Marques          : LibXC Library
   Liviu Ungur et al                             : ANISO software


 Your calculation uses the libint2 library for the computation of 2-el integrals
 For citations please refer to: http://libint.valeyev.net

 Your ORCA version has been built with support for libXC version: 6.2.2
 For citations please refer to: https://libxc.gitlab.io

 This ORCA versions uses:
   CBLAS   interface :  Fast vector & matrix operations
   LAPACKE interface :  Fast linear algebra routines
   SCALAPACK package :  Parallel linear algebra routines
   Shared memory     :  Shared parallel matrices
   BLAS/LAPACK       :  OpenBLAS 0.3.27  USE64BITINT DYNAMIC_ARCH NO_AFFINITY SapphireRapids SINGLE_THREADED
        Core in use  :  SapphireRapids
   Copyright (c) 2011-2014, The OpenBLAS Project


Your calculation utilizes the geometrical counterpoise correction gCP
Please cite in your paper:
H.Kruse, S. Grimme J.Chem.Phys., 136, (2012), 154101 
   

Your calculation utilizes the atom-pairwise dispersion correction
based on EEQ partial charges (D4)


================================================================================

----- Orbital basis set information -----
Your calculation utilizes the basis: def2-SV(P)
   F. Weigend and R. Ahlrichs, Phys. Chem. Chem. Phys. 7, 3297 (2005).

----- AuxJ basis set information -----
Your calculation utilizes the auxiliary basis: def2/J
   F. Weigend, Phys. Chem. Chem. Phys. 8, 1057 (2006).

================================================================================
                                        WARNINGS
                       Please study these warnings very carefully!
================================================================================


================================================================================
                                       INPUT FILE
================================================================================
NAME = sp.inp
|  1> ! pbe def2-sv(p) def2/J RI DEFGRID1 loosescf d4 GCP(DFT/SV(P)) printgap
|  2> %output
|  3>     printlevel normal
|  4> end
|  5> * xyz 0 1
|  6> C 5.2226597937 -2.3239538563 -1.043189766
|  7> C 4.1647181804 -1.3116514321 -1.4336777385
|  8> O 3.1389825115 -1.327631744 -0.4203477783
|  9> P 2.1611492371 -0.0958532676 -0.1881468568
| 10> S 3.0562660405 1.6503373439 -0.1136622586
| 11> O 1.3919270393 -0.5578015807 1.1097412638
| 12> C 1.8133007012 -0.1916042705 2.445958894
| 13> C 0.6030523909 0.2694458709 3.2317044678
| 14> S 0.6951104648 -0.3482673515 -1.6827232506
| 15> C 0.0292185449 1.3375783599 -1.6167359427
| 16> S -0.7944517101 1.7235795015 -0.0543614541
| 17> P -2.2988438043 0.2343504877 -0.199948975
| 18> S -3.0005011129 -0.1203409232 -1.9869334517
| 19> O -3.4435138468 0.7094782873 0.7832269904
| 20> C -3.2753102891 0.8897428577 2.2121373353
| 21> C -2.9947537752 2.3401511498 2.5490903407
| 22> O -1.576485238 -0.9864127919 0.5392363993
| 23> C -1.6822031858 -2.3458540707 0.0849731221
| 24> C -2.9928578816 -2.9639315814 0.5278701342
| 25> H 4.7757032107 -3.3095694105 -0.951227903
| 26> H 5.9920482236 -2.3470510523 -1.8078915166
| 27> H 5.6700931836 -2.0490531691 -0.0921857204
| 28> H 3.7005560772 -1.5659902025 -2.3900429299
| 29> H 4.580377411 -0.3000492997 -1.4934134888
| 30> H 2.2645697793 -1.0826375553 2.8868750761
| 31> H 2.5646776944 0.6019576491 2.3757113754
| 32> H 0.9025114426 0.4889379843 4.2513229861
| 33> H 0.1844848571 1.1654459735 2.779920864
| 34> H -0.1517199391 -0.5119943602 3.2368004295
| 35> H -0.6858699253 1.4164019972 -2.4349861087
| 36> H 0.8423328059 2.0554393418 -1.7238076327
| 37> H -4.2278987363 0.5650739901 2.6343284219
| 38> H -2.4720011546 0.23721755 2.5598393571
| 39> H -3.786018736 2.9734797917 2.1577941993
| 40> H -2.9466173802 2.4500434538 3.6279394939
| 41> H -2.0492343465 2.6597422751 2.1153304595
| 42> H -1.5954773817 -2.362325328 -1.0062818212
| 43> H -0.8192179854 -2.8463387203 0.5275932957
| 44> H -3.0353530826 -3.9958113856 0.1941733465
| 45> H -3.0838089403 -2.9303857147 1.6102730409
| 46> H -3.8228130432 -2.4139923496 0.0849140044
| 47> *
| 48> 
| 49>                          ****END OF INPUT****
================================================================================

                       ****************************
                       * Single Point Calculation *
                       ****************************

---------------------------------
CARTESIAN COORDINATES (ANGSTROEM)
---------------------------------
  C      5.222660   -2.323954   -1.043190
  C      4.164718   -1.311651   -1.433678
  O      3.138983   -1.327632   -0.420348
  P      2.161149   -0.095853   -0.188147
  S      3.056266    1.650337   -0.113662
  O      1.391927   -0.557802    1.109741
  C      1.813301   -0.191604    2.445959
  C      0.603052    0.269446    3.231704
  S      0.695110   -0.348267   -1.682723
  C      0.029219    1.337578   -1.616736
  S     -0.794452    1.723580   -0.054361
  P     -2.298844    0.234350   -0.199949
  S     -3.000501   -0.120341   -1.986933
  O     -3.443514    0.709478    0.783227
  C     -3.275310    0.889743    2.212137
  C     -2.994754    2.340151    2.549090
  O     -1.576485   -0.986413    0.539236
  C     -1.682203   -2.345854    0.084973
  C     -2.992858   -2.963932    0.527870
  H      4.775703   -3.309569   -0.951228
  H      5.992048   -2.347051   -1.807892
  H      5.670093   -2.049053   -0.092186
  H      3.700556   -1.565990   -2.390043
  H      4.580377   -0.300049   -1.493413
  H      2.264570   -1.082638    2.886875
  H      2.564678    0.601958    2.375711
  H      0.902511    0.488938    4.251323
  H      0.184485    1.165446    2.779921
  H     -0.151720   -0.511994    3.236800
  H     -0.685870    1.416402   -2.434986
  H      0.842333    2.055439   -1.723808
  H     -4.227899    0.565074    2.634328
  H     -2.472001    0.237218    2.559839
  H     -3.786019    2.973480    2.157794
  H     -2.946617    2.450043    3.627939
  H     -2.049234    2.659742    2.115330
  H     -1.595477   -2.362325   -1.006282
  H     -0.819218   -2.846339    0.527593
  H     -3.035353   -3.995811    0.194173
  H     -3.083809   -2.930386    1.610273
  H     -3.822813   -2.413992    0.084914

----------------------------
CARTESIAN COORDINATES (A.U.)
----------------------------
  NO LB      ZA    FRAG     MASS         X           Y           Z
   0 C     6.0000    0    12.011    9.869397   -4.391636   -1.971343
   1 C     6.0000    0    12.011    7.870177   -2.478662   -2.709258
   2 O     8.0000    0    15.999    5.931817   -2.508860   -0.794342
   3 P    15.0000    0    30.974    4.083980   -0.181136   -0.355546
   4 S    16.0000    0    32.060    5.775506    3.118686   -0.214791
   5 O     8.0000    0    15.999    2.630361   -1.054092    2.097107
   6 C     6.0000    0    12.011    3.426642   -0.362080    4.622192
   7 C     6.0000    0    12.011    1.139604    0.509179    6.107036
   8 S    16.0000    0    32.060    1.313568   -0.658130   -3.179886
   9 C     6.0000    0    12.011    0.055215    2.527657   -3.055188
  10 S    16.0000    0    32.060   -1.501296    3.257093   -0.102728
  11 P    15.0000    0    30.974   -4.344185    0.442858   -0.377849
  12 S    16.0000    0    32.060   -5.670125   -0.227411   -3.754760
  13 O     8.0000    0    15.999   -6.507298    1.340720    1.480085
  14 C     6.0000    0    12.011   -6.189439    1.681370    4.180334
  15 C     6.0000    0    12.011   -5.659264    4.422245    4.817083
  16 O     8.0000    0    15.999   -2.979125   -1.864050    1.019009
  17 C     6.0000    0    12.011   -3.178903   -4.433022    0.160576
  18 C     6.0000    0    12.011   -5.655682   -5.601019    0.997530
  19 H     1.0000    0     1.008    9.024771   -6.254180   -1.797560
  20 H     1.0000    0     1.008   11.323330   -4.435284   -3.416420
  21 H     1.0000    0     1.008   10.714923   -3.872149   -0.174206
  22 H     1.0000    0     1.008    6.993038   -2.959293   -4.516527
  23 H     1.0000    0     1.008    8.655659   -0.567011   -2.822142
  24 H     1.0000    0     1.008    4.279417   -2.045888    5.455403
  25 H     1.0000    0     1.008    4.846538    1.137535    4.489444
  26 H     1.0000    0     1.008    1.705499    0.923959    8.033836
  27 H     1.0000    0     1.008    0.348626    2.202374    5.253289
  28 H     1.0000    0     1.008   -0.286709   -0.967529    6.116666
  29 H     1.0000    0     1.008   -1.296106    2.676612   -4.601457
  30 H     1.0000    0     1.008    1.591778    3.884217   -3.257524
  31 H     1.0000    0     1.008   -7.989571    1.067835    4.978159
  32 H     1.0000    0     1.008   -4.671405    0.448276    4.837395
  33 H     1.0000    0     1.008   -7.154539    5.619062    4.077640
  34 H     1.0000    0     1.008   -5.568300    4.629911    6.855812
  35 H     1.0000    0     1.008   -3.872492    5.026184    3.997395
  36 H     1.0000    0     1.008   -3.015015   -4.464148   -1.901597
  37 H     1.0000    0     1.008   -1.548098   -5.378801    0.997007
  38 H     1.0000    0     1.008   -5.735986   -7.550989    0.366934
  39 H     1.0000    0     1.008   -5.827554   -5.537626    3.042975
  40 H     1.0000    0     1.008   -7.224070   -4.561784    0.160464

--------------------------------
INTERNAL COORDINATES (ANGSTROEM)
--------------------------------
 C      0   0   0     0.000000000000     0.00000000     0.00000000
 C      1   0   0     1.515413313872     0.00000000     0.00000000
 O      2   1   0     1.441952371287   107.94621150     0.00000000
 P      3   2   1     1.589765201340   122.11329396   157.70462054
 S      4   3   2     1.963660790154   114.46708327   313.18877752
 O      4   3   2     1.577850628912   101.13723316   186.67569875
 C      6   4   3     1.448148399922   122.89503902    93.25812222
 C      7   6   4     1.514814943224   108.85101879   133.95806049
 S      4   3   2     2.108729747631   103.37668670    81.26157406
 C      9   4   3     1.813792197700    96.78789935   196.97880220
 S     10   9   4     1.807883738772   113.40024521   293.83464072
 P     11  10   9     2.121837494927    96.53856287   298.83726667
 S     12  11  10     1.952291601079   116.43197019   323.67567572
 O     12  11  10     1.581976899670   105.04494196   200.04655420
 C     14  12  11     1.450025008725   124.46057107   298.83235098
 C     15  14  12     1.515233810054   111.07665630    96.58546059
 O     12  11  10     1.599518646564   100.58889649    90.57160103
 C     17  12  11     1.437223712581   122.86200083   219.40290681
 C     18  17  12     1.515253544521   110.92024485   280.12940245
 H      1   2   3     1.086123930320   109.92063218    58.50455316
 H      1   2   3     1.085016499367   109.12636956   178.47975012
 H      1   2   3     1.086358928241   110.12484621   298.44101980
 H      2   1   3     1.093054915133   111.49829503   241.44301333
 H      2   1   3     1.095298968375   111.47404008   119.15613937
 H      7   6   4     1.091783483621   106.65019244   254.57169029
 H      7   6   4     1.095099365363   108.88682550    12.63544515
 H      8   7   6     1.085114940617   109.17651948   176.65831146
 H      8   7   6     1.087254978776   110.05112927   296.58267988
 H      8   7   6     1.086441932982   109.78897884    56.68464944
 H     10   9   4     1.089540279278   106.31234135   173.40570475
 H     10   9   4     1.089928225883   109.55496448    52.66965159
 H     15  14  12     1.091366087494   104.06250163   216.23230055
 H     15  14  12     1.091783650145   108.95850898   333.48919781
 H     16  15  14     1.086424446115   110.06346157    55.98491475
 H     16  15  14     1.085499390310   109.03409757   175.92149590
 H     16  15  14     1.088252319988   110.69211969   295.99241941
 H     18  17  12     1.094819628382   108.87136682    42.19325410
 H     18  17  12     1.091394043722   104.32425092   159.08740384
 H     19  18  17     1.085327286373   109.37897156   181.44164277
 H     19  18  17     1.086735235779   110.54403366   301.97298469
 H     19  18  17     1.089710448636   109.51906411    62.08598912

---------------------------
INTERNAL COORDINATES (A.U.)
---------------------------
 C      0   0   0     0.000000000000     0.00000000     0.00000000
 C      1   0   0     2.863716142916     0.00000000     0.00000000
 O      2   1   0     2.724895079891   107.94621150     0.00000000
 P      3   2   1     3.004220847771   122.11329396   157.70462054
 S      4   3   2     3.710781113311   114.46708327   313.18877752
 O      4   3   2     2.981705568880   101.13723316   186.67569875
 C      6   4   3     2.736603877130   122.89503902    93.25812222
 C      7   6   4     2.862585386265   108.85101879   133.95806049
 S      4   3   2     3.984921713475   103.37668670    81.26157406
 C      9   4   3     3.427570517496    96.78789935   196.97880220
 S     10   9   4     3.416405148249   113.40024521   293.83464072
 P     11  10   9     4.009691766097    96.53856287   298.83726667
 S     12  11  10     3.689296459595   116.43197019   323.67567572
 O     12  11  10     2.989503090566   105.04494196   200.04655420
 C     14  12  11     2.740150153826   124.46057107   298.83235098
 C     15  14  12     2.863376929861   111.07665630    96.58546059
 O     12  11  10     3.022652188106   100.58889649    90.57160103
 C     17  12  11     2.715959209956   122.86200083   219.40290681
 C     18  17  12     2.863414222598   110.92024485   280.12940245
 H      1   2   3     2.052476775804   109.92063218    58.50455316
 H      1   2   3     2.050384034589   109.12636956   178.47975012
 H      1   2   3     2.052920857515   110.12484621   298.44101980
 H      2   1   3     2.065574438939   111.49829503   241.44301333
 H      2   1   3     2.069815084995   111.47404008   119.15613937
 H      7   6   4     2.063171781583   106.65019244   254.57169029
 H      7   6   4     2.069437889967   108.88682550    12.63544515
 H      8   7   6     2.050570061592   109.17651948   176.65831146
 H      8   7   6     2.054614147629   110.05112927   296.58267988
 H      8   7   6     2.053077713743   109.78897884    56.68464944
 H     10   9   4     2.058932739712   106.31234135   173.40570475
 H     10   9   4     2.059665852549   109.55496448    52.66965159
 H     15  14  12     2.062383017213   104.06250163   216.23230055
 H     15  14  12     2.063172096267   108.95850898   333.48919781
 H     16  15  14     2.053044668354   110.06346157    55.98491475
 H     16  15  14     2.051296566224   109.03409757   175.92149590
 H     16  15  14     2.056498849381   110.69211969   295.99241941
 H     18  17  12     2.068909263683   108.87136682    42.19325410
 H     18  17  12     2.062435846828   104.32425092   159.08740384
 H     19  18  17     2.050971336916   109.37897156   181.44164277
 H     19  18  17     2.053631975705   110.54403366   301.97298469
 H     19  18  17     2.059254313195   109.51906411    62.08598912

---------------------
BASIS SET INFORMATION
---------------------
There are 5 groups of distinct atoms

 Group   1 Type C   : 7s4p1d contracted to 3s2p1d pattern {511/31/1}
 Group   2 Type O   : 7s4p1d contracted to 3s2p1d pattern {511/31/1}
 Group   3 Type P   : 10s7p1d contracted to 4s3p1d pattern {5311/511/1}
 Group   4 Type S   : 10s7p1d contracted to 4s3p1d pattern {5311/511/1}
 Group   5 Type H   : 4s contracted to 2s pattern {31}

Atom   0C    basis set group =>   1
Atom   1C    basis set group =>   1
Atom   2O    basis set group =>   2
Atom   3P    basis set group =>   3
Atom   4S    basis set group =>   4
Atom   5O    basis set group =>   2
Atom   6C    basis set group =>   1
Atom   7C    basis set group =>   1
Atom   8S    basis set group =>   4
Atom   9C    basis set group =>   1
Atom  10S    basis set group =>   4
Atom  11P    basis set group =>   3
Atom  12S    basis set group =>   4
Atom  13O    basis set group =>   2
Atom  14C    basis set group =>   1
Atom  15C    basis set group =>   1
Atom  16O    basis set group =>   2
Atom  17C    basis set group =>   1
Atom  18C    basis set group =>   1
Atom  19H    basis set group =>   5
Atom  20H    basis set group =>   5
Atom  21H    basis set group =>   5
Atom  22H    basis set group =>   5
Atom  23H    basis set group =>   5
Atom  24H    basis set group =>   5
Atom  25H    basis set group =>   5
Atom  26H    basis set group =>   5
Atom  27H    basis set group =>   5
Atom  28H    basis set group =>   5
Atom  29H    basis set group =>   5
Atom  30H    basis set group =>   5
Atom  31H    basis set group =>   5
Atom  32H    basis set group =>   5
Atom  33H    basis set group =>   5
Atom  34H    basis set group =>   5
Atom  35H    basis set group =>   5
Atom  36H    basis set group =>   5
Atom  37H    basis set group =>   5
Atom  38H    basis set group =>   5
Atom  39H    basis set group =>   5
Atom  40H    basis set group =>   5
---------------------------------
AUXILIARY/J BASIS SET INFORMATION
---------------------------------
There are 5 groups of distinct atoms

 Group   1 Type C   : 12s5p4d2f1g contracted to 6s4p3d1f1g pattern {711111/2111/211/2/1}
 Group   2 Type O   : 12s5p4d2f1g contracted to 6s4p3d1f1g pattern {711111/2111/211/2/1}
 Group   3 Type P   : 14s5p5d2f1g contracted to 8s4p3d1f1g pattern {71111111/2111/311/2/1}
 Group   4 Type S   : 14s5p5d2f1g contracted to 8s4p3d1f1g pattern {71111111/2111/311/2/1}
 Group   5 Type H   : 5s2p1d contracted to 3s1p1d pattern {311/2/1}

Atom   0C    basis set group =>   1
Atom   1C    basis set group =>   1
Atom   2O    basis set group =>   2
Atom   3P    basis set group =>   3
Atom   4S    basis set group =>   4
Atom   5O    basis set group =>   2
Atom   6C    basis set group =>   1
Atom   7C    basis set group =>   1
Atom   8S    basis set group =>   4
Atom   9C    basis set group =>   1
Atom  10S    basis set group =>   4
Atom  11P    basis set group =>   3
Atom  12S    basis set group =>   4
Atom  13O    basis set group =>   2
Atom  14C    basis set group =>   1
Atom  15C    basis set group =>   1
Atom  16O    basis set group =>   2
Atom  17C    basis set group =>   1
Atom  18C    basis set group =>   1
Atom  19H    basis set group =>   5
Atom  20H    basis set group =>   5
Atom  21H    basis set group =>   5
Atom  22H    basis set group =>   5
Atom  23H    basis set group =>   5
Atom  24H    basis set group =>   5
Atom  25H    basis set group =>   5
Atom  26H    basis set group =>   5
Atom  27H    basis set group =>   5
Atom  28H    basis set group =>   5
Atom  29H    basis set group =>   5
Atom  30H    basis set group =>   5
Atom  31H    basis set group =>   5
Atom  32H    basis set group =>   5
Atom  33H    basis set group =>   5
Atom  34H    basis set group =>   5
Atom  35H    basis set group =>   5
Atom  36H    basis set group =>   5
Atom  37H    basis set group =>   5
Atom  38H    basis set group =>   5
Atom  39H    basis set group =>   5
Atom  40H    basis set group =>   5
------------------------------------------------------------------------------
                             ORCA STARTUP CALCULATIONS
                           -- RI-GTO INTEGRALS CHOSEN --
------------------------------------------------------------------------------
------------------------------------------------------------------------------
                   ___                                                        
                  /   \      - P O W E R E D   B Y -                         
                 /     \                                                     
                 |  |  |   _    _      __       _____    __    __             
                 |  |  |  | |  | |    /  \     |  _  \  |  |  /  |          
                  \  \/   | |  | |   /    \    | | | |  |  | /  /          
                 / \  \   | |__| |  /  /\  \   | |_| |  |  |/  /          
                |  |  |   |  __  | /  /__\  \  |    /   |      \           
                |  |  |   | |  | | |   __   |  |    \   |  |\   \          
                \     /   | |  | | |  |  |  |  | |\  \  |  | \   \       
                 \___/    |_|  |_| |__|  |__|  |_| \__\ |__|  \__/        
                                                                              
                      - O R C A' S   B I G   F R I E N D -                    
                                      &                                       
                       - I N T E G R A L  F E E D E R -                       
                                                                              
 v1 FN, 2020, v2 2021, v3 2022-2024                                           
------------------------------------------------------------------------------


----------------------
SHARK INTEGRAL PACKAGE
----------------------

Number of atoms                             ...     41
Number of basis functions                   ...    334
Number of shells                            ...    170
Maximum angular momentum                    ...      2
Integral batch strategy                     ... SHARK/LIBINT Hybrid
RI-J (if used) integral strategy            ... SPLIT-RIJ (Revised 2003 algorithm where possible)
Printlevel                                  ...      1
Contraction scheme used                     ... SEGMENTED contraction
Prescreening option                         ... SCHWARTZ
   Thresh                                   ... 1.000e-09
   Tcut                                     ... 1.000e-10
   Tpresel                                  ... 1.000e-10 
Coulomb Range Separation                    ... NOT USED
Exchange Range Separation                   ... NOT USED
Multipole approximations                    ... NOT USED
Finite Nucleus Model                        ... NOT USED
CABS basis                                  ... NOT available
Auxiliary Coulomb fitting basis             ... AVAILABLE
   # of basis functions in Aux-J            ...   1185
   # of shells in Aux-J                     ...    407
   Maximum angular momentum in Aux-J        ...      4
Auxiliary J/K fitting basis                 ... NOT available
Auxiliary Correlation fitting basis         ... NOT available
Auxiliary 'external' fitting basis          ... NOT available

Checking pre-screening integrals            ... done (  0.0 sec) Dimension = 170
Check shell pair data                       ... done (  0.0 sec)
Shell pair information
Shell pair cut-off parameter TPreSel        ...   1.0e-10
Total number of shell pairs                 ...     14535
Shell pairs after pre-screening             ...     10532
Total number of primitive shell pairs       ...     62501
Primitive shell pairs kept                  ...     26171
          la=0 lb=0:   4099 shell pairs
          la=1 lb=0:   3556 shell pairs
          la=1 lb=1:    815 shell pairs
          la=2 lb=0:   1339 shell pairs
          la=2 lb=1:    610 shell pairs
          la=2 lb=2:    113 shell pairs

Calculating one electron integrals          ... done (  0.1 sec)
Calculating RI/J V-Matrix + Cholesky decomp.... done (  0.1 sec)
Calculating Nuclear repulsion               ... done (  0.0 sec) ENN=   2795.988162085767 Eh

Diagonalization of the overlap matrix:
Smallest eigenvalue                        ... 3.131e-03
Time for diagonalization                   ...    0.010 sec
Threshold for overlap eigenvalues          ... 1.000e-07
Number of eigenvalues below threshold      ... 0
Time for construction of square roots      ...    0.019 sec
Total time needed                          ...    0.037 sec

-------------------
DFT GRID GENERATION
-------------------

General Integration Accuracy     IntAcc      ... 4.159
Radial Grid Type                 RadialGrid  ... OptM3 with GC (2021)
Angular Grid (max. ang.)         AngularGrid ... 3 (Lebedev-194)
Angular grid pruning method      GridPruning ... 4 (adaptive)
Weight generation scheme         WeightScheme... mBecke (2022)
Basis function cutoff            BFCut       ... 1.0000e-10
Integration weight cutoff        WCut        ... 1.0000e-14
Partially contracted basis set               ... off
Rotationally invariant grid construction     ... off
Angular grids for H and He will be reduced by one unit

Total number of grid points                  ...    97306
Total number of batches                      ...     1540
Average number of points per batch           ...       63
Average number of grid points per atom       ...     2373
Initializing property integral containers    ... done (  0.0 sec)

SHARK setup successfully completed in   1.5 seconds

Maximum memory used throughout the entire STARTUP-calculation: 52.1 MB
-------------------------------------------------------------------------------
                                 ORCA GUESS
                   Start orbitals & Density for SCF / CASSCF
-------------------------------------------------------------------------------

------------
SCF SETTINGS
------------
Hamiltonian:
 Density Functional     Method          .... DFT(GTOs)
 Exchange Functional    Exchange        .... PBE
   PBE kappa parameter   XKappa         ....  0.804000
   PBE mue parameter    XMuePBE         ....  0.219520
 Correlation Functional Correlation     .... PBE
   PBE beta parameter  CBetaPBE         ....  0.066725
 LDA part of GGA corr.  LDAOpt          .... PW91-LDA
 Gradients option       PostSCFGGA      .... off
   NL short-range parameter             ....  6.400000
 RI-approximation to the Coulomb term is turned on
   Number of AuxJ basis functions       .... 1185


General Settings:
 Integral files         IntName         .... sp
 Hartree-Fock type      HFTyp           .... RHF
 Total Charge           Charge          ....    0
 Multiplicity           Mult            ....    1
 Number of Electrons    NEL             ....  202
 Basis Dimension        Dim             ....  334
 Nuclear Repulsion      ENuc            ....   2795.9881620858 Eh

Convergence Acceleration:
 AO-DIIS                CNVDIIS         .... on
   Start iteration      DIISMaxIt       ....    12
   Startup error        DIISStart       ....  0.200000
   # of expansion vecs  DIISMaxEq       ....     5
   Bias factor          DIISBfac        ....   1.050
   Max. coefficient     DIISMaxC        ....  10.000
 MO-DIIS                CNVKDIIS        .... off
 Trust-Rad. Augm. Hess. CNVTRAH         .... auto
   Auto Start mean grad. ratio tolernc. ....  1.125000
   Auto Start start iteration           ....    50
   Auto Start num. interpolation iter.  ....    10
   Max. Number of Micro iterations      ....    24
   Max. Number of Macro iterations      .... Maxiter - #DIIS iter
   Number of Davidson start vectors     ....     2
   Converg. threshold    (grad. norm)   ....   1.000e-04
   Grad. Scal. Fac. for Micro threshold ....   0.100
   Minimum threshold for Micro iter.    ....   1.000e-02
   NR start threshold (gradient norm)   ....   1.000e-04
   Initial trust radius                 ....   0.400
   Minimum AH scaling param. (alpha)    ....   1.000
   Maximum AH scaling param. (alpha)    .... 1000.000
   Quad. conv. algorithm                .... NR
   White noise on init. David. guess    .... on
   Maximum white noise                  ....   0.010
   Pseudo random numbers                .... off
   Inactive MOs                         .... canonical
   Orbital update algorithm             .... Taylor
   Preconditioner                       .... Diag
   Full preconditioner red. dimension   ....   250
 SOSCF                  CNVSOSCF        .... on
   Start iteration      SOSCFMaxIt      ....   150
   Startup grad/error   SOSCFStart      ....  0.003300
   Hessian update       SOSCFHessUp     .... L-BFGS
 Level Shifting         CNVShift        .... on
   Level shift para.    LevelShift      ....    0.2500
   Turn off err/grad.   ShiftErr        ....    0.0010
 Zerner damping         CNVZerner       .... off
 Static damping         CNVDamp         .... on
   Fraction old density DampFac         ....    0.7000
   Max. Damping (<1)    DampMax         ....    0.9800
   Min. Damping (>=0)   DampMin         ....    0.0000
   Turn off err/grad.   DampErr         ....    0.1000

SCF Procedure:
 Maximum # iterations   MaxIter         ....   125
 SCF integral mode      SCFMode         .... Direct
   Integral package                     .... SHARK and LIBINT hybrid scheme
 Reset frequency        DirectResetFreq ....    20
 Integral Threshold     Thresh          ....  1.000e-09 Eh
 Primitive CutOff       TCut            ....  1.000e-10 Eh

Convergence Tolerance:
 Convergence Check Mode ConvCheckMode   .... Total+1el-Energy
 Convergence forced     ConvForced      .... 0
 Energy Change          TolE            ....  1.000e-05 Eh
 1-El. energy change                    ....  1.000e-02 Eh
 Orbital Gradient       TolG            ....  1.000e-04
 Orbital Rotation angle TolX            ....  1.000e-04
 DIIS Error             TolErr          ....  5.000e-04

------------------------------
INITIAL GUESS: MODEL POTENTIAL
------------------------------
Loading Hartree-Fock densities                     ... done
Calculating cut-offs                               ... done
Initializing the effective Hamiltonian             ... done
Setting up the integral package (SHARK)            ... done
Starting the Coulomb interaction                   ... done (   0.7 sec)
Making the grid                                    ... done (   0.6 sec)
Mapping shells                                     ... done
Starting the XC term evaluation                    ... done (   0.4 sec)
  promolecular density results
     # of electrons  =    201.989384283
     EX              =   -229.995026402
     EC              =     -7.284831454
     EX+EC           =   -237.279857856
Transforming the Hamiltonian                       ... done (   0.0 sec)
Diagonalizing the Hamiltonian                      ... done (   0.0 sec)
Back transforming the eigenvectors                 ... done (   0.0 sec)
Now organizing SCF variables                       ... done
                      ------------------
                      INITIAL GUESS DONE (   1.7 sec)
                      ------------------
             **** ENERGY FILE WAS UPDATED (sp.en.tmp) ****
Finished Guess after   1.9 sec
Maximum memory used throughout the entire GUESS-calculation: 39.6 MB

-------------------------------------------------------------------------------------------
                                      ORCA LEAN-SCF
                              memory conserving SCF solver
-------------------------------------------------------------------------------------------

----------------------------------------D-I-I-S--------------------------------------------
Iteration    Energy (Eh)           Delta-E    RMSDP     MaxDP     DIISErr   Damp  Time(sec)
-------------------------------------------------------------------------------------------
               ***  Starting incremental Fock matrix formation  ***
    1    -2929.1951685536396326     0.00e+00  2.69e-03  1.39e-01  1.86e-01  0.700   2.3
    2    -2929.4202188009194288    -2.25e-01  1.73e-03  7.04e-02  7.44e-02  0.700   2.1
                               ***Turning on AO-DIIS***
    3    -2929.4912848762960493    -7.11e-02  6.77e-04  1.54e-02  2.20e-02  0.700   2.1
    4    -2929.5362734419022672    -4.50e-02  1.04e-03  2.97e-02  1.09e-02  0.000   2.0
    5    -2929.6413110012199468    -1.05e-01  3.09e-04  9.21e-03  8.25e-03  0.000   2.0
                              *** Initializing SOSCF ***
---------------------------------------S-O-S-C-F--------------------------------------
Iteration    Energy (Eh)           Delta-E    RMSDP     MaxDP     MaxGrad    Time(sec)
--------------------------------------------------------------------------------------
    6    -2929.6423820320342202    -1.07e-03  1.09e-04  3.25e-03  2.49e-03     2.0
               *** Restarting incremental Fock matrix formation ***
    7    -2929.6425238968213307    -1.42e-04  6.81e-05  1.24e-03  2.04e-04     2.3
    8    -2929.6425291708401346    -5.27e-06  2.63e-05  7.62e-04  1.62e-04     1.8
                 **** Energy Check signals convergence ****

               *****************************************************
               *                     SUCCESS                       *
               *           SCF CONVERGED AFTER   8 CYCLES          *
               *****************************************************

             **** ENERGY FILE WAS UPDATED (sp.en.tmp) ****

----------------
TOTAL SCF ENERGY
----------------

Total Energy       :      -2929.64252917084013 Eh          -79719.62609 eV

Components:
Nuclear Repulsion  :       2795.98816208576682 Eh           76082.70586 eV
Electronic Energy  :      -5725.63069125660695 Eh         -155802.33195 eV
One Electron Energy:      -9610.49389213394170 Eh         -261514.83396 eV
Two Electron Energy:       3884.86320087733475 Eh          105712.50202 eV

Virial components:
Potential Energy   :      -5848.92562915250073 Eh         -159157.35777 eV
Kinetic Energy     :       2919.28309998166060 Eh           79437.73169 eV
Virial Ratio       :          2.00354862095740

DFT components:
N(Alpha)           :      100.999915162405 electrons
N(Beta)            :      100.999915162405 electrons
N(Total)           :      201.999830324809 electrons
E(X)               :     -231.805227673155 Eh       
E(C)               :       -7.293528600661 Eh       
E(XC)              :     -239.098756273816 Eh       

---------------
SCF CONVERGENCE
---------------

  Last Energy change         ...    5.2740e-06  Tolerance :   1.0000e-05
  Last MAX-Density change    ...    7.6211e-04  Tolerance :   1.0000e-03
  Last RMS-Density change    ...    2.6311e-05  Tolerance :   1.0000e-04
  Last DIIS Error            ...    2.4884e-03  Tolerance :   5.0000e-04
  Last Orbital Gradient      ...    1.6235e-04  Tolerance :   1.0000e-04
  Last Orbital Rotation      ...    3.9022e-04  Tolerance :   1.0000e-04


----------------
ORBITAL ENERGIES
----------------

  NO   OCC          E(Eh)            E(eV) 
   0   2.0000     -88.043507     -2395.7856 
   1   2.0000     -88.040574     -2395.7058 
   2   2.0000     -87.988349     -2394.2847 
   3   2.0000     -87.985959     -2394.2197 
   4   2.0000     -76.426299     -2079.6653 
   5   2.0000     -76.425691     -2079.6488 
   6   2.0000     -18.795662      -511.4560 
   7   2.0000     -18.793252      -511.3904 
   8   2.0000     -18.790536      -511.3165 
   9   2.0000     -18.787178      -511.2251 
  10   2.0000      -9.960939      -271.0509 
  11   2.0000      -9.953610      -270.8515 
  12   2.0000      -9.953460      -270.8474 
  13   2.0000      -9.953053      -270.8363 
  14   2.0000      -9.946406      -270.6555 
  15   2.0000      -9.891928      -269.1730 
  16   2.0000      -9.889282      -269.1010 
  17   2.0000      -9.887302      -269.0472 
  18   2.0000      -9.882505      -268.9166 
  19   2.0000      -7.688531      -209.2156 
  20   2.0000      -7.685564      -209.1348 
  21   2.0000      -7.633362      -207.7143 
  22   2.0000      -7.631236      -207.6565 
  23   2.0000      -6.424136      -174.8096 
  24   2.0000      -6.423303      -174.7870 
  25   2.0000      -5.716393      -155.5510 
  26   2.0000      -5.713376      -155.4689 
  27   2.0000      -5.713077      -155.4607 
  28   2.0000      -5.710244      -155.3836 
  29   2.0000      -5.705465      -155.2536 
  30   2.0000      -5.702402      -155.1703 
  31   2.0000      -5.662062      -154.0725 
  32   2.0000      -5.660274      -154.0239 
  33   2.0000      -5.654048      -153.8545 
  34   2.0000      -5.653672      -153.8442 
  35   2.0000      -5.651771      -153.7925 
  36   2.0000      -5.651302      -153.7797 
  37   2.0000      -4.646544      -126.4389 
  38   2.0000      -4.646203      -126.4296 
  39   2.0000      -4.645902      -126.4214 
  40   2.0000      -4.644659      -126.3876 
  41   2.0000      -4.644658      -126.3876 
  42   2.0000      -4.643888      -126.3666 
  43   2.0000      -0.987129       -26.8611 
  44   2.0000      -0.984923       -26.8011 
  45   2.0000      -0.945528       -25.7291 
  46   2.0000      -0.942907       -25.6578 
  47   2.0000      -0.765811       -20.8388 
  48   2.0000      -0.724309       -19.7094 
  49   2.0000      -0.712696       -19.3934 
  50   2.0000      -0.691286       -18.8109 
  51   2.0000      -0.689602       -18.7650 
  52   2.0000      -0.673607       -18.3298 
  53   2.0000      -0.650253       -17.6943 
  54   2.0000      -0.638858       -17.3842 
  55   2.0000      -0.598520       -16.2866 
  56   2.0000      -0.588212       -16.0061 
  57   2.0000      -0.579550       -15.7704 
  58   2.0000      -0.569900       -15.5078 
  59   2.0000      -0.558757       -15.2045 
  60   2.0000      -0.510181       -13.8827 
  61   2.0000      -0.499420       -13.5899 
  62   2.0000      -0.481617       -13.1055 
  63   2.0000      -0.477999       -13.0070 
  64   2.0000      -0.456271       -12.4158 
  65   2.0000      -0.446984       -12.1630 
  66   2.0000      -0.441739       -12.0203 
  67   2.0000      -0.435489       -11.8503 
  68   2.0000      -0.431189       -11.7333 
  69   2.0000      -0.415174       -11.2975 
  70   2.0000      -0.404946       -11.0192 
  71   2.0000      -0.396558       -10.7909 
  72   2.0000      -0.389991       -10.6122 
  73   2.0000      -0.382948       -10.4205 
  74   2.0000      -0.378703       -10.3050 
  75   2.0000      -0.375568       -10.2197 
  76   2.0000      -0.371771       -10.1164 
  77   2.0000      -0.359916        -9.7938 
  78   2.0000      -0.357788        -9.7359 
  79   2.0000      -0.357700        -9.7335 
  80   2.0000      -0.353061        -9.6073 
  81   2.0000      -0.348910        -9.4943 
  82   2.0000      -0.344261        -9.3678 
  83   2.0000      -0.341145        -9.2830 
  84   2.0000      -0.335015        -9.1162 
  85   2.0000      -0.320343        -8.7170 
  86   2.0000      -0.309496        -8.4218 
  87   2.0000      -0.304892        -8.2965 
  88   2.0000      -0.300634        -8.1807 
  89   2.0000      -0.289375        -7.8743 
  90   2.0000      -0.280813        -7.6413 
  91   2.0000      -0.279547        -7.6069 
  92   2.0000      -0.272181        -7.4064 
  93   2.0000      -0.263867        -7.1802 
  94   2.0000      -0.258966        -7.0468 
  95   2.0000      -0.232168        -6.3176 
  96   2.0000      -0.216384        -5.8881 
  97   2.0000      -0.213815        -5.8182 
  98   2.0000      -0.207324        -5.6416 
  99   2.0000      -0.200153        -5.4464 
 100   2.0000      -0.199801        -5.4369 
 101   0.0000      -0.045215        -1.2304 
 102   0.0000      -0.022545        -0.6135 
 103   0.0000      -0.001784        -0.0485 
 104   0.0000       0.003799         0.1034 
 105   0.0000       0.006775         0.1844 
 106   0.0000       0.024424         0.6646 
 107   0.0000       0.032484         0.8839 
 108   0.0000       0.037910         1.0316 
 109   0.0000       0.041934         1.1411 
 110   0.0000       0.047971         1.3054 
 111   0.0000       0.051165         1.3923 
*Only the first 10 virtual orbitals were printed.

                    ********************************
                    * MULLIKEN POPULATION ANALYSIS *
                    ********************************

-----------------------
MULLIKEN ATOMIC CHARGES
-----------------------
   0 C :   -0.281091
   1 C :   -0.010395
   2 O :   -0.379003
   3 P :    0.617136
   4 S :   -0.342508
   5 O :   -0.355990
   6 C :   -0.005616
   7 C :   -0.308010
   8 S :   -0.081678
   9 C :   -0.350886
  10 S :   -0.106936
  11 P :    0.629164
  12 S :   -0.315337
  13 O :   -0.365057
  14 C :   -0.039348
  15 C :   -0.307610
  16 O :   -0.380572
  17 C :   -0.006313
  18 C :   -0.300618
  19 H :    0.116317
  20 H :    0.112842
  21 H :    0.117509
  22 H :    0.102740
  23 H :    0.106696
  24 H :    0.102932
  25 H :    0.108422
  26 H :    0.106827
  27 H :    0.129451
  28 H :    0.128436
  29 H :    0.193791
  30 H :    0.193356
  31 H :    0.111731
  32 H :    0.121846
  33 H :    0.125578
  34 H :    0.112563
  35 H :    0.141814
  36 H :    0.114665
  37 H :    0.101564
  38 H :    0.110880
  39 H :    0.105915
  40 H :    0.124794
Sum of atomic charges:   -0.0000000

--------------------------------
MULLIKEN REDUCED ORBITAL CHARGES
--------------------------------
  0 C s       :     3.092138  s :     3.092138
      pz      :     1.068464  p :     3.161114
      px      :     1.038101
      py      :     1.054549
      dz2     :     0.005571  d :     0.027839
      dxz     :     0.008654
      dyz     :     0.001956
      dx2y2   :     0.005947
      dxy     :     0.005711

  1 C s       :     3.072915  s :     3.072915
      pz      :     0.901763  p :     2.877740
      px      :     0.882864
      py      :     1.093113
      dz2     :     0.013862  d :     0.059740
      dxz     :     0.018362
      dyz     :     0.005542
      dx2y2   :     0.011662
      dxy     :     0.010312

  2 O s       :     3.764605  s :     3.764605
      pz      :     1.572770  p :     4.601458
      px      :     1.451590
      py      :     1.577098
      dz2     :     0.002535  d :     0.012940
      dxz     :     0.002424
      dyz     :     0.002184
      dx2y2   :     0.002433
      dxy     :     0.003363

  3 P s       :     5.208952  s :     5.208952
      pz      :     2.878007  p :     8.583514
      px      :     2.868835
      py      :     2.836672
      dz2     :     0.103775  d :     0.590398
      dxz     :     0.131707
      dyz     :     0.110663
      dx2y2   :     0.113565
      dxy     :     0.130688

  4 S s       :     5.923005  s :     5.923005
      pz      :     3.666119  p :    10.376660
      px      :     3.525636
      py      :     3.184904
      dz2     :     0.006219  d :     0.042843
      dxz     :     0.002320
      dyz     :     0.007385
      dx2y2   :     0.012111
      dxy     :     0.014807

  5 O s       :     3.757410  s :     3.757410
      pz      :     1.211947  p :     4.585482
      px      :     1.657597
      py      :     1.715938
      dz2     :     0.002313  d :     0.013099
      dxz     :     0.004263
      dyz     :     0.002921
      dx2y2   :     0.001719
      dxy     :     0.001883

  6 C s       :     3.073349  s :     3.073349
      pz      :     0.741412  p :     2.872883
      px      :     1.067804
      py      :     1.063667
      dz2     :     0.017781  d :     0.059383
      dxz     :     0.012829
      dyz     :     0.012506
      dx2y2   :     0.004186
      dxy     :     0.012081

  7 C s       :     3.107874  s :     3.107874
      pz      :     1.038483  p :     3.172343
      px      :     1.041652
      py      :     1.092209
      dz2     :     0.006990  d :     0.027793
      dxz     :     0.004640
      dyz     :     0.003254
      dx2y2   :     0.003406
      dxy     :     0.009502

  8 S s       :     5.880590  s :     5.880590
      pz      :     3.527173  p :    10.124260
      px      :     3.386254
      py      :     3.210834
      dz2     :     0.011529  d :     0.076827
      dxz     :     0.018018
      dyz     :     0.010240
      dx2y2   :     0.021305
      dxy     :     0.015735

  9 C s       :     3.215055  s :     3.215055
      pz      :     1.018536  p :     3.095424
      px      :     1.095428
      py      :     0.981460
      dz2     :     0.009356  d :     0.040406
      dxz     :     0.009580
      dyz     :     0.005492
      dx2y2   :     0.005836
      dxy     :     0.010143

 10 S s       :     5.875033  s :     5.875033
      pz      :     3.309132  p :    10.155661
      px      :     3.327830
      py      :     3.518699
      dz2     :     0.021632  d :     0.076242
      dxz     :     0.016420
      dyz     :     0.011418
      dx2y2   :     0.007040
      dxy     :     0.019731

 11 P s       :     5.185656  s :     5.185656
      pz      :     2.877525  p :     8.600068
      px      :     2.860178
      py      :     2.862365
      dz2     :     0.109918  d :     0.585112
      dxz     :     0.129317
      dyz     :     0.119559
      dx2y2   :     0.087875
      dxy     :     0.138443

 12 S s       :     5.918416  s :     5.918416
      pz      :     3.133148  p :    10.353915
      px      :     3.567245
      py      :     3.653521
      dz2     :     0.017439  d :     0.043006
      dxz     :     0.012241
      dyz     :     0.009047
      dx2y2   :     0.002112
      dxy     :     0.002168

 13 O s       :     3.759481  s :     3.759481
      pz      :     1.265005  p :     4.592530
      px      :     1.581507
      py      :     1.746018
      dz2     :     0.003083  d :     0.013047
      dxz     :     0.004069
      dyz     :     0.001751
      dx2y2   :     0.002199
      dxy     :     0.001944

 14 C s       :     3.092261  s :     3.092261
      pz      :     0.724308  p :     2.887701
      px      :     1.094306
      py      :     1.069087
      dz2     :     0.018915  d :     0.059386
      dxz     :     0.011413
      dyz     :     0.013110
      dx2y2   :     0.006162
      dxy     :     0.009786

 15 C s       :     3.105107  s :     3.105107
      pz      :     1.054857  p :     3.174668
      px      :     1.102683
      py      :     1.017128
      dz2     :     0.008037  d :     0.027835
      dxz     :     0.003281
      dyz     :     0.002907
      dx2y2   :     0.005542
      dxy     :     0.008068

 16 O s       :     3.762038  s :     3.762038
      pz      :     1.653013  p :     4.605569
      px      :     1.716080
      py      :     1.236476
      dz2     :     0.001935  d :     0.012965
      dxz     :     0.001921
      dyz     :     0.003821
      dx2y2   :     0.002200
      dxy     :     0.003087

 17 C s       :     3.081292  s :     3.081292
      pz      :     1.062957  p :     2.864457
      px      :     1.069180
      py      :     0.732320
      dz2     :     0.013604  d :     0.060564
      dxz     :     0.005769
      dyz     :     0.010857
      dx2y2   :     0.015590
      dxy     :     0.014745

 18 C s       :     3.097532  s :     3.097532
      pz      :     1.068870  p :     3.175139
      px      :     1.046379
      py      :     1.059890
      dz2     :     0.008773  d :     0.027948
      dxz     :     0.004551
      dyz     :     0.002827
      dx2y2   :     0.006839
      dxy     :     0.004958

 19 H s       :     0.883683  s :     0.883683

 20 H s       :     0.887158  s :     0.887158

 21 H s       :     0.882491  s :     0.882491

 22 H s       :     0.897260  s :     0.897260

 23 H s       :     0.893304  s :     0.893304

 24 H s       :     0.897068  s :     0.897068

 25 H s       :     0.891578  s :     0.891578

 26 H s       :     0.893173  s :     0.893173

 27 H s       :     0.870549  s :     0.870549

 28 H s       :     0.871564  s :     0.871564

 29 H s       :     0.806209  s :     0.806209

 30 H s       :     0.806644  s :     0.806644

 31 H s       :     0.888269  s :     0.888269

 32 H s       :     0.878154  s :     0.878154

 33 H s       :     0.874422  s :     0.874422

 34 H s       :     0.887437  s :     0.887437

 35 H s       :     0.858186  s :     0.858186

 36 H s       :     0.885335  s :     0.885335

 37 H s       :     0.898436  s :     0.898436

 38 H s       :     0.889120  s :     0.889120

 39 H s       :     0.894085  s :     0.894085

 40 H s       :     0.875206  s :     0.875206


------------------------
MULLIKEN OVERLAP CHARGES
------------------------
B(  0-C ,  1-C ) :   0.8636 B(  0-C ,  2-O ) :  -0.1165 B(  0-C , 19-H ) :   0.7431 
B(  0-C , 20-H ) :   0.7008 B(  0-C , 21-H ) :   0.7375 B(  0-C , 22-H ) :  -0.0541 
B(  1-C ,  2-O ) :   0.5540 B(  1-C ,  3-P ) :  -0.0866 B(  1-C , 22-H ) :   0.7298 
B(  1-C , 23-H ) :   0.6961 B(  2-O ,  3-P ) :   0.6458 B(  2-O ,  4-S ) :  -0.0698 
B(  2-O ,  5-O ) :  -0.0658 B(  2-O ,  8-S ) :  -0.0643 B(  2-O , 22-H ) :  -0.0634 
B(  2-O , 23-H ) :  -0.0698 B(  3-P ,  4-S ) :   0.9347 B(  3-P ,  5-O ) :   0.6437 
B(  3-P ,  6-C ) :  -0.0818 B(  3-P ,  8-S ) :   0.5000 B(  3-P ,  9-C ) :  -0.0720 
B(  4-S ,  5-O ) :  -0.0652 B(  4-S ,  8-S ) :  -0.0926 B(  4-S , 23-H ) :   0.0751 
B(  4-S , 25-H ) :   0.0833 B(  4-S , 30-H ) :   0.0771 B(  5-O ,  6-C ) :   0.5447 
B(  5-O ,  7-C ) :  -0.1118 B(  5-O ,  8-S ) :  -0.0659 B(  5-O , 24-H ) :  -0.0607 
B(  5-O , 25-H ) :  -0.0657 B(  6-C ,  7-C ) :   0.8709 B(  6-C , 24-H ) :   0.7352 
B(  6-C , 25-H ) :   0.6926 B(  7-C , 24-H ) :  -0.0610 B(  7-C , 25-H ) :  -0.0522 
B(  7-C , 26-H ) :   0.6830 B(  7-C , 27-H ) :   0.7408 B(  7-C , 28-H ) :   0.7381 
B(  8-S ,  9-C ) :   0.4762 B(  8-S , 10-S ) :  -0.1650 B(  8-S , 29-H ) :  -0.0642 
B(  8-S , 30-H ) :  -0.0598 B(  9-C , 10-S ) :   0.4973 B(  9-C , 11-P ) :  -0.0729 
B(  9-C , 29-H ) :   0.6768 B(  9-C , 30-H ) :   0.6676 B( 10-S , 11-P ) :   0.5314 
B( 10-S , 12-S ) :  -0.0789 B( 10-S , 13-O ) :  -0.0659 B( 10-S , 16-O ) :  -0.0789 
B( 10-S , 29-H ) :  -0.0634 B( 10-S , 30-H ) :  -0.0619 B( 11-P , 12-S ) :   0.9188 
B( 11-P , 13-O ) :   0.6583 B( 11-P , 16-O ) :   0.6038 B( 11-P , 17-C ) :  -0.0879 
B( 12-S , 13-O ) :  -0.0632 B( 12-S , 16-O ) :  -0.0680 B( 12-S , 29-H ) :   0.0704 
B( 12-S , 36-H ) :   0.0639 B( 13-O , 14-C ) :   0.5212 B( 13-O , 15-C ) :  -0.1089 
B( 13-O , 16-O ) :  -0.0610 B( 13-O , 31-H ) :  -0.0563 B( 13-O , 32-H ) :  -0.0589 
B( 14-C , 15-C ) :   0.9023 B( 14-C , 31-H ) :   0.7346 B( 14-C , 32-H ) :   0.7141 
B( 15-C , 31-H ) :  -0.0515 B( 15-C , 32-H ) :  -0.0637 B( 15-C , 33-H ) :   0.7358 
B( 15-C , 34-H ) :   0.6924 B( 15-C , 35-H ) :   0.7481 B( 16-O , 17-C ) :   0.5534 
B( 16-O , 18-C ) :  -0.0921 B( 16-O , 36-H ) :  -0.0638 B( 16-O , 37-H ) :  -0.0629 
B( 17-C , 18-C ) :   0.8978 B( 17-C , 36-H ) :   0.7087 B( 17-C , 37-H ) :   0.7213 
B( 18-C , 36-H ) :  -0.0665 B( 18-C , 37-H ) :  -0.0587 B( 18-C , 38-H ) :   0.7022 
B( 18-C , 39-H ) :   0.7283 B( 18-C , 40-H ) :   0.7224 B( 19-H , 21-H ) :  -0.0546 
B( 22-H , 23-H ) :  -0.0732 B( 24-H , 25-H ) :  -0.0668 B( 27-H , 28-H ) :  -0.0598 
B( 31-H , 32-H ) :  -0.0650 B( 36-H , 37-H ) :  -0.0621 B( 39-H , 40-H ) :  -0.0510 



                     *******************************
                     * LOEWDIN POPULATION ANALYSIS *
                     *******************************

----------------------
LOEWDIN ATOMIC CHARGES
----------------------
   0 C :   -0.350656
   1 C :   -0.120474
   2 O :   -0.252270
   3 P :    0.567110
   4 S :   -0.326736
   5 O :   -0.235282
   6 C :   -0.112967
   7 C :   -0.358012
   8 S :    0.094196
   9 C :   -0.480361
  10 S :    0.085215
  11 P :    0.573150
  12 S :   -0.308270
  13 O :   -0.242195
  14 C :   -0.116432
  15 C :   -0.361248
  16 O :   -0.246896
  17 C :   -0.123256
  18 C :   -0.363588
  19 H :    0.126610
  20 H :    0.131198
  21 H :    0.127692
  22 H :    0.110923
  23 H :    0.107863
  24 H :    0.114514
  25 H :    0.107747
  26 H :    0.128271
  27 H :    0.122855
  28 H :    0.123895
  29 H :    0.132075
  30 H :    0.130777
  31 H :    0.122463
  32 H :    0.111911
  33 H :    0.132001
  34 H :    0.131644
  35 H :    0.119160
  36 H :    0.106735
  37 H :    0.115699
  38 H :    0.130088
  39 H :    0.120222
  40 H :    0.124631

-------------------------------
LOEWDIN REDUCED ORBITAL CHARGES
-------------------------------
  0 C s       :     2.950824  s :     2.950824
      pz      :     1.126132  p :     3.330742
      px      :     1.097539
      py      :     1.107070
      dz2     :     0.013937  d :     0.069090
      dxz     :     0.020933
      dyz     :     0.004819
      dx2y2   :     0.013279
      dxy     :     0.016122

  1 C s       :     2.930309  s :     2.930309
      pz      :     0.968529  p :     3.056930
      px      :     0.952163
      py      :     1.136238
      dz2     :     0.032464  d :     0.133235
      dxz     :     0.040504
      dyz     :     0.010777
      dx2y2   :     0.023577
      dxy     :     0.025913

  2 O s       :     3.505298  s :     3.505298
      pz      :     1.600498  p :     4.723354
      px      :     1.494449
      py      :     1.628407
      dz2     :     0.004689  d :     0.023618
      dxz     :     0.004887
      dyz     :     0.003095
      dx2y2   :     0.004142
      dxy     :     0.006805

  3 P s       :     5.056059  s :     5.056059
      pz      :     2.840002  p :     8.556711
      px      :     2.846024
      py      :     2.870684
      dz2     :     0.144919  d :     0.820121
      dxz     :     0.189381
      dyz     :     0.144912
      dx2y2   :     0.151092
      dxy     :     0.189816

  4 S s       :     5.766924  s :     5.766924
      pz      :     3.674797  p :    10.502329
      px      :     3.554667
      py      :     3.272866
      dz2     :     0.009389  d :     0.057483
      dxz     :     0.002490
      dyz     :     0.008280
      dx2y2   :     0.015714
      dxy     :     0.021609

  5 O s       :     3.501521  s :     3.501521
      pz      :     1.296574  p :     4.710100
      px      :     1.681625
      py      :     1.731901
      dz2     :     0.005309  d :     0.023661
      dxz     :     0.008449
      dyz     :     0.005774
      dx2y2   :     0.001848
      dxy     :     0.002280

  6 C s       :     2.930714  s :     2.930714
      pz      :     0.832453  p :     3.050297
      px      :     1.100065
      py      :     1.117779
      dz2     :     0.037454  d :     0.131956
      dxz     :     0.030736
      dyz     :     0.026705
      dx2y2   :     0.008630
      dxy     :     0.028431

  7 C s       :     2.952143  s :     2.952143
      pz      :     1.105733  p :     3.336741
      px      :     1.098191
      py      :     1.132817
      dz2     :     0.016982  d :     0.069128
      dxz     :     0.012804
      dyz     :     0.008012
      dx2y2   :     0.008526
      dxy     :     0.022804

  8 S s       :     5.642630  s :     5.642630
      pz      :     3.522078  p :    10.166163
      px      :     3.386856
      py      :     3.257230
      dz2     :     0.014251  d :     0.097010
      dxz     :     0.023536
      dyz     :     0.011623
      dx2y2   :     0.027283
      dxy     :     0.020317

  9 C s       :     3.063505  s :     3.063505
      pz      :     1.096807  p :     3.327785
      px      :     1.155585
      py      :     1.075393
      dz2     :     0.021482  d :     0.089071
      dxz     :     0.021421
      dyz     :     0.011036
      dx2y2   :     0.012604
      dxy     :     0.022527

 10 S s       :     5.636114  s :     5.636114
      pz      :     3.329651  p :    10.182407
      px      :     3.326076
      py      :     3.526680
      dz2     :     0.027184  d :     0.096265
      dxz     :     0.021793
      dyz     :     0.013834
      dx2y2   :     0.007984
      dxy     :     0.025470

 11 P s       :     5.055231  s :     5.055231
      pz      :     2.876611  p :     8.558990
      px      :     2.838895
      py      :     2.843485
      dz2     :     0.147836  d :     0.812629
      dxz     :     0.184144
      dyz     :     0.164352
      dx2y2   :     0.116339
      dxy     :     0.199959

 12 S s       :     5.762339  s :     5.762339
      pz      :     3.231917  p :    10.487886
      px      :     3.592944
      py      :     3.663025
      dz2     :     0.024807  d :     0.058045
      dxz     :     0.017719
      dyz     :     0.010770
      dx2y2   :     0.002360
      dxy     :     0.002389

 13 O s       :     3.503708  s :     3.503708
      pz      :     1.341071  p :     4.714851
      px      :     1.632575
      py      :     1.741205
      dz2     :     0.006521  d :     0.023636
      dxz     :     0.008073
      dyz     :     0.003582
      dx2y2   :     0.002942
      dxy     :     0.002518

 14 C s       :     2.928308  s :     2.928308
      pz      :     0.808579  p :     3.055640
      px      :     1.138345
      py      :     1.108716
      dz2     :     0.042436  d :     0.132484
      dxz     :     0.024607
      dyz     :     0.027810
      dx2y2   :     0.016160
      dxy     :     0.021471

 15 C s       :     2.952114  s :     2.952114
      pz      :     1.121283  p :     3.340099
      px      :     1.139574
      py      :     1.079242
      dz2     :     0.020056  d :     0.069035
      dxz     :     0.007899
      dyz     :     0.007578
      dx2y2   :     0.015149
      dxy     :     0.018353

 16 O s       :     3.502990  s :     3.502990
      pz      :     1.685150  p :     4.720209
      px      :     1.721559
      py      :     1.313500
      dz2     :     0.002740  d :     0.023697
      dxz     :     0.002575
      dyz     :     0.007859
      dx2y2   :     0.004516
      dxy     :     0.006007

 17 C s       :     2.928500  s :     2.928500
      pz      :     1.118252  p :     3.059728
      px      :     1.113329
      py      :     0.828146
      dz2     :     0.031844  d :     0.135028
      dxz     :     0.012106
      dyz     :     0.022857
      dx2y2   :     0.034290
      dxy     :     0.033931

 18 C s       :     2.953754  s :     2.953754
      pz      :     1.123650  p :     3.340514
      px      :     1.097927
      py      :     1.118938
      dz2     :     0.021627  d :     0.069320
      dxz     :     0.010810
      dyz     :     0.006637
      dx2y2   :     0.016911
      dxy     :     0.013335

 19 H s       :     0.873390  s :     0.873390

 20 H s       :     0.868802  s :     0.868802

 21 H s       :     0.872308  s :     0.872308

 22 H s       :     0.889077  s :     0.889077

 23 H s       :     0.892137  s :     0.892137

 24 H s       :     0.885486  s :     0.885486

 25 H s       :     0.892253  s :     0.892253

 26 H s       :     0.871729  s :     0.871729

 27 H s       :     0.877145  s :     0.877145

 28 H s       :     0.876105  s :     0.876105

 29 H s       :     0.867925  s :     0.867925

 30 H s       :     0.869223  s :     0.869223

 31 H s       :     0.877537  s :     0.877537

 32 H s       :     0.888089  s :     0.888089

 33 H s       :     0.867999  s :     0.867999

 34 H s       :     0.868356  s :     0.868356

 35 H s       :     0.880840  s :     0.880840

 36 H s       :     0.893265  s :     0.893265

 37 H s       :     0.884301  s :     0.884301

 38 H s       :     0.869912  s :     0.869912

 39 H s       :     0.879778  s :     0.879778

 40 H s       :     0.875369  s :     0.875369


---------------------------------
LOEWDIN BOND ORDERS (THRESH 0.050000)
---------------------------------
B(  0-C ,  1-C ) :   1.1563 B(  0-C ,  2-O ) :   0.0589 B(  0-C , 19-H ) :   0.9372 
B(  0-C , 20-H ) :   0.9290 B(  0-C , 21-H ) :   0.9371 B(  1-C ,  2-O ) :   1.0821 
B(  1-C ,  3-P ) :   0.0659 B(  1-C , 22-H ) :   0.9173 B(  1-C , 23-H ) :   0.9048 
B(  2-O ,  3-P ) :   1.2765 B(  2-O ,  4-S ) :   0.0897 B(  2-O ,  5-O ) :   0.0519 
B(  2-O ,  8-S ) :   0.0607 B(  3-P ,  4-S ) :   1.7019 B(  3-P ,  5-O ) :   1.3066 
B(  3-P ,  6-C ) :   0.0670 B(  3-P ,  8-S ) :   1.0733 B(  4-S ,  5-O ) :   0.0933 
B(  4-S ,  8-S ) :   0.1245 B(  5-O ,  6-C ) :   1.0706 B(  5-O ,  7-C ) :   0.0587 
B(  6-C ,  7-C ) :   1.1552 B(  6-C , 24-H ) :   0.9189 B(  6-C , 25-H ) :   0.9017 
B(  7-C , 26-H ) :   0.9271 B(  7-C , 27-H ) :   0.9312 B(  7-C , 28-H ) :   0.9336 
B(  8-S ,  9-C ) :   1.1609 B(  8-S , 10-S ) :   0.1042 B(  9-C , 10-S ) :   1.1674 
B(  9-C , 29-H ) :   0.9110 B(  9-C , 30-H ) :   0.9087 B( 10-S , 11-P ) :   1.0454 
B( 10-S , 12-S ) :   0.1202 B( 10-S , 13-O ) :   0.0628 B( 10-S , 16-O ) :   0.0550 
B( 11-P , 12-S ) :   1.7489 B( 11-P , 13-O ) :   1.3029 B( 11-P , 14-C ) :   0.0629 
B( 11-P , 16-O ) :   1.2507 B( 11-P , 17-C ) :   0.0648 B( 12-S , 13-O ) :   0.0700 
B( 12-S , 16-O ) :   0.0944 B( 13-O , 14-C ) :   1.0764 B( 13-O , 15-C ) :   0.0599 
B( 13-O , 16-O ) :   0.0593 B( 14-C , 15-C ) :   1.1587 B( 14-C , 31-H ) :   0.9165 
B( 14-C , 32-H ) :   0.9106 B( 15-C , 33-H ) :   0.9343 B( 15-C , 34-H ) :   0.9252 
B( 15-C , 35-H ) :   0.9259 B( 16-O , 17-C ) :   1.0864 B( 16-O , 18-C ) :   0.0619 
B( 17-C , 18-C ) :   1.1561 B( 17-C , 36-H ) :   0.9044 B( 17-C , 37-H ) :   0.9160 
B( 18-C , 38-H ) :   0.9274 B( 18-C , 39-H ) :   0.9383 B( 18-C , 40-H ) :   0.9293 


------------------------------------------
LOEWDIN REDUCED ORBITAL POPULATIONS PER MO
-------------------------------------------
THRESHOLD FOR PRINTING IS 0.1%%
                      0         1         2         3         4         5   
                 -88.04351 -88.04057 -87.98835 -87.98596 -76.42630 -76.42569
                   2.00000   2.00000   2.00000   2.00000   2.00000   2.00000
                  --------  --------  --------  --------  --------  --------
 3 P  s               0.0       0.0       0.0       0.0     100.0       0.0
 4 S  s               0.0       0.0     100.0       0.0       0.0       0.0
 8 S  s             100.0       0.0       0.0       0.0       0.0       0.0
10 S  s               0.0     100.0       0.0       0.0       0.0       0.0
11 P  s               0.0       0.0       0.0       0.0       0.0     100.0
12 S  s               0.0       0.0       0.0     100.0       0.0       0.0

                      6         7         8         9        10        11   
                 -18.79566 -18.79325 -18.79054 -18.78718  -9.96094  -9.95361
                   2.00000   2.00000   2.00000   2.00000   2.00000   2.00000
                  --------  --------  --------  --------  --------  --------
 2 O  s               0.0      99.9       0.0       0.0       0.0       0.0
 5 O  s               0.0       0.0      99.9       0.0       0.0       0.0
 6 C  s               0.0       0.0       0.0       0.0       0.0       0.5
 9 C  s               0.0       0.0       0.0       0.0       0.0      99.3
13 O  s              99.9       0.0       0.0       0.0       0.0       0.0
14 C  s               0.0       0.0       0.0       0.0      99.7       0.0
15 C  py              0.0       0.0       0.0       0.0       0.1       0.0
16 O  s               0.0       0.0       0.0      99.9       0.0       0.0

                     12        13        14        15        16        17   
                  -9.95346  -9.95305  -9.94641  -9.89193  -9.88928  -9.88730
                   2.00000   2.00000   2.00000   2.00000   2.00000   2.00000
                  --------  --------  --------  --------  --------  --------
 0 C  s               0.0       0.0       0.0       0.0      99.7       0.0
 1 C  s               0.0      99.6       0.0       0.0       0.0       0.0
 6 C  s              99.2       0.0       0.0       0.0       0.0       0.0
 7 C  s               0.0       0.0       0.0       0.0       0.0      99.7
 9 C  s               0.5       0.0       0.0       0.0       0.0       0.0
14 C  py              0.0       0.0       0.0       0.1       0.0       0.0
15 C  s               0.0       0.0       0.0      99.7       0.0       0.0
17 C  s               0.0       0.0      99.7       0.0       0.0       0.0

                     18        19        20        21        22        23   
                  -9.88251  -7.68853  -7.68556  -7.63336  -7.63124  -6.42414
                   2.00000   2.00000   2.00000   2.00000   2.00000   2.00000
                  --------  --------  --------  --------  --------  --------
 2 O  py              0.0       0.0       0.0       0.0       0.0       0.1
 3 P  s               0.0       0.0       0.0       0.0       0.0      99.3
 4 S  s               0.0       0.0       0.0      99.9       0.0       0.0
 5 O  pz              0.0       0.0       0.0       0.0       0.0       0.2
 8 S  s               0.0      99.7       0.0       0.0       0.0       0.0
 9 C  pz              0.0       0.0       0.1       0.0       0.0       0.0
 9 C  py              0.0       0.1       0.0       0.0       0.0       0.0
10 S  s               0.0       0.0      99.7       0.0       0.0       0.0
12 S  s               0.0       0.0       0.0       0.0      99.9       0.0
18 C  s              99.7       0.0       0.0       0.0       0.0       0.0

                     24        25        26        27        28        29   
                  -6.42330  -5.71639  -5.71338  -5.71308  -5.71024  -5.70547
                   2.00000   2.00000   2.00000   2.00000   2.00000   2.00000
                  --------  --------  --------  --------  --------  --------
 8 S  pz              0.0      21.6       0.0      28.9       0.0      49.5
 8 S  px              0.0      53.7       0.0       4.5       0.0      41.8
 8 S  py              0.0      24.7       0.0      66.6       0.0       8.7
10 S  pz              0.0       0.0      25.4       0.0      52.2       0.0
10 S  px              0.0       0.0      63.8       0.0       3.3       0.0
10 S  py              0.0       0.0      10.8       0.0      44.5       0.0
11 P  s              99.3       0.0       0.0       0.0       0.0       0.0
13 O  px              0.1       0.0       0.0       0.0       0.0       0.0
16 O  py              0.1       0.0       0.0       0.0       0.0       0.0

                     30        31        32        33        34        35   
                  -5.70240  -5.66206  -5.66027  -5.65405  -5.65367  -5.65177
                   2.00000   2.00000   2.00000   2.00000   2.00000   2.00000
                  --------  --------  --------  --------  --------  --------
 4 S  pz              0.0       0.5       0.0      65.5      34.0       0.0
 4 S  px              0.0      24.7       0.0      22.9      52.4       0.0
 4 S  py              0.0      74.8       0.0      11.6      13.6       0.0
10 S  pz             22.4       0.0       0.0       0.0       0.0       0.0
10 S  px             32.9       0.0       0.0       0.0       0.0       0.0
10 S  py             44.8       0.0       0.0       0.0       0.0       0.0
12 S  pz              0.0       0.0      79.5       0.0       0.0      20.1
12 S  px              0.0       0.0      16.4       0.0       0.0      53.5
12 S  py              0.0       0.0       4.0       0.0       0.0      26.5

                     36        37        38        39        40        41   
                  -5.65130  -4.64654  -4.64620  -4.64590  -4.64466  -4.64466
                   2.00000   2.00000   2.00000   2.00000   2.00000   2.00000
                  --------  --------  --------  --------  --------  --------
 3 P  pz              0.0      35.7       0.0      41.3       1.4      21.5
 3 P  px              0.0      57.2       0.0       6.6       2.2      33.9
 3 P  py              0.0       6.9       0.0      52.1       2.6      38.3
11 P  pz              0.0       0.0       0.5       0.0      41.1       2.8
11 P  px              0.0       0.0      71.0       0.0      12.0       0.8
11 P  py              0.0       0.0      28.3       0.0      40.6       2.6
12 S  pz              0.4       0.0       0.0       0.0       0.0       0.0
12 S  px             30.1       0.0       0.0       0.0       0.0       0.0
12 S  py             69.5       0.0       0.0       0.0       0.0       0.0

                     42        43        44        45        46        47   
                  -4.64389  -0.98713  -0.98492  -0.94553  -0.94291  -0.76581
                   2.00000   2.00000   2.00000   2.00000   2.00000   2.00000
                  --------  --------  --------  --------  --------  --------
 0 C  s               0.0       0.2       0.0       0.3       0.0       0.2
 0 C  px              0.0       0.3       0.0       0.4       0.0       0.0
 0 C  py              0.0       0.1       0.0       0.2       0.0       0.0
 1 C  s               0.0       3.1       0.2       4.5       0.2       0.4
 1 C  pz              0.0       1.6       0.1       1.9       0.1       0.0
 1 C  px              0.0       1.8       0.1       2.0       0.1       0.0
 1 C  dxz             0.0       0.2       0.0       0.3       0.0       0.0
 2 O  s               0.0      27.7       1.5      28.9       1.1       0.2
 2 O  pz              0.0       0.1       0.0       0.7       0.0       0.1
 2 O  px              0.0       0.1       0.0       0.2       0.0       0.4
 2 O  py              0.0       1.2       0.1       0.5       0.0       0.1
 3 P  s               0.0      13.7       0.7       0.0       0.0       3.0
 3 P  pz              0.0       1.3       0.1       4.5       0.2       1.2
 3 P  px              0.0       0.1       0.0       5.0       0.2       1.1
 3 P  py              0.0       3.4       0.2       0.9       0.0       0.2
 3 P  dz2             0.0       0.0       0.0       1.2       0.1       0.0
 3 P  dxz             0.0       0.6       0.0       0.3       0.0       0.2
 3 P  dyz             0.0       0.0       0.0       0.5       0.0       0.0
 3 P  dxy             0.0       0.3       0.0       1.2       0.0       0.0
 4 S  s               0.0       0.3       0.0       0.0       0.0       0.6
 4 S  py              0.0       0.3       0.0       0.0       0.0       0.1
 5 O  s               0.0      26.9       1.2      29.4       1.5       0.2
 5 O  pz              0.0       0.2       0.0       0.1       0.0       0.9
 5 O  px              0.0       1.1       0.1       0.5       0.0       0.0
 5 O  py              0.0       0.3       0.0       0.4       0.0       0.0
 6 C  s               0.0       3.0       0.1       4.2       0.2       0.7
 6 C  pz              0.0       3.1       0.1       3.2       0.2       0.0
 6 C  px              0.0       0.2       0.0       0.3       0.0       0.0
 6 C  py              0.0       0.2       0.0       0.2       0.0       0.0
 6 C  dz2             0.0       0.2       0.0       0.2       0.0       0.0
 7 C  s               0.0       0.2       0.0       0.3       0.0       0.2
 7 C  pz              0.0       0.2       0.0       0.3       0.0       0.0
 7 C  px              0.0       0.1       0.0       0.2       0.0       0.0
 8 S  s               0.0       0.3       0.0       0.0       0.0      18.8
 8 S  pz              0.0       0.2       0.0       0.0       0.0       0.4
 8 S  px              0.0       0.2       0.0       0.0       0.0       0.0
 8 S  py              0.0       0.0       0.0       0.0       0.0       2.5
 9 C  s               0.0       0.0       0.0       0.0       0.0      25.2
 9 C  pz              0.0       0.0       0.0       0.0       0.0       1.6
 9 C  py              0.0       0.0       0.0       0.0       0.0       1.3
10 S  s               0.0       0.0       0.3       0.0       0.0      17.5
10 S  pz              0.0       0.0       0.0       0.0       0.0       2.0
10 S  px              0.0       0.0       0.2       0.0       0.0       0.1
10 S  py              0.0       0.0       0.2       0.0       0.0       0.8
10 S  dxz             0.0       0.0       0.0       0.0       0.0       0.1
11 P  s               0.0       0.7      13.2       0.0       0.1       2.7
11 P  pz             55.5       0.2       3.8       0.0       0.1       0.3
11 P  px             16.1       0.0       0.4       0.2       5.1       1.1
11 P  py             28.4       0.0       0.3       0.2       5.1       0.9
11 P  dz2             0.0       0.0       0.0       0.0       0.1       0.0
11 P  dxz             0.0       0.0       0.3       0.1       1.3       0.0
11 P  dyz             0.0       0.0       0.0       0.0       1.0       0.0
[...]
                  --------  --------  --------  --------
 0 C  s               0.0       0.0       0.0       0.1
 0 C  dz2             0.0       0.0       0.0       0.2
 0 C  dxy             0.1       0.0       0.0       0.2
 1 C  s               0.3       0.0       0.0       1.0
 1 C  pz              0.2       0.0       0.0       0.7
 1 C  px              0.3       0.0       0.0       1.2
 1 C  dz2             0.1       0.0       0.0       0.3
 1 C  dxz             1.5       0.0       0.0       4.6
 1 C  dyz             0.0       0.0       0.0       0.2
 1 C  dx2y2           0.4       0.0       0.0       1.5
 2 O  s               0.1       0.0       0.0       0.1
 2 O  pz              0.3       0.0       0.0       1.3
 2 O  px              0.7       0.0       0.0       3.1
 2 O  py              0.2       0.0       0.0       1.0
 2 O  dz2             1.7       0.0       0.0      10.5
 2 O  dxz             6.2       0.0       0.0      17.8
 2 O  dyz             0.2       0.0       0.0       0.6
 2 O  dx2y2           2.7       0.0       0.0       9.9
 2 O  dxy             1.9       0.0       0.0       9.8
 3 P  s               0.6       0.0       0.0       0.0
 3 P  pz              0.2       0.0       0.0       1.6
 3 P  px              0.0       0.0       0.0       1.6
 3 P  py              0.2       0.0       0.0       0.2
 3 P  dz2             0.2       0.0       0.0       0.7
 3 P  dyz             0.0       0.0       0.0       0.6
 3 P  dxy             0.3       0.0       0.0       0.7
 5 O  s               2.0       0.0       0.0       0.6
 5 O  pz              4.3       0.1       0.0       2.7
 5 O  px              0.0       0.0       0.0       0.2
 5 O  dz2            25.6       0.4       0.0       0.1
 5 O  dxz            18.1       0.3       0.1      17.4
 5 O  dyz            13.3       0.2       0.1       5.9
 5 O  dx2y2           0.0       0.0       0.0       0.5
 5 O  dxy             0.2       0.0       0.0       0.3
 6 C  s               1.5       0.0       0.0       0.3
 6 C  pz              2.7       0.0       0.0       0.4
 6 C  px              0.1       0.0       0.0       0.0
 6 C  py              0.2       0.0       0.0       0.0
 6 C  dz2             6.7       0.1       0.0       1.3
 6 C  dxz             2.5       0.0       0.0       0.1
 6 C  dyz             1.4       0.0       0.0       0.1
 6 C  dxy             0.2       0.0       0.0       0.0
 7 C  dxz             0.3       0.0       0.0       0.0
11 P  s               0.0       0.5       0.2       0.0
11 P  pz              0.0       0.6       0.0       0.0
11 P  px              0.0       0.8       0.5       0.0
11 P  py              0.0       0.3       0.9       0.0
11 P  dz2             0.0       0.2       0.2       0.0
11 P  dxz             0.0       0.9       0.0       0.0
11 P  dyz             0.0       0.2       0.2       0.0
11 P  dx2y2           0.0       0.0       0.4       0.0
11 P  dxy             0.0       0.0       0.1       0.0
13 O  s               0.0       0.3       0.1       0.0
13 O  pz              0.1       5.6       0.2       0.0
13 O  px              0.0       0.5       0.1       0.0
13 O  py              0.0       0.4       0.0       0.0
13 O  dz2             0.6      42.8       0.1       0.0
13 O  dxz             0.2      19.6       1.4       0.0
13 O  dyz             0.0       0.1       0.3       0.0
13 O  dx2y2           0.0       1.9       0.5       0.0
13 O  dxy             0.0       2.8       0.4       0.0
14 C  s               0.0       1.6       0.0       0.0
14 C  pz              0.0       2.7       0.0       0.0
14 C  dz2             0.1       9.2       0.0       0.0
14 C  dyz             0.0       0.6       0.0       0.0
15 C  dyz             0.0       0.2       0.0       0.0
16 O  s               0.0       0.4       1.0       0.0
16 O  py              0.0       0.0       6.5       0.0
16 O  dz2             0.0       0.3       4.0       0.0
16 O  dxz             0.0       0.3       0.6       0.0
16 O  dyz             0.0       0.1      34.5       0.0
16 O  dx2y2           0.2       4.2      22.0       0.0
16 O  dxy             0.0       0.0       8.3       0.0
17 C  s               0.0       0.1       1.9       0.0
17 C  pz              0.0       0.0       0.2       0.0
17 C  py              0.0       0.1       3.1       0.0
17 C  dz2             0.0       0.0       1.4       0.0
17 C  dyz             0.0       0.3       2.3       0.0
17 C  dx2y2           0.0       0.3       7.3       0.0
18 C  dxy             0.0       0.0       0.2       0.0


                      *****************************
                      * MAYER POPULATION ANALYSIS *
                      *****************************

  NA   - Mulliken gross atomic population
  ZA   - Total nuclear charge
  QA   - Mulliken gross atomic charge
  VA   - Mayer's total valence
  BVA  - Mayer's bonded valence
  FA   - Mayer's free valence

  ATOM       NA         ZA         QA         VA         BVA        FA
  0 C      6.2811     6.0000    -0.2811     4.0024     4.0024    -0.0000
  1 C      6.0104     6.0000    -0.0104     3.9670     3.9670    -0.0000
  2 O      8.3790     8.0000    -0.3790     2.1646     2.1646     0.0000
  3 P     14.3829    15.0000     0.6171     4.9766     4.9766    -0.0000
  4 S     16.3425    16.0000    -0.3425     2.0555     2.0555     0.0000
  5 O      8.3560     8.0000    -0.3560     2.1851     2.1851    -0.0000
  6 C      6.0056     6.0000    -0.0056     3.9780     3.9780    -0.0000
  7 C      6.3080     6.0000    -0.3080     3.9988     3.9988    -0.0000
  8 S     16.0817    16.0000    -0.0817     2.2781     2.2781    -0.0000
  9 C      6.3509     6.0000    -0.3509     3.8298     3.8298    -0.0000
 10 S     16.1069    16.0000    -0.1069     2.2894     2.2894    -0.0000
 11 P     14.3708    15.0000     0.6292     4.9381     4.9381     0.0000
 12 S     16.3153    16.0000    -0.3153     2.0337     2.0337     0.0000
 13 O      8.3651     8.0000    -0.3651     2.1722     2.1722     0.0000
 14 C      6.0393     6.0000    -0.0393     4.0182     4.0182     0.0000
 15 C      6.3076     6.0000    -0.3076     3.9948     3.9948     0.0000
 16 O      8.3806     8.0000    -0.3806     2.1714     2.1714     0.0000
 17 C      6.0063     6.0000    -0.0063     3.9898     3.9898    -0.0000
 18 C      6.3006     6.0000    -0.3006     3.9924     3.9924     0.0000
 19 H      0.8837     1.0000     0.1163     0.9582     0.9582     0.0000
 20 H      0.8872     1.0000     0.1128     0.9545     0.9545    -0.0000
 21 H      0.8825     1.0000     0.1175     0.9605     0.9605    -0.0000
 22 H      0.8973     1.0000     0.1027     0.9563     0.9563    -0.0000
 23 H      0.8933     1.0000     0.1067     0.9936     0.9936    -0.0000
 24 H      0.8971     1.0000     0.1029     0.9476     0.9476     0.0000
 25 H      0.8916     1.0000     0.1084     0.9977     0.9977     0.0000
 26 H      0.8932     1.0000     0.1068     0.9527     0.9527    -0.0000
 27 H      0.8705     1.0000     0.1295     0.9760     0.9760    -0.0000
 28 H      0.8716     1.0000     0.1284     0.9622     0.9622     0.0000
 29 H      0.8062     1.0000     0.1938     0.9656     0.9656     0.0000
 30 H      0.8066     1.0000     0.1934     0.9704     0.9704     0.0000
 31 H      0.8883     1.0000     0.1117     0.9469     0.9469     0.0000
 32 H      0.8782     1.0000     0.1218     0.9779     0.9779     0.0000
 33 H      0.8744     1.0000     0.1256     0.9566     0.9566    -0.0000
 34 H      0.8874     1.0000     0.1126     0.9550     0.9550     0.0000
 35 H      0.8582     1.0000     0.1418     0.9656     0.9656     0.0000
 36 H      0.8853     1.0000     0.1147     0.9883     0.9883     0.0000
 37 H      0.8984     1.0000     0.1016     0.9577     0.9577     0.0000
 38 H      0.8891     1.0000     0.1109     0.9558     0.9558     0.0000
 39 H      0.8941     1.0000     0.1059     0.9573     0.9573     0.0000
 40 H      0.8752     1.0000     0.1248     0.9814     0.9814     0.0000

  Mayer bond orders larger than 0.100000
B(  0-C ,  1-C ) :   1.1611 B(  0-C , 19-H ) :   0.9509 B(  0-C , 20-H ) :   0.9420 
B(  0-C , 21-H ) :   0.9511 B(  1-C ,  2-O ) :   0.9052 B(  1-C , 22-H ) :   0.9301 
B(  1-C , 23-H ) :   0.9080 B(  2-O ,  3-P ) :   1.1122 B(  3-P ,  4-S ) :   1.6027 
B(  3-P ,  5-O ) :   1.1434 B(  3-P ,  8-S ) :   0.9644 B(  4-S ,  8-S ) :   0.1069 
B(  5-O ,  6-C ) :   0.8981 B(  6-C ,  7-C ) :   1.1670 B(  6-C , 24-H ) :   0.9337 
B(  6-C , 25-H ) :   0.9027 B(  7-C , 26-H ) :   0.9370 B(  7-C , 27-H ) :   0.9404 
B(  7-C , 28-H ) :   0.9378 B(  8-S ,  9-C ) :   1.0015 B(  9-C , 10-S ) :   1.0097 
B(  9-C , 29-H ) :   0.8832 B(  9-C , 30-H ) :   0.8803 B( 10-S , 11-P ) :   0.9475 
B( 10-S , 12-S ) :   0.1020 B( 11-P , 12-S ) :   1.6275 B( 11-P , 13-O ) :   1.1327 
B( 11-P , 16-O ) :   1.0748 B( 13-O , 14-C ) :   0.8998 B( 14-C , 15-C ) :   1.1690 
B( 14-C , 31-H ) :   0.9330 B( 14-C , 32-H ) :   0.9100 B( 15-C , 33-H ) :   0.9447 
B( 15-C , 34-H ) :   0.9384 B( 15-C , 35-H ) :   0.9295 B( 16-O , 17-C ) :   0.9009 
B( 17-C , 18-C ) :   1.1611 B( 17-C , 36-H ) :   0.9094 B( 17-C , 37-H ) :   0.9323 
B( 18-C , 38-H ) :   0.9413 B( 18-C , 39-H ) :   0.9484 B( 18-C , 40-H ) :   0.9377 


-------
TIMINGS
-------

Total SCF time: 0 days 0 hours 0 min 17 sec 

Total time                  ....      17.278 sec
Sum of individual times     ....      16.716 sec  ( 96.7%)

SCF preparation             ....       0.213 sec  (  1.2%)
Fock matrix formation       ....      15.314 sec  ( 88.6%)
  Startup                   ....       0.057 sec  (  0.4% of F)
  Split-RI-J                ....       9.108 sec  ( 59.5% of F)
  XC integration            ....       5.630 sec  ( 36.8% of F)
    Basis function eval.    ....       2.135 sec  ( 37.9% of XC)
    Density eval.           ....       1.097 sec  ( 19.5% of XC)
    XC-Functional eval.     ....       0.400 sec  (  7.1% of XC)
    XC-Potential eval.      ....       1.259 sec  ( 22.4% of XC)
Diagonalization             ....       0.000 sec  (  0.0%)
Density matrix formation    ....       0.240 sec  (  1.4%)
Total Energy calculation    ....       0.029 sec  (  0.2%)
Population analysis         ....       0.208 sec  (  1.2%)
Orbital Transformation      ....       0.092 sec  (  0.5%)
Orbital Orthonormalization  ....       0.000 sec  (  0.0%)
DIIS solution               ....       0.487 sec  (  2.8%)
  MO trafo                  ....       0.000 sec  (  0.0 % of DIIS)
  Orb grad                  ....       0.000 sec  (  0.0 % of DIIS)
  Energy W gradient         ....       0.000 sec  (  0.0 % of DIIS)
  DIIS error                ....       0.021 sec  (  4.4 % of DIIS)
  DIIS work                 ....       0.393 sec  ( 80.9 % of DIIS)
  Form Q                    ....       0.000 sec  (  0.0 % of DIIS)
  Form QpQm                 ....       0.000 sec  (  0.0 % of DIIS)
  Exp/Cayley                ....       0.000 sec  (  0.0 % of DIIS)
  Orb update                ....       0.000 sec  (  0.0 % of DIIS)
  Wake-sleep                ....       0.016 sec  (  3.3 % of DIIS)
SOSCF solution              ....       0.133 sec  (  0.8%)
  MO trafo                  ....       0.070 sec  ( 53.1 % of SOSCF)
  Orb grad                  ....       0.001 sec  (  1.1 % of SOSCF)
  Rot update                ....       0.026 sec  ( 19.4 % of SOSCF)
  Step                      ....       0.035 sec  ( 26.2 % of SOSCF)
Finished LeanSCF after  17.4 sec

Maximum memory used throughout the entire LEANSCF-calculation: 35.2 MB


-------------------------------------------------------------------------------
                          DFT DISPERSION CORRECTION                            
                                                                               
                                DFTD4 V3.4.0                                   
-------------------------------------------------------------------------------
The PBE functional is recognized
Active option DFTDOPT                   ...         5   

-------------------------   ----------------
Dispersion correction           -0.066038397
-------------------------   ----------------

------------------   -----------------
gCP correction             0.184792770
------------------   -----------------

-------------------------   --------------------
FINAL SINGLE POINT ENERGY     -2929.523774797913
-------------------------   --------------------


------------------------------------------------------------------------------
                              ORCA PROPERTY CALCULATIONS
------------------------------------------------------------------------------

GBWName                                 ... sp.gbw
Number of atoms                         ...     41
Number of basis functions               ...    334
Max core memory                         ...   1024 MB

Electric properties:
Dipole moment                           ... YES
Quadrupole moment                       ...  NO
Static polarizability (Dipole/Dipole)   ...  NO
Static polarizability (Dipole/Quad.)    ...  NO
Static polarizability (Quad./Quad.)     ...  NO
Static polarizability (Velocity)        ...  NO

Atomic electric properties:
Dipole moment                           ...  NO
Quadrupole moment                       ...  NO
Static polarizability                   ...  NO

Choice of electric origin               ... Center of mass
Position of electric origin             ...     0.000002    -0.000001     0.000005

General magnetic properties:
Magnetizability                         ...  NO

EPR properties:
g-Tensor (aka g-matrix)                 ...  NO
Zero-Field splitting spin-orbit         ...  NO
Zero-field splitting spin-spin          ...  NO
Hyperfine couplings                     ...  NO (   0 nuclei)
Quadrupole couplings                    ...  NO (   0 nuclei)
Contact density                         ...  NO (   0 nuclei)

NMR properties:
Chemical shifts                         ...  NO (   0 nuclei)
Spin-rotation constants                 ...  NO (   0 nuclei)
Spin-spin couplings                     ...  NO (   0 nuclei,    0 pairs)

Choice of magnetic origin               ... GIAO
Position of magnetic origin             ...     0.000000     0.000000     0.000000

Properties with geometric perturbations:
SCF Hessian                             ...  NO
IR spectrum                             ...  NO
VCD spectrum                            ...  NO
X-ray spectroscopy properties:
SCF XES/XAS/RIXS spectra                ...  NO


-------------
DIPOLE MOMENT
-------------

Method             : SCF
Type of density    : Electron Density
Multiplicity       :   1
Irrep              :   0
Energy             : -2929.6425291708401346 Eh
Relativity type    : 
Basis              : AO
                                X                 Y                 Z
Electronic contribution:     -2.283768374       9.746977890     -17.067291564
Nuclear contribution   :      2.745171960     -10.654949089      18.447055174
                        -----------------------------------------
Total Dipole Moment    :      0.461403586      -0.907971200       1.379763610
                        -----------------------------------------
Magnitude (a.u.)       :      1.714949733
Magnitude (Debye)      :      4.359055802



--------------------
Rotational spectrum 
--------------------
 
Rotational constants in cm-1:             0.011874             0.005299             0.004920 
Rotational constants in MHz :           355.972769           158.849721           147.495259 

Dipole components along the rotational axes: 
x,y,z [a.u.] :     0.379110    -0.638820    -1.545716 
x,y,z [Debye]:     0.963620    -1.623751    -3.928898 

 

Dipole moment calculation done in   0.0 sec 

Maximum memory used throughout the entire PROP-calculation: 24.3 MB

--------------------------------
SUGGESTED CITATIONS FOR THIS RUN
--------------------------------

Below you find a list of papers that are relevant to this ORCA run
We neither can nor want to force you to cite these papers, but we appreciate if you do
You receive ORCA, which is the product of decades of hard work by many enthusiastic individuals, for free
The only thing we kindly ask in return is that you cite our papers,
We deeply appreciate it, if you show your appreciation for ORCA by not just citing the generic ORCA reference.

Please note that relegating all ORCA citations to the supporting information does *not* help us.
SI sections are not indexed - citations you put there will not count into any citation statistics
But we need these citations in order to attract the funding resources that allow us to do what we are doing

Therefore, if you are a happy ORCA user, please consider citing a few of the papers listed below in the main body of your paper

In addition to the list printed below, the program has created the file sp.bibtex that contains the list in bibtex format
You can import this file easily into all common literature databanks and citation aid programs


List of essential papers. We consider these as the minimum necessary citations

  1. Neese,F.
     Software update: the ORCA program system, version 5.0
     WIRES Comput. Molec. Sci., 2022 12(1)e1606
     doi.org/10.1002/wcms.1606

List of papers to cite with high priority. The work reported in these papers was absolutely
necessary for this run to complete.
Our perspective: the developers of density functionals and basis sets usually get cited in chemistry papers
Good! But without the algorithms to do something with them, the functionals or basis sets would not do anything.
Hence, in our opinion, the algorithm design and method developments papers are equally worthy of getting cited

  1. Neese,F.
     An improvement of the resolution of the identity approximation for the formation of the Coulomb matrix
     J. Comp. Chem., 2003 24(14)1740-1747
     doi.org/10.1002/jcc.10318
  2. Neese,F.
     The SHARK Integral Generation and Digestion System
     J. Comp. Chem., 2022  1-16
     doi.org/10.1002/jcc.26942
  3. Caldeweyher,E.; Bannwarth,C.; Grimme,S.
     Extension of the D3 dispersion coefficient model
     J. Chem. Phys., 2017 147 034112-XXXX
     doi.org/10.1063/1.4993215
  4. Caldeweyher,E.; Ehlert,S.; Hansen,A.; Neugebauer,H.; Spicher,S.; Bannwarth,C.; Grimme,S.
     A generally applicable atomic-charge dependent London dispersion correction
     J. Chem. Phys., 2019 150 154122-XXXX
     doi.org/10.1063/1.5090222
  5. Caldeweyher,E.; Mewes,J.; Ehlert,S.; Grimme,S.
     Extension and evaluation of the D4 London-dispersion model for periodic systems
     Phys. Chem. Chem. Phys., 2020 22(16)8499-8512
     doi.org/10.1039/D0CP00502A

List of suggested additional citations. These are papers that are important in the 'surrounding' of 
of this run, or papers that preceded the highly important papers. If you like your results we are grateful for a citation.

  1. Neese,F.
     The ORCA program system
     WIRES Comput. Molec. Sci., 2012 2(1)73-78
     doi.org/10.1002/wcms.81
  2. Neese,F.
     Software update: the ORCA program system, version 4.0
     WIRES Comput. Molec. Sci., 2018 8(1)1-6
     doi.org/10.1002/wcms.1327
  3. Neese,F.; Wennmohs,F.; Becker,U.; Riplinger,C.
     The ORCA quantum chemistry program package
     J. Chem. Phys., 2020 152 Art. No. L224108
     doi.org/10.1063/5.0004608

List of optional additional citations

  1. Neese,F.
     Approximate second-order SCF convergence for spin unrestricted wavefunctions
     Chem. Phys. Lett., 2000 325(1-3)93-98
     doi.org/10.1016/s0009-2614(00)00662-x

Timings for individual modules:

Sum of individual times          ...       21.052 sec (=   0.351 min)
Startup calculation              ...        1.584 sec (=   0.026 min)   7.5 %
SCF iterations                   ...       19.347 sec (=   0.322 min)  91.9 %
Property calculations            ...        0.120 sec (=   0.002 min)   0.6 %
                             ****ORCA TERMINATED NORMALLY****
TOTAL RUN TIME: 0 days 0 hours 0 minutes 21 seconds 815 msec
