
                                 *****************
                                 * O   R   C   A *
                                 *****************

                                            #,                                       
                                            ###                                      
                                            ####                                     
                                            #####                                    
                                            ######                                   
                                           ########,                                 
                                     ,,################,,,,,                         
                               ,,#################################,,                 
                          ,,##########################################,,             
                       ,#########################################, ''#####,          
                    ,#############################################,,   '####,        
                  ,##################################################,,,,####,       
                ,###########''''           ''''###############################       
              ,#####''   ,,,,##########,,,,          '''####'''          '####       
            ,##' ,,,,###########################,,,                        '##       
           ' ,,###''''                  '''############,,,                           
         ,,##''                                '''############,,,,        ,,,,,,###''
      ,#''                                            '''#######################'''  
     '                                                          ''''####''''         
             ,#######,   #######,   ,#######,      ##                                
            ,#'     '#,  ##    ##  ,#'     '#,    #''#        ,####,   ,####,        
            ##       ##  ##   ,#'  ##            #'  '#       #'       #'  '#        
            ##       ##  #######   ##           ,######,      #####,   #    #        
            '#,     ,#'  ##    ##  '#,     ,#' ,#      #,     #,   #   #,  ,#        
             '#######'   ##     ##  '#######'  #'      '#     '####' # '####'        



                #########################################################
                #                        -***-                          #
                #          Department of theory and spectroscopy        #
                #                                                       #
                #                      Frank Neese                      #
                #                                                       #
                #     Directorship, Architecture, Infrastructure        #
                #                    SHARK, DRIVERS                     #
                #        Core code/Algorithms in most modules           #
                #                                                       #
                #        Max Planck Institute fuer Kohlenforschung      #
                #                Kaiser Wilhelm Platz 1                 #
                #                 D-45470 Muelheim/Ruhr                 #
                #                      Germany                          #
                #                                                       #
                #                  All rights reserved                  #
                #                        -***-                          #
                #########################################################


                         Program Version 6.0.0  -   RELEASE  -


 With contributions from (in alphabetic order):
   Daniel Aravena         : Magnetic Suceptibility
   Michael Atanasov       : Ab Initio Ligand Field Theory (pilot matlab implementation)
   Alexander A. Auer      : GIAO ZORA, VPT2 properties, NMR spectrum
   Ute Becker             : All parallelization in ORCA, NUMFREQ, NUMCALC
   Giovanni Bistoni       : ED, misc. LED, open-shell LED, HFLD
   Martin Brehm           : Molecular dynamics
   Dmytro Bykov           : pre 5.0 version of the SCF Hessian
   Marcos Casanova-Páez   : Triplet and SCS-CIS(D). UHF-(DLPNO)-IP/EA/STEOM-CCSD. UHF-CVS-IP/STEOM-CCSD
   Vijay G. Chilkuri      : MRCI spin determinant printing, contributions to CSF-ICE
   Pauline Colinet        : FMM embedding
   Dipayan Datta          : RHF DLPNO-CCSD density
   Achintya Kumar Dutta   : EOM-CC, STEOM-CC
   Nicolas Foglia         : Exact transition moments, OPA infrastructure, MCD improvements
   Dmitry Ganyushin       : Spin-Orbit,Spin-Spin,Magnetic field MRCI
   Miquel Garcia          : C-PCM and meta-GGA Hessian, CCSD/C-PCM, Gaussian charge scheme
   Tiago L. C. Gouveia    : GS-ROHF, GS-ROCIS
   Yang Guo               : DLPNO-NEVPT2, F12-NEVPT2, CIM, IAO-localization
   Andreas Hansen         : Spin unrestricted coupled pair/coupled cluster methods
   Ingolf Harden          : AUTO-CI MPn and infrastructure 
   Benjamin Helmich-Paris : MC-RPA, TRAH-(SCF,CASSCF), AVAS, COSX integrals, SCF dyn. polar.
   Lee Huntington         : MR-EOM, pCC
   Robert Izsak           : Overlap fitted RIJCOSX, COSX-SCS-MP3, EOM
   Riya Kayal             : Wick's Theorem for AUTO-CI, AUTO-CI UHF-CCSDT
   Emily Kempfer          : AUTO-CI, RHF CISDT and CCSDT
   Christian Kollmar      : KDIIS, OOCD, Brueckner-CCSD(T), CCSD density, CASPT2, CASPT2-K, improved NEVPT2
   Axel Koslowski         : Symmetry handling
   Simone Kossmann        : Meta GGA functionals, TD-DFT gradient, OOMP2, (MP2 Hessian; deprecated post 5.0)
   Lucas Lang             : DCDCAS
   Marvin Lechner         : AUTO-CI (C++ implementation), FIC-MRCC
   Spencer Leger          : CASSCF response
   Dagmar Lenk            : GEPOL surface, SMD, ORCA-2-JSON
   Dimitrios Liakos       : Extrapolation schemes; Compound Job, initial MDCI parallelization
   Dimitrios Manganas     : Further ROCIS development; embedding schemes. LFT, Crystal Embedding
   Dimitrios Pantazis     : SARC Basis sets
   Anastasios Papadopoulos: AUTO-CI, single reference methods and gradients
   Taras Petrenko         : pre 6.0 DFT Hessian and TD-DFT gradient, (ASA, deprecated), ECA, 1-Electron XAS/XES, NRVS
   Peter Pinski           : DLPNO-MP2, DLPNO-MP2 Gradient
   Christoph Reimann      : Effective Core Potentials
   Marius Retegan         : Local ZFS, SOC
   Christoph Riplinger    : Optimizer, TS searches, QM/MM, DLPNO-CCSD(T), (RO)-DLPNO pert. Triples
   Michael Roemelt        : Original ROCIS implementation
   Masaaki Saitow         : Open-shell DLPNO-CCSD energy and density
   Barbara Sandhoefer     : DKH picture change effects
   Kantharuban Sivalingam : CASSCF convergence/infrastructure, NEVPT2 and variants, FIC-MRCI
   Bernardo de Souza      : ESD, SOC TD-DFT
   Georgi Stoychev        : AutoAux, RI-MP2 NMR, DLPNO-MP2 response, X2C
   Van Anh Tran           : RI-MP2 g-tensors
   Willem Van den Heuvel  : Paramagnetic NMR
   Zikuan Wang            : NOTCH, Electric field optimization 
   Frank Wennmohs         : Technical directorship and infrastructure
   Hang Xu                : AUTO-CI-Response properties 


 We gratefully acknowledge several colleagues who have allowed us to
 interface, adapt or use parts of their codes:
   Stefan Grimme, W. Hujo, H. Kruse, P. Pracht,  : VdW corrections, initial TS optimization,
                  C. Bannwarth, S. Ehlert,         DFT functionals, gCP, sTDA/sTD-DF
                  L. Wittmann, M. Mueller
   Ed Valeev, F. Pavosevic, A. Kumar             : LibInt (2-el integral package), F12 methods
   Garnet Chan, S. Sharma, J. Yang, R. Olivares  : DMRG
   Ulf Ekstrom                                   : XCFun DFT Library
   Mihaly Kallay                                 : mrcc  (arbitrary order and MRCC methods)
   Frank Weinhold                                : gennbo (NPA and NBO analysis)
   Simon Mueller                                 : openCOSMO-RS
   Christopher J. Cramer and Donald G. Truhlar   : smd solvation model
   Lars Goerigk                                  : TD-DFT with DH, B97 family of functionals
   V. Asgeirsson, H. Jonsson                     : NEB implementation
   FAccTs GmbH                                   : IRC, NEB, NEB-TS, DLPNO-Multilevel, CI-OPT
                                                   MM, QMMM, 2- and 3-layer-ONIOM, Crystal-QMMM,
                                                   LR-CPCM, SF, NACMEs, symmetry and pop. for TD-DFT,
                                                   nearIR, NL-DFT gradient (VV10), updates on ESD,
                                                   ML-optimized integration grids, MBIS, APM,
                                                   GOAT, DOCKER, SOLVATOR, interface openCOSMO-RS
   S Lehtola, MJT Oliveira, MAL Marques          : LibXC Library
   Liviu Ungur et al                             : ANISO software


 Your calculation uses the libint2 library for the computation of 2-el integrals
 For citations please refer to: http://libint.valeyev.net

 Your ORCA version has been built with support for libXC version: 6.2.2
 For citations please refer to: https://libxc.gitlab.io

 This ORCA versions uses:
   CBLAS   interface :  Fast vector & matrix operations
   LAPACKE interface :  Fast linear algebra routines
   SCALAPACK package :  Parallel linear algebra routines
   Shared memory     :  Shared parallel matrices
   BLAS/LAPACK       :  OpenBLAS 0.3.27  USE64BITINT DYNAMIC_ARCH NO_AFFINITY SkylakeX SINGLE_THREADED
        Core in use  :  SkylakeX
   Copyright (c) 2011-2014, The OpenBLAS Project


Your calculation utilizes the geometrical counterpoise correction gCP
Please cite in your paper:
H.Kruse, S. Grimme J.Chem.Phys., 136, (2012), 154101 
   

Your calculation utilizes the atom-pairwise dispersion correction
based on EEQ partial charges (D4)


Your calculation utilizes the SMD solvation module
Please cite in your paper:
A.V. Marenich, C.J. Cramer, D.G. Truhlar J. Phys. Chem. B, 113, (2009), 6378 

================================================================================

----- Orbital basis set information -----
Your calculation utilizes the basis: def2-mTZVPP
   Stefan Grimme, Andreas Hansen, Sebastian Ehlert, and Jan-Michael Mewes 
   J. Chem. Phys. 154, 064103 (2021). DOI: 10.1063/5.0040021

----- AuxJ basis set information -----
Your calculation utilizes the auxiliary basis: def2/J
   F. Weigend, Phys. Chem. Chem. Phys. 8, 1057 (2006).

================================================================================
                                        WARNINGS
                       Please study these warnings very carefully!
================================================================================

Using LibXC functional ID 497 : Re-regularized SCAN exchange by Furness et al
[ 1]  J. W. Furness, A. D. Kaplan, J. Ning, J. P. Perdew, and J. Sun.,  J. Phys. Chem. Lett. 11, 8208-8215 (2020)
[ 2]  J. W. Furness, A. D. Kaplan, J. Ning, J. P. Perdew, and J. Sun.,  J. Phys. Chem. Lett. 11, 9248-9248 (2020)
Using LibXC functional ID 498 : Re-regularized SCAN correlation by Furness et al
[ 1]  J. W. Furness, A. D. Kaplan, J. Ning, J. P. Perdew, and J. Sun.,  J. Phys. Chem. Lett. 11, 8208-8215 (2020)
[ 2]  J. W. Furness, A. D. Kaplan, J. Ning, J. P. Perdew, and J. Sun.,  J. Phys. Chem. Lett. 11, 9248-9248 (2020)
Using LibXC functional ID 497 : Re-regularized SCAN exchange by Furness et al
[ 1]  J. W. Furness, A. D. Kaplan, J. Ning, J. P. Perdew, and J. Sun.,  J. Phys. Chem. Lett. 11, 8208-8215 (2020)
[ 2]  J. W. Furness, A. D. Kaplan, J. Ning, J. P. Perdew, and J. Sun.,  J. Phys. Chem. Lett. 11, 9248-9248 (2020)
Using LibXC functional ID 498 : Re-regularized SCAN correlation by Furness et al
[ 1]  J. W. Furness, A. D. Kaplan, J. Ning, J. P. Perdew, and J. Sun.,  J. Phys. Chem. Lett. 11, 8208-8215 (2020)
[ 2]  J. W. Furness, A. D. Kaplan, J. Ning, J. P. Perdew, and J. Sun.,  J. Phys. Chem. Lett. 11, 9248-9248 (2020)

================================================================================
                                       INPUT FILE
================================================================================
NAME = sp_solv.inp
|  1> ! r2scan-3c def2/J RI DEFGRID2 scfconv6 printgap
|  2> %output
|  3>     printlevel normal
|  4> end
|  5> %cpcm
|  6>     smd true
|  7>     smdsolvent "water"
|  8> end
|  9> * xyz 0 1
| 10> C -2.492809543 0.7999557943 -0.0049065745
| 11> C -1.2012181002 0.0380908688 -0.0001281304
| 12> C -1.2314503023 -1.3473233244 -0.001164567
| 13> C -0.0565082598 -2.077043939 0.0020507357
| 14> C 1.1505595509 -1.411014007 0.0027381164
| 15> C 1.2133048316 -0.0191494995 0.0023577924
| 16> C 0.0269929804 0.7167168515 0.0049463957
| 17> C -0.0097559793 2.2180497077 0.0055285961
| 18> C 2.5924255009 0.5811385666 -0.0080833042
| 19> H -2.5865946688 1.4057082098 0.8955958397
| 20> H -2.5444520506 1.4689628764 -0.8623224305
| 21> H -3.3365066032 0.1162337611 -0.0479291023
| 22> H -2.1828727652 -1.8601589011 -0.0044818819
| 23> H -0.0848686946 -3.1568536212 0.002632145
| 24> H 2.0735643575 -1.9736466127 0.0022130874
| 25> H 0.975271739 2.6608823264 0.0914807221
| 26> H -0.4647495576 2.5797085182 -0.9161002618
| 27> H -0.6144918957 2.576675952 0.8367246781
| 28> H 3.1563753859 0.2156803916 0.8489172849
| 29> H 3.1178753072 0.2679345888 -0.9093189726
| 30> H 2.5922579606 1.6642005601 0.0227977884
| 31> *
| 32> 
| 33>                          ****END OF INPUT****
================================================================================

                       ****************************
                       * Single Point Calculation *
                       ****************************

---------------------------------
CARTESIAN COORDINATES (ANGSTROEM)
---------------------------------
  C     -2.492810    0.799956   -0.004907
  C     -1.201218    0.038091   -0.000128
  C     -1.231450   -1.347323   -0.001165
  C     -0.056508   -2.077044    0.002051
  C      1.150560   -1.411014    0.002738
  C      1.213305   -0.019149    0.002358
  C      0.026993    0.716717    0.004946
  C     -0.009756    2.218050    0.005529
  C      2.592426    0.581139   -0.008083
  H     -2.586595    1.405708    0.895596
  H     -2.544452    1.468963   -0.862322
  H     -3.336507    0.116234   -0.047929
  H     -2.182873   -1.860159   -0.004482
  H     -0.084869   -3.156854    0.002632
  H      2.073564   -1.973647    0.002213
  H      0.975272    2.660882    0.091481
  H     -0.464750    2.579709   -0.916100
  H     -0.614492    2.576676    0.836725
  H      3.156375    0.215680    0.848917
  H      3.117875    0.267935   -0.909319
  H      2.592258    1.664201    0.022798

----------------------------
CARTESIAN COORDINATES (A.U.)
----------------------------
  NO LB      ZA    FRAG     MASS         X           Y           Z
   0 C     6.0000    0    12.011   -4.710727    1.511697   -0.009272
   1 C     6.0000    0    12.011   -2.269973    0.071981   -0.000242
   2 C     6.0000    0    12.011   -2.327104   -2.546072   -0.002201
   3 C     6.0000    0    12.011   -0.106785   -3.925044    0.003875
   4 C     6.0000    0    12.011    2.174242   -2.666430    0.005174
   5 C     6.0000    0    12.011    2.292814   -0.036187    0.004456
   6 C     6.0000    0    12.011    0.051009    1.354399    0.009347
   7 C     6.0000    0    12.011   -0.018436    4.191506    0.010448
   8 C     6.0000    0    12.011    4.898974    1.098193   -0.015275
   9 H     1.0000    0     1.008   -4.887956    2.656404    1.692431
  10 H     1.0000    0     1.008   -4.808318    2.775938   -1.629553
  11 H     1.0000    0     1.008   -6.305084    0.219650   -0.090573
  12 H     1.0000    0     1.008   -4.125032   -3.515191   -0.008470
  13 H     1.0000    0     1.008   -0.160379   -5.965589    0.004974
  14 H     1.0000    0     1.008    3.918469   -3.729652    0.004182
  15 H     1.0000    0     1.008    1.842996    5.028339    0.172874
  16 H     1.0000    0     1.008   -0.878249    4.874943   -1.731179
  17 H     1.0000    0     1.008   -1.161221    4.869212    1.581180
  18 H     1.0000    0     1.008    5.964685    0.407577    1.604221
  19 H     1.0000    0     1.008    5.891930    0.506323   -1.718364
  20 H     1.0000    0     1.008    4.898658    3.144883    0.043082

--------------------------------
INTERNAL COORDINATES (ANGSTROEM)
--------------------------------
 C      0   0   0     0.000000000000     0.00000000     0.00000000
 C      1   0   0     1.499556418862     0.00000000     0.00000000
 C      2   1   0     1.385744401744   119.28445190     0.00000000
 C      3   2   1     1.383109293143   120.59283872   179.94670697
 C      4   3   2     1.378625780421   119.26801335   359.82956835
 C      5   4   3     1.393278120884   121.46995172     0.10085351
 C      6   5   4     1.396009239117   119.22998943     0.17356397
 C      7   6   5     1.501782664070   123.21338897   179.96563729
 C      6   5   4     1.504137161063   116.10257574   180.47830384
 H      1   2   3     1.089328342000   110.73473028   117.88518691
 H      1   2   3     1.088760476235   110.82714505   237.43591307
 H      1   2   3     1.086807934260   110.43508966   357.79843819
 H      3   2   1     1.080840430507   119.57563435   359.94451563
 H      4   3   2     1.080182207811   120.33865338   179.91368877
 H      5   4   3     1.080968823629   119.74608058   180.18505362
 H      8   7   6     1.083405788229   112.73076511   354.96244785
 H      8   7   6     1.089594421434   109.98118496   115.70794888
 H      8   7   6     1.088671317899   110.07235300   234.25088403
 H      9   6   5     1.089058841470   109.59723672   302.91440609
 H      9   6   5     1.089229067114   109.46897015    60.88558206
 H      9   6   5     1.083502169686   113.49003434   181.77637840

---------------------------
INTERNAL COORDINATES (A.U.)
---------------------------
 C      0   0   0     0.000000000000     0.00000000     0.00000000
 C      1   0   0     2.833750954012     0.00000000     0.00000000
 C      2   1   0     2.618677410911   119.28445190     0.00000000
 C      3   2   1     2.613697777321   120.59283872   179.94670697
 C      4   3   2     2.605225166158   119.26801335   359.82956835
 C      5   4   3     2.632914076856   121.46995172     0.10085351
 C      6   5   4     2.638075142354   119.22998943     0.17356397
 C      7   6   5     2.837957947763   123.21338897   179.96563729
 C      6   5   4     2.842407302263   116.10257574   180.47830384
 H      1   2   3     2.058532236299   110.73473028   117.88518691
 H      1   2   3     2.057459125522   110.82714505   237.43591307
 H      1   2   3     2.053769355925   110.43508966   357.79843819
 H      3   2   1     2.042492408127   119.57563435   359.94451563
 H      4   3   2     2.041248547497   120.33865338   179.91368877
 H      5   4   3     2.042735035967   119.74608058   180.18505362
 H      8   7   6     2.047340231658   112.73076511   354.96244785
 H      8   7   6     2.059035053559   109.98118496   115.70794888
 H      8   7   6     2.057290640685   110.07235300   234.25088403
 H      9   6   5     2.058022954104   109.59723672   302.91440609
 H      9   6   5     2.058344633953   109.46897015    60.88558206
 H      9   6   5     2.047522366216   113.49003434   181.77637840

---------------------
BASIS SET INFORMATION
---------------------
There are 2 groups of distinct atoms

 Group   1 Type C   : 11s6p1d contracted to 5s3p1d pattern {62111/411/1}
 Group   2 Type H   : 4s1p contracted to 2s1p pattern {31/1}

Atom   0C    basis set group =>   1
Atom   1C    basis set group =>   1
Atom   2C    basis set group =>   1
Atom   3C    basis set group =>   1
Atom   4C    basis set group =>   1
Atom   5C    basis set group =>   1
Atom   6C    basis set group =>   1
Atom   7C    basis set group =>   1
Atom   8C    basis set group =>   1
Atom   9H    basis set group =>   2
Atom  10H    basis set group =>   2
Atom  11H    basis set group =>   2
Atom  12H    basis set group =>   2
Atom  13H    basis set group =>   2
Atom  14H    basis set group =>   2
Atom  15H    basis set group =>   2
Atom  16H    basis set group =>   2
Atom  17H    basis set group =>   2
Atom  18H    basis set group =>   2
Atom  19H    basis set group =>   2
Atom  20H    basis set group =>   2
---------------------------------
AUXILIARY/J BASIS SET INFORMATION
---------------------------------
There are 2 groups of distinct atoms

 Group   1 Type C   : 12s5p4d2f1g contracted to 6s4p3d1f1g pattern {711111/2111/211/2/1}
 Group   2 Type H   : 5s2p1d contracted to 3s1p1d pattern {311/2/1}

Atom   0C    basis set group =>   1
Atom   1C    basis set group =>   1
Atom   2C    basis set group =>   1
Atom   3C    basis set group =>   1
Atom   4C    basis set group =>   1
Atom   5C    basis set group =>   1
Atom   6C    basis set group =>   1
Atom   7C    basis set group =>   1
Atom   8C    basis set group =>   1
Atom   9H    basis set group =>   2
Atom  10H    basis set group =>   2
Atom  11H    basis set group =>   2
Atom  12H    basis set group =>   2
Atom  13H    basis set group =>   2
Atom  14H    basis set group =>   2
Atom  15H    basis set group =>   2
Atom  16H    basis set group =>   2
Atom  17H    basis set group =>   2
Atom  18H    basis set group =>   2
Atom  19H    basis set group =>   2
Atom  20H    basis set group =>   2

Checking for AutoStart:
The File: sp_solv.gbw exists
Trying to determine its content:
     ... Fine, the file contains calculation information
     ... Fine, the calculation information was read
     ... Fine, the file contains a basis set
     ... Fine, the basis set was read
     ... Fine, the file contains a geometry
     ... Fine, the geometry was read
     ... Fine, the file contains a set of orbitals
     ... Fine, the orbitals can be read
     => possible old guess file was deleted
     => GBW file was renamed to GES file
     => GES file is set as startup file
     => Guess is set to MORead
     ... now leaving AutoStart

------------------------------------------------------------------------------
                             ORCA STARTUP CALCULATIONS
                           -- RI-GTO INTEGRALS CHOSEN --
------------------------------------------------------------------------------
------------------------------------------------------------------------------
                   ___                                                        
                  /   \      - P O W E R E D   B Y -                         
                 /     \                                                     
                 |  |  |   _    _      __       _____    __    __             
                 |  |  |  | |  | |    /  \     |  _  \  |  |  /  |          
                  \  \/   | |  | |   /    \    | | | |  |  | /  /          
                 / \  \   | |__| |  /  /\  \   | |_| |  |  |/  /          
                |  |  |   |  __  | /  /__\  \  |    /   |      \           
                |  |  |   | |  | | |   __   |  |    \   |  |\   \          
                \     /   | |  | | |  |  |  |  | |\  \  |  | \   \       
                 \___/    |_|  |_| |__|  |__|  |_| \__\ |__|  \__/        
                                                                              
                      - O R C A' S   B I G   F R I E N D -                    
                                      &                                       
                       - I N T E G R A L  F E E D E R -                       
                                                                              
 v1 FN, 2020, v2 2021, v3 2022-2024                                           
------------------------------------------------------------------------------


----------------------
SHARK INTEGRAL PACKAGE
----------------------

Number of atoms                             ...     21
Number of basis functions                   ...    231
Number of shells                            ...    117
Maximum angular momentum                    ...      2
Integral batch strategy                     ... SHARK/LIBINT Hybrid
RI-J (if used) integral strategy            ... SPLIT-RIJ (Revised 2003 algorithm where possible)
Printlevel                                  ...      1
Contraction scheme used                     ... SEGMENTED contraction
Prescreening option                         ... SCHWARTZ
   Thresh                                   ... 1.000e-10
   Tcut                                     ... 1.000e-11
   Tpresel                                  ... 1.000e-11 
Coulomb Range Separation                    ... NOT USED
Exchange Range Separation                   ... NOT USED
Multipole approximations                    ... NOT USED
Finite Nucleus Model                        ... NOT USED
CABS basis                                  ... NOT available
Auxiliary Coulomb fitting basis             ... AVAILABLE
   # of basis functions in Aux-J            ...    573
   # of shells in Aux-J                     ...    195
   Maximum angular momentum in Aux-J        ...      4
Auxiliary J/K fitting basis                 ... NOT available
Auxiliary Correlation fitting basis         ... NOT available
Auxiliary 'external' fitting basis          ... NOT available

Checking pre-screening integrals            ... done (  0.0 sec) Dimension = 117
Check shell pair data                       ... done (  0.0 sec)
Shell pair information
Shell pair cut-off parameter TPreSel        ...   1.0e-11
Total number of shell pairs                 ...      6903
Shell pairs after pre-screening             ...      6149
Total number of primitive shell pairs       ...     24987
Primitive shell pairs kept                  ...     15697
          la=0 lb=0:   2113 shell pairs
          la=1 lb=0:   2401 shell pairs
          la=1 lb=1:    712 shell pairs
          la=2 lb=0:    561 shell pairs
          la=2 lb=1:    318 shell pairs
          la=2 lb=2:     44 shell pairs

Calculating one electron integrals          ... done (  0.0 sec)
Calculating RI/J V-Matrix + Cholesky decomp.... done (  0.1 sec)
Calculating Nuclear repulsion               ... done (  0.0 sec) ENN=    430.231769053366 Eh

Diagonalization of the overlap matrix:
Smallest eigenvalue                        ... 1.704e-05
Time for diagonalization                   ...    0.005 sec
Threshold for overlap eigenvalues          ... 1.000e-07
Number of eigenvalues below threshold      ... 0
Time for construction of square roots      ...    0.015 sec
Total time needed                          ...    0.027 sec

-------------------
DFT GRID GENERATION
-------------------

General Integration Accuracy     IntAcc      ... 4.388
Radial Grid Type                 RadialGrid  ... OptM3 with GC (2021)
Angular Grid (max. ang.)         AngularGrid ... 4 (Lebedev-302)
Angular grid pruning method      GridPruning ... 4 (adaptive)
Weight generation scheme         WeightScheme... mBecke (2022)
Basis function cutoff            BFCut       ... 1.0000e-10
Integration weight cutoff        WCut        ... 1.0000e-14
Partially contracted basis set               ... off
Rotationally invariant grid construction     ... off
Angular grids for H and He will be reduced by one unit

Total number of grid points                  ...    92246
Total number of batches                      ...     1454
Average number of points per batch           ...       63
Average number of grid points per atom       ...     4393
Initializing property integral containers    ... done (  0.0 sec)

SHARK setup successfully completed in   1.3 seconds

Maximum memory used throughout the entire STARTUP-calculation: 40.7 MB
-------------------------------------------------------------------------------
                                 ORCA GUESS
                   Start orbitals & Density for SCF / CASSCF
-------------------------------------------------------------------------------

------------
SCF SETTINGS
------------
Hamiltonian:
 Density Functional     Method          .... DFT(GTOs)
  Functional kind                       .... Exchange
  Functional name                       .... Re-regularized SCAN exchange by Furness et al
  Functional family                     .... MGGA
  Functional refs                              
    [ 0] J. W. Furness, A. D. Kaplan, J. Ning, J. P. Perdew, and J. Sun.,  J. Phys. Chem. Lett. 11, 8208-8215 (2020), doi: 10.1021/acs.jpclett.0c02405
    [ 1] J. W. Furness, A. D. Kaplan, J. Ning, J. P. Perdew, and J. Sun.,  J. Phys. Chem. Lett. 11, 9248-9248 (2020), doi: 10.1021/acs.jpclett.0c03077
  Functional external parameters        .... 6
    Parameter  0 _c1        =  6.670000e-01 : c1 parameter        
    Parameter  1 _c2        =  8.000000e-01 : c2 parameter        
    Parameter  2 _d         =  1.240000e+00 : d parameter         
    Parameter  3 _k1        =  6.500000e-02 : k1 parameter        
    Parameter  4 _eta       =  1.000000e-03 : eta parameter       
    Parameter  5 _dp2       =  3.610000e-01 : dp2 parameter       
  Functional kind                       .... Correlation
  Functional name                       .... Re-regularized SCAN correlation by Furness et al
  Functional family                     .... MGGA
  Functional refs                              
    [ 0] J. W. Furness, A. D. Kaplan, J. Ning, J. P. Perdew, and J. Sun.,  J. Phys. Chem. Lett. 11, 8208-8215 (2020), doi: 10.1021/acs.jpclett.0c02405
    [ 1] J. W. Furness, A. D. Kaplan, J. Ning, J. P. Perdew, and J. Sun.,  J. Phys. Chem. Lett. 11, 9248-9248 (2020), doi: 10.1021/acs.jpclett.0c03077
  Functional external parameters        .... 1
    Parameter  0 _eta       =  1.000000e-03 : Regularization parameter
 Gradients option       PostSCFGGA      .... off
 RI-approximation to the Coulomb term is turned on
   Number of AuxJ basis functions       .... 573


General Settings:
 Integral files         IntName         .... sp_solv
 Hartree-Fock type      HFTyp           .... RHF
 Total Charge           Charge          ....    0
 Multiplicity           Mult            ....    1
 Number of Electrons    NEL             ....   66
 Basis Dimension        Dim             ....  231
 Nuclear Repulsion      ENuc            ....    430.2317690534 Eh

Convergence Acceleration:
 AO-DIIS                CNVDIIS         .... on
   Start iteration      DIISMaxIt       ....    12
   Startup error        DIISStart       ....  0.200000
   # of expansion vecs  DIISMaxEq       ....     5
   Bias factor          DIISBfac        ....   1.050
   Max. coefficient     DIISMaxC        ....  10.000
 MO-DIIS                CNVKDIIS        .... off
 Trust-Rad. Augm. Hess. CNVTRAH         .... auto
   Auto Start mean grad. ratio tolernc. ....  1.125000
   Auto Start start iteration           ....     1
   Auto Start num. interpolation iter.  ....    10
   Max. Number of Micro iterations      ....    24
   Max. Number of Macro iterations      .... Maxiter - #DIIS iter
   Number of Davidson start vectors     ....     2
   Converg. threshold    (grad. norm)   ....   3.330e-04
   Grad. Scal. Fac. for Micro threshold ....   0.100
   Minimum threshold for Micro iter.    ....   1.000e-02
   NR start threshold (gradient norm)   ....   1.000e-04
   Initial trust radius                 ....   0.400
   Minimum AH scaling param. (alpha)    ....   1.000
   Maximum AH scaling param. (alpha)    .... 1000.000
   Quad. conv. algorithm                .... NR
   White noise on init. David. guess    .... on
   Maximum white noise                  ....   0.010
   Pseudo random numbers                .... off
   Inactive MOs                         .... canonical
   Orbital update algorithm             .... Taylor
   Preconditioner                       .... Diag
   Full preconditioner red. dimension   ....   250
   COSX micro iterations for RIJONX calc.... off
 SOSCF                  CNVSOSCF        .... on
   Start iteration      SOSCFMaxIt      ....   150
   Startup grad/error   SOSCFStart      ....  0.003300
   Hessian update       SOSCFHessUp     .... L-BFGS
 Level Shifting         CNVShift        .... on
   Level shift para.    LevelShift      ....    0.2500
   Turn off err/grad.   ShiftErr        ....    0.0010
 Zerner damping         CNVZerner       .... off
 Static damping         CNVDamp         .... on
   Fraction old density DampFac         ....    0.7000
   Max. Damping (<1)    DampMax         ....    0.9800
   Min. Damping (>=0)   DampMin         ....    0.0000
   Turn off err/grad.   DampErr         ....    0.1000

SCF Procedure:
 Maximum # iterations   MaxIter         ....   125
 SCF integral mode      SCFMode         .... Direct
   Integral package                     .... SHARK and LIBINT hybrid scheme
 Reset frequency        DirectResetFreq ....    20
 Integral Threshold     Thresh          ....  1.000e-10 Eh
 Primitive CutOff       TCut            ....  1.000e-11 Eh

Convergence Tolerance:
 Convergence Check Mode ConvCheckMode   .... Total+1el-Energy
 Convergence forced     ConvForced      .... 0
 Energy Change          TolE            ....  1.000e-06 Eh
 1-El. energy change                    ....  1.000e-03 Eh
 Orbital Gradient       TolG            ....  3.330e-04
 Orbital Rotation angle TolX            ....  3.330e-04
 DIIS Error             TolErr          ....  1.000e-06

---------------------
INITIAL GUESS: MOREAD
---------------------
Guess MOs are being read from file: sp_solv.ges
Input Geometry matches current geometry (good)
Atom 0: N(Shells)= 9 and 6 - projection required
Input basis set needs projection
NBasis(read)= 150
NBasis(calc)= 231
Basis set overlap was calculated
Using GuessMode=FMatrix for the initial guess
C*T matrix was formed
Effective Fockian was calculated
Effective Fockian was diagonalized
Initial density was built
                      ------------------
                      INITIAL GUESS DONE (   0.0 sec)
                      ------------------
             **** ENERGY FILE WAS UPDATED (sp_solv.en.tmp) ****
Finished Guess after   0.3 sec
Maximum memory used throughout the entire GUESS-calculation: 16.6 MB

-------------------------------------------------------------------------------------------
                                      ORCA LEAN-SCF
                              memory conserving SCF solver
-------------------------------------------------------------------------------------------

--------------------
CPCM SOLVATION MODEL
--------------------
CPCM parameters:
  Epsilon                                         ...      78.3550
  Refrac                                          ...       1.3328
  Rsolv                                           ...       1.3000
  Surface type                                    ... GAUSSIAN VDW
  Discretization scheme                           ... Constant charge density
    Threshold for H atoms                         ...       5.0000 (charges/Ang^2)
    Threshold for non-H atoms                     ...       5.0000 (charges/Ang^2)
  Epsilon function type                           ...         CPCM
Solvent:                                          ... WATER
SMD-CDS solvent descriptors:
  Soln                                            ...       1.3328
  Soln25                                          ...       1.3323
  Sola                                            ...       0.0000
  Solb                                            ...       0.0000
  Solg                                            ...       0.0000
  Solc                                            ...       0.0000
  Solh                                            ...       0.0000
Radii:
  Scheme                                          ... Element-dependent radii
  Radius for C  used is    3.4960 Bohr (=   1.8500 Ang.)
  Radius for H  used is    2.2677 Bohr (=   1.2000 Ang.)
Calculating surface                               ...        done! (  0.0s)
Cavity surface points                             ...         1562
Cavity Volume                                     ...     972.2857
Cavity Surface-area                               ...     596.1796
Calculating surface distance matrix               ...        done! (  0.0s)
Performing Cholesky decomposition & store         ...        done! (  0.1s)
Overall time for CPCM initialization              ...                 0.1s

----------------------------------------D-I-I-S--------------------------------------------
Iteration    Energy (Eh)           Delta-E    RMSDP     MaxDP     DIISErr   Damp  Time(sec)
-------------------------------------------------------------------------------------------
               ***  Starting incremental Fock matrix formation  ***
    1    -349.9222152111399851     0.00e+00  2.75e-02  1.12e+00  2.85e-01  0.700   3.9
    2    -349.9720484266344442    -4.98e-02  2.05e-02  8.21e-01  2.00e-01  0.700   3.5
                               ***Turning on AO-DIIS***
    3    -350.0073242582425905    -3.53e-02  1.45e-02  5.77e-01  1.40e-01  0.700   3.4
    4    -350.0321019492762957    -2.48e-02  1.02e-02  4.03e-01  9.81e-02  0.700   3.3
    5    -350.0494895157023052    -1.74e-02  2.38e-02  9.40e-01  6.87e-02  0.000   3.2
                              *** Initializing SOSCF ***
---------------------------------------S-O-S-C-F--------------------------------------
Iteration    Energy (Eh)           Delta-E    RMSDP     MaxDP     MaxGrad    Time(sec)
--------------------------------------------------------------------------------------
    6    -350.0902128849708674    -4.07e-02  1.16e-04  2.98e-03  3.64e-04     3.4
               *** Restarting incremental Fock matrix formation ***
    7    -350.0902148291983735    -1.94e-06  5.36e-05  1.16e-03  1.43e-04     3.9
    8    -350.0902145453960088     2.84e-07  1.55e-05  3.15e-04  1.85e-04     2.8
                 **** Energy Check signals convergence ****

               *****************************************************
               *                     SUCCESS                       *
               *           SCF CONVERGED AFTER   8 CYCLES          *
               *****************************************************


SMD CDS free energy correction energy :                 3.92157     Kcal/mol
Total Energy after SMD CDS correction =              -350.083965119 Eh
             **** ENERGY FILE WAS UPDATED (sp_solv.en.tmp) ****

----------------
TOTAL SCF ENERGY
----------------

Total Energy       :       -350.08396511887241 Eh           -9526.26900 eV

Components:
Nuclear Repulsion  :        430.23176905336555 Eh           11707.20162 eV
Electronic Energy  :       -780.31300367529946 Eh          -21233.39632 eV
One Electron Energy:      -1323.76898253525883 Eh          -36021.58532 eV
Two Electron Energy:        543.45597885995937 Eh           14788.18900 eV
CPCM Dielectric    :         -0.00897992346211 Eh              -0.24436 eV
SMD CDS (Gcds)     :          0.00624942652358 Eh               0.17006 eV

Virial components:
Potential Energy   :       -698.71795950082696 Eh          -19013.08228 eV
Kinetic Energy     :        348.63399438195449 Eh            9486.81329 eV
Virial Ratio       :          2.00415900560554

DFT components:
N(Alpha)           :       33.000012965808 electrons
N(Beta)            :       33.000012965808 electrons
N(Total)           :       66.000025931616 electrons
E(X)               :      -51.167710198338 Eh       
E(C)               :       -2.090364969826 Eh       
E(XC)              :      -53.258075168165 Eh       

CPCM Solvation Model Properties:
Surface-charge          :         -0.04912296497681
Corrected charge        :         -0.00000000000000
Outlying charge corr.   :          0.00018100573962 Eh               0.00493 eV
Free-energy (cav+disp)  :          0.00624942652358 Eh               0.17006 eV

---------------
SCF CONVERGENCE
---------------

  Last Energy change         ...   -2.8380e-07  Tolerance :   1.0000e-06
  Last MAX-Density change    ...    3.1459e-04  Tolerance :   1.0000e-05
  Last RMS-Density change    ...    1.5473e-05  Tolerance :   1.0000e-06
  Last DIIS Error            ...    3.6351e-04  Tolerance :   1.0000e-06
  Last Orbital Gradient      ...    1.8530e-04  Tolerance :   3.3300e-04
  Last Orbital Rotation      ...    2.7565e-04  Tolerance :   3.3300e-04


----------------
ORBITAL ENERGIES
----------------

  NO   OCC          E(Eh)            E(eV) 
   0   2.0000     -10.037086      -273.1230 
   1   2.0000     -10.035886      -273.0903 
   2   2.0000     -10.035144      -273.0701 
   3   2.0000     -10.023254      -272.7466 
   4   2.0000     -10.020146      -272.6620 
   5   2.0000     -10.019937      -272.6563 
   6   2.0000     -10.015705      -272.5412 
   7   2.0000     -10.015650      -272.5397 
   8   2.0000     -10.015037      -272.5230 
   9   2.0000      -0.828919       -22.5560 
  10   2.0000      -0.746795       -20.3213 
  11   2.0000      -0.739250       -20.1160 
  12   2.0000      -0.676496       -18.4084 
  13   2.0000      -0.638997       -17.3880 
  14   2.0000      -0.631696       -17.1893 
  15   2.0000      -0.538561       -14.6550 
  16   2.0000      -0.535386       -14.5686 
  17   2.0000      -0.456696       -12.4273 
  18   2.0000      -0.446304       -12.1445 
  19   2.0000      -0.405008       -11.0208 
  20   2.0000      -0.396931       -10.8010 
  21   2.0000      -0.378299       -10.2940 
  22   2.0000      -0.366979        -9.9860 
  23   2.0000      -0.363483        -9.8909 
  24   2.0000      -0.360371        -9.8062 
  25   2.0000      -0.358494        -9.7551 
  26   2.0000      -0.347814        -9.4645 
  27   2.0000      -0.328554        -8.9404 
  28   2.0000      -0.315315        -8.5802 
  29   2.0000      -0.294620        -8.0170 
  30   2.0000      -0.290513        -7.9053 
  31   2.0000      -0.218048        -5.9334 
  32   2.0000      -0.216611        -5.8943 
  33   0.0000      -0.024789        -0.6745 
  34   0.0000      -0.019480        -0.5301 
  35   0.0000       0.091351         2.4858 
  36   0.0000       0.097161         2.6439 
  37   0.0000       0.110146         2.9972 
  38   0.0000       0.117266         3.1910 
  39   0.0000       0.131547         3.5796 
  40   0.0000       0.140700         3.8286 
  41   0.0000       0.149014         4.0549 
  42   0.0000       0.155013         4.2181 
  43   0.0000       0.157248         4.2789 
*Only the first 10 virtual orbitals were printed.

                    ********************************
                    * MULLIKEN POPULATION ANALYSIS *
                    ********************************

-----------------------
MULLIKEN ATOMIC CHARGES
-----------------------
   0 C :   -0.579901
   1 C :    0.187396
   2 C :   -0.279816
   3 C :   -0.209388
   4 C :   -0.246299
   5 C :    0.179687
   6 C :    0.040849
   7 C :   -0.619328
   8 C :   -0.552648
   9 H :    0.184966
  10 H :    0.175999
  11 H :    0.168334
  12 H :    0.173922
  13 H :    0.171471
  14 H :    0.172098
  15 H :    0.158454
  16 H :    0.187992
  17 H :    0.175117
  18 H :    0.175018
  19 H :    0.176888
  20 H :    0.159189
Sum of atomic charges:    0.0000000

--------------------------------
MULLIKEN REDUCED ORBITAL CHARGES
--------------------------------
  0 C s       :     3.408935  s :     3.408935
      pz      :     1.098669  p :     3.143791
      px      :     0.969233
      py      :     1.075889
      dz2     :     0.004883  d :     0.027174
      dxz     :     0.002441
      dyz     :     0.007351
      dx2y2   :     0.004418
      dxy     :     0.008082

  1 C s       :     3.090254  s :     3.090254
      pz      :     0.973300  p :     2.674825
      px      :     0.812410
      py      :     0.889116
      dz2     :     0.003457  d :     0.047524
      dxz     :     0.006122
      dyz     :     0.007068
      dx2y2   :     0.015532
      dxy     :     0.015345

  2 C s       :     3.236718  s :     3.236718
      pz      :     1.025560  p :     3.005272
      px      :     1.035958
      py      :     0.943754
      dz2     :     0.003180  d :     0.037826
      dxz     :     0.003347
      dyz     :     0.005852
      dx2y2   :     0.012444
      dxy     :     0.013003

  3 C s       :     3.240137  s :     3.240137
      pz      :     1.000029  p :     2.930781
      px      :     0.909304
      py      :     1.021447
      dz2     :     0.003170  d :     0.038470
      dxz     :     0.007554
      dyz     :     0.002352
      dx2y2   :     0.013583
      dxy     :     0.011812

  4 C s       :     3.250856  s :     3.250856
      pz      :     1.019089  p :     2.957868
      px      :     1.002631
      py      :     0.936148
      dz2     :     0.003173  d :     0.037575
      dxz     :     0.003575
      dyz     :     0.005517
      dx2y2   :     0.012215
      dxy     :     0.013095

  5 C s       :     3.077320  s :     3.077320
      pz      :     0.984483  p :     2.695448
      px      :     0.819727
      py      :     0.891238
      dz2     :     0.003449  d :     0.047545
      dxz     :     0.007055
      dyz     :     0.006348
      dx2y2   :     0.016064
      dxy     :     0.014628

  6 C s       :     3.213004  s :     3.213004
      pz      :     0.990735  p :     2.699388
      px      :     0.907165
      py      :     0.801488
      dz2     :     0.003432  d :     0.046759
      dxz     :     0.006091
      dyz     :     0.006466
      dx2y2   :     0.015046
      dxy     :     0.015724

  7 C s       :     3.444457  s :     3.444457
      pz      :     1.096133  p :     3.147741
      px      :     1.117313
      py      :     0.934296
      dz2     :     0.004890  d :     0.027130
      dxz     :     0.004322
      dyz     :     0.005516
      dx2y2   :     0.006878
      dxy     :     0.005524

  8 C s       :     3.381526  s :     3.381526
      pz      :     1.099113  p :     3.144157
      px      :     0.955227
      py      :     1.089818
      dz2     :     0.004836  d :     0.026965
      dxz     :     0.007564
      dyz     :     0.002216
      dx2y2   :     0.007573
      dxy     :     0.004776

  9 H s       :     0.796582  s :     0.796582
      pz      :     0.008722  p :     0.018452
      px      :     0.003615
      py      :     0.006115

 10 H s       :     0.805531  s :     0.805531
      pz      :     0.008280  p :     0.018471
      px      :     0.003559
      py      :     0.006632

 11 H s       :     0.813447  s :     0.813447
      pz      :     0.003662  p :     0.018218
      px      :     0.008158
      py      :     0.006398

 12 H s       :     0.806463  s :     0.806463
      pz      :     0.004207  p :     0.019615
      px      :     0.010291
      py      :     0.005117

 13 H s       :     0.808966  s :     0.808966
      pz      :     0.004110  p :     0.019562
      px      :     0.003102
      py      :     0.012351

 14 H s       :     0.808393  s :     0.808393
      pz      :     0.004167  p :     0.019509
      px      :     0.009780
      py      :     0.005561

 15 H s       :     0.822501  s :     0.822501
      pz      :     0.003822  p :     0.019045
      px      :     0.010297
      py      :     0.004927

 16 H s       :     0.793558  s :     0.793558
      pz      :     0.008918  p :     0.018451
      px      :     0.005091
      py      :     0.004442

 17 H s       :     0.806336  s :     0.806336
      pz      :     0.007998  p :     0.018547
      px      :     0.006119
      py      :     0.004430

 18 H s       :     0.806554  s :     0.806554
      pz      :     0.008251  p :     0.018427
      px      :     0.005701
      py      :     0.004475

 19 H s       :     0.804671  s :     0.804671
      pz      :     0.008715  p :     0.018441
      px      :     0.005440
      py      :     0.004287

 20 H s       :     0.821794  s :     0.821794
      pz      :     0.003792  p :     0.019017
      px      :     0.003707
      py      :     0.011517


------------------------
MULLIKEN OVERLAP CHARGES
------------------------
B(  0-C ,  1-C ) :   0.3347 B(  0-C ,  2-C ) :  -0.1470 B(  0-C ,  6-C ) :  -0.0995 
B(  0-C ,  7-C ) :  -0.1211 B(  0-C ,  9-H ) :   0.8738 B(  0-C , 10-H ) :   0.8378 
B(  0-C , 11-H ) :   0.8309 B(  1-C ,  2-C ) :   0.8995 B(  1-C ,  3-C ) :  -0.1401 
B(  1-C ,  4-C ) :  -0.2429 B(  1-C ,  5-C ) :  -0.1923 B(  1-C ,  6-C ) :   0.7933 
B(  1-C ,  7-C ) :  -0.3082 B(  1-C ,  8-C ) :   0.0674 B(  1-C ,  9-H ) :  -0.1142 
B(  1-C , 10-H ) :  -0.0962 B(  1-C , 11-H ) :  -0.1037 B(  1-C , 12-H ) :  -0.0821 
B(  2-C ,  3-C ) :   0.8276 B(  2-C ,  4-C ) :  -0.1124 B(  2-C ,  5-C ) :  -0.2484 
B(  2-C ,  6-C ) :  -0.0834 B(  2-C , 12-H ) :   0.8147 B(  2-C , 13-H ) :  -0.0796 
B(  3-C ,  4-C ) :   0.8660 B(  3-C ,  5-C ) :  -0.0703 B(  3-C ,  6-C ) :  -0.1040 
B(  3-C , 12-H ) :  -0.0531 B(  3-C , 13-H ) :   0.8438 B(  3-C , 14-H ) :  -0.0711 
B(  4-C ,  5-C ) :   0.7111 B(  4-C ,  6-C ) :  -0.0650 B(  4-C ,  7-C ) :   0.0607 
B(  4-C ,  8-C ) :  -0.2214 B(  4-C , 13-H ) :  -0.0873 B(  4-C , 14-H ) :   0.8296 
B(  5-C ,  6-C ) :   1.0028 B(  5-C ,  7-C ) :  -0.1115 B(  5-C ,  8-C ) :   0.3116 
B(  5-C , 14-H ) :  -0.0940 B(  5-C , 18-H ) :  -0.0876 B(  5-C , 19-H ) :  -0.0807 
B(  5-C , 20-H ) :  -0.1396 B(  6-C ,  7-C ) :   0.4436 B(  6-C , 15-H ) :  -0.0748 
B(  6-C , 16-H ) :  -0.1139 B(  6-C , 17-H ) :  -0.0996 B(  7-C ,  8-C ) :  -0.0955 
B(  7-C , 15-H ) :   0.8018 B(  7-C , 16-H ) :   0.8795 B(  7-C , 17-H ) :   0.8417 
B(  8-C , 18-H ) :   0.8430 B(  8-C , 19-H ) :   0.8384 B(  8-C , 20-H ) :   0.8504 
B(  9-H , 10-H ) :  -0.0538 B( 16-H , 17-H ) :  -0.0544 


                     *******************************
                     * LOEWDIN POPULATION ANALYSIS *
                     *******************************

----------------------
LOEWDIN ATOMIC CHARGES
----------------------
   0 C :   -0.394442
   1 C :   -0.098840
   2 C :   -0.189930
   3 C :   -0.183790
   4 C :   -0.184009
   5 C :   -0.100914
   6 C :   -0.097573
   7 C :   -0.391375
   8 C :   -0.395798
   9 H :    0.169856
  10 H :    0.169433
  11 H :    0.164200
  12 H :    0.175946
  13 H :    0.175048
  14 H :    0.176887
  15 H :    0.161460
  16 H :    0.171609
  17 H :    0.170444
  18 H :    0.170530
  19 H :    0.171069
  20 H :    0.160188

-------------------------------
LOEWDIN REDUCED ORBITAL CHARGES
-------------------------------
  0 C s       :     2.952360  s :     2.952360
      pz      :     1.157515  p :     3.379063
      px      :     1.083517
      py      :     1.138031
      dz2     :     0.011787  d :     0.063019
      dxz     :     0.004313
      dyz     :     0.018387
      dx2y2   :     0.009312
      dxy     :     0.019220

  1 C s       :     2.865250  s :     2.865250
      pz      :     0.964157  p :     3.135197
      px      :     1.071197
      py      :     1.099843
      dz2     :     0.006380  d :     0.098393
      dxz     :     0.010466
      dyz     :     0.012281
      dx2y2   :     0.034625
      dxy     :     0.034642

  2 C s       :     2.898924  s :     2.898924
      pz      :     1.013557  p :     3.208033
      px      :     1.107688
      py      :     1.086788
      dz2     :     0.005540  d :     0.082973
      dxz     :     0.005448
      dyz     :     0.010793
      dx2y2   :     0.029755
      dxy     :     0.031436

  3 C s       :     2.903963  s :     2.903963
      pz      :     0.987339  p :     3.195952
      px      :     1.103045
      py      :     1.105569
      dz2     :     0.005432  d :     0.083874
      dxz     :     0.014140
      dyz     :     0.003412
      dx2y2   :     0.032779
      dxy     :     0.028111

  4 C s       :     2.898464  s :     2.898464
      pz      :     1.010375  p :     3.203126
      px      :     1.106005
      py      :     1.086746
      dz2     :     0.005511  d :     0.082419
      dxz     :     0.005905
      dyz     :     0.010146
      dx2y2   :     0.029159
      dxy     :     0.031698

  5 C s       :     2.866692  s :     2.866692
      pz      :     0.968189  p :     3.135824
      px      :     1.071512
      py      :     1.096123
      dz2     :     0.006327  d :     0.098399
      dxz     :     0.011668
      dyz     :     0.011435
      dx2y2   :     0.036214
      dxy     :     0.032755

  6 C s       :     2.861755  s :     2.861755
      pz      :     0.988784  p :     3.138769
      px      :     1.084444
      py      :     1.065541
      dz2     :     0.006399  d :     0.097049
      dxz     :     0.011090
      dyz     :     0.010443
      dx2y2   :     0.034335
      dxy     :     0.034782

  7 C s       :     2.948549  s :     2.948549
      pz      :     1.157303  p :     3.379924
      px      :     1.162007
      py      :     1.060614
      dz2     :     0.011923  d :     0.062902
      dxz     :     0.010888
      dyz     :     0.011789
      dx2y2   :     0.016041
      dxy     :     0.012262

  8 C s       :     2.953006  s :     2.953006
      pz      :     1.160108  p :     3.380249
      px      :     1.071664
      py      :     1.148476
      dz2     :     0.011938  d :     0.062543
      dxz     :     0.017464
      dyz     :     0.004821
      dx2y2   :     0.017933
      dxy     :     0.010387

  9 H s       :     0.785865  s :     0.785865
      pz      :     0.021882  p :     0.044279
      px      :     0.007961
      py      :     0.014436

 10 H s       :     0.786305  s :     0.786305
      pz      :     0.020666  p :     0.044262
      px      :     0.007808
      py      :     0.015789

 11 H s       :     0.792063  s :     0.792063
      pz      :     0.008145  p :     0.043737
      px      :     0.019746
      py      :     0.015847

 12 H s       :     0.778492  s :     0.778492
      pz      :     0.009503  p :     0.045562
      px      :     0.024268
      py      :     0.011791

 13 H s       :     0.779552  s :     0.779552
      pz      :     0.009086  p :     0.045400
      px      :     0.007097
      py      :     0.029218

 14 H s       :     0.777748  s :     0.777748
      pz      :     0.009376  p :     0.045364
      px      :     0.023096
      py      :     0.012893

 15 H s       :     0.793001  s :     0.793001
      pz      :     0.008506  p :     0.045539
      px      :     0.025986
      py      :     0.011047

 16 H s       :     0.784101  s :     0.784101
      pz      :     0.022449  p :     0.044289
      px      :     0.011820
      py      :     0.010020

 17 H s       :     0.785209  s :     0.785209
      pz      :     0.019912  p :     0.044347
      px      :     0.014550
      py      :     0.009885

 18 H s       :     0.785368  s :     0.785368
      pz      :     0.020515  p :     0.044102
      px      :     0.013154
      py      :     0.010433

 19 H s       :     0.784794  s :     0.784794
      pz      :     0.021773  p :     0.044137
      px      :     0.012478
      py      :     0.009887

 20 H s       :     0.794248  s :     0.794248
      pz      :     0.008493  p :     0.045565
      px      :     0.008075
      py      :     0.028997


---------------------------------
LOEWDIN BOND ORDERS (THRESH 0.050000)
---------------------------------
B(  0-C ,  1-C ) :   1.1080 B(  0-C ,  2-C ) :   0.0930 B(  0-C ,  6-C ) :   0.0782 
B(  0-C ,  9-H ) :   0.9054 B(  0-C , 10-H ) :   0.9055 B(  0-C , 11-H ) :   0.9149 
B(  1-C ,  2-C ) :   1.4655 B(  1-C ,  3-C ) :   0.0912 B(  1-C ,  4-C ) :   0.1253 
B(  1-C ,  5-C ) :   0.0912 B(  1-C ,  6-C ) :   1.3712 B(  1-C ,  7-C ) :   0.0805 
B(  1-C , 12-H ) :   0.0533 B(  2-C ,  3-C ) :   1.4896 B(  2-C ,  4-C ) :   0.0928 
B(  2-C ,  5-C ) :   0.1209 B(  2-C ,  6-C ) :   0.0859 B(  2-C , 12-H ) :   0.8639 
B(  2-C , 13-H ) :   0.0548 B(  3-C ,  4-C ) :   1.5317 B(  3-C ,  5-C ) :   0.0891 
B(  3-C ,  6-C ) :   0.1200 B(  3-C , 12-H ) :   0.0536 B(  3-C , 13-H ) :   0.8693 
B(  3-C , 14-H ) :   0.0542 B(  4-C ,  5-C ) :   1.4270 B(  4-C ,  6-C ) :   0.0881 
B(  4-C ,  8-C ) :   0.0933 B(  4-C , 13-H ) :   0.0558 B(  4-C , 14-H ) :   0.8624 
B(  5-C ,  6-C ) :   1.4132 B(  5-C ,  7-C ) :   0.0782 B(  5-C ,  8-C ) :   1.1021 
B(  5-C , 14-H ) :   0.0519 B(  6-C ,  7-C ) :   1.1002 B(  6-C ,  8-C ) :   0.0776 
B(  7-C , 15-H ) :   0.9114 B(  7-C , 16-H ) :   0.9039 B(  7-C , 17-H ) :   0.9035 
B(  8-C , 18-H ) :   0.9096 B(  8-C , 19-H ) :   0.9088 B(  8-C , 20-H ) :   0.9145 


------------------------------------------
LOEWDIN REDUCED ORBITAL POPULATIONS PER MO
-------------------------------------------
THRESHOLD FOR PRINTING IS 0.1%%
                      0         1         2         3         4         5   
                 -10.03709 -10.03589 -10.03514 -10.02325 -10.02015 -10.01994
                   2.00000   2.00000   2.00000   2.00000   2.00000   2.00000
                  --------  --------  --------  --------  --------  --------
 1 C  s               0.0       7.2      92.3       0.0       0.0       0.0
 1 C  py              0.0       0.0       0.0       0.0       0.1       0.0
 2 C  s               0.0       0.0       0.0       0.6      98.0       0.9
 2 C  px              0.0       0.0       0.0       0.1       0.0       0.0
 2 C  py              0.0       0.0       0.1       0.0       0.0       0.0
 3 C  s               0.0       0.0       0.0      98.5       0.5       0.7
 3 C  px              0.0       0.0       0.0       0.0       0.1       0.1
 4 C  s               0.0       0.0       0.0       0.6       1.0      98.0
 4 C  px              0.0       0.0       0.0       0.1       0.0       0.0
 4 C  py              0.1       0.0       0.0       0.0       0.0       0.0
 5 C  s              96.6       2.9       0.1       0.0       0.0       0.0
 5 C  py              0.0       0.0       0.0       0.0       0.0       0.1
 6 C  s               2.9      89.5       7.2       0.0       0.0       0.0

                      6         7         8         9        10        11   
                 -10.01570 -10.01565 -10.01504  -0.82892  -0.74679  -0.73925
                   2.00000   2.00000   2.00000   2.00000   2.00000   2.00000
                  --------  --------  --------  --------  --------  --------
 0 C  s              99.7       0.0       0.0       2.6      11.0       0.3
 0 C  px              0.0       0.0       0.0       1.2       1.2       0.2
 0 C  py              0.0       0.0       0.0       0.3       0.4       0.2
 1 C  s               0.0       0.0       0.0      13.5      13.5       0.0
 1 C  px              0.1       0.0       0.0       1.3       1.8       0.7
 1 C  py              0.0       0.0       0.0       0.1       0.1       7.3
 1 C  dz2             0.0       0.0       0.0       0.2       0.1       0.0
 1 C  dx2y2           0.0       0.0       0.0       0.0       0.0       0.1
 2 C  s               0.0       0.0       0.0       9.8       3.7      10.0
 2 C  px              0.0       0.0       0.0       1.5       0.9       1.7
 2 C  py              0.0       0.0       0.0       1.0       2.9       1.4
 2 C  dz2             0.0       0.0       0.0       0.1       0.0       0.1
 3 C  s               0.0       0.0       0.0       8.7       0.8      16.3
 3 C  px              0.0       0.0       0.0       0.0       3.6       0.2
 3 C  py              0.0       0.0       0.0       2.4       0.0       0.6
 3 C  dz2             0.0       0.0       0.0       0.1       0.0       0.1
 4 C  s               0.0       0.0       0.0       9.8       9.6       3.6
 4 C  px              0.0       0.0       0.0       1.3       0.3       2.9
 4 C  py              0.0       0.0       0.0       1.1       1.3       3.2
 4 C  dz2             0.0       0.0       0.0       0.1       0.1       0.0
 5 C  s               0.0       0.0       0.0      13.1      11.4       3.4
 5 C  px              0.0       0.1       0.0       1.4       2.5       0.0
 5 C  py              0.0       0.0       0.0       0.1       1.0       5.5
 5 C  dz2             0.0       0.0       0.0       0.2       0.1       0.0
 6 C  s               0.0       0.0       0.0      14.6       0.5      10.4
 6 C  px              0.0       0.0       0.0       0.0       9.1       0.4
 6 C  py              0.0       0.0       0.1       1.4       0.3       2.7
 6 C  dz2             0.0       0.0       0.0       0.2       0.0       0.1
 6 C  dxy             0.0       0.0       0.0       0.0       0.2       0.0
 7 C  s               0.0       0.0      99.7       2.9       0.8      10.9
 7 C  px              0.0       0.0       0.0       0.0       0.5       0.0
 7 C  py              0.0       0.0       0.0       1.7       0.1       1.2
 8 C  s               0.0      99.7       0.0       2.4       8.5       3.6
 8 C  px              0.0       0.0       0.0       1.2       0.9       0.5
 8 C  py              0.0       0.0       0.0       0.2       0.5       0.0
 9 H  s               0.0       0.0       0.0       0.3       1.5       0.1
10 H  s               0.0       0.0       0.0       0.3       1.5       0.1
11 H  s               0.0       0.0       0.0       0.3       1.6       0.0
12 H  s               0.0       0.0       0.0       0.9       0.6       1.3
12 H  px              0.0       0.0       0.0       0.0       0.0       0.1
13 H  s               0.0       0.0       0.0       0.7       0.1       2.2
13 H  py              0.0       0.0       0.0       0.0       0.0       0.2
14 H  s               0.0       0.0       0.0       0.9       1.5       0.4
15 H  s               0.0       0.0       0.0       0.3       0.0       1.8
15 H  px              0.0       0.0       0.0       0.0       0.0       0.1
16 H  s               0.0       0.0       0.0       0.3       0.1       1.6
16 H  pz              0.0       0.0       0.0       0.0       0.0       0.1
17 H  s               0.0       0.0       0.0       0.3       0.2       1.6
18 H  s               0.0       0.0       0.0       0.2       1.3       0.5
19 H  s               0.0       0.0       0.0       0.2       1.3       0.5
20 H  s               0.0       0.0       0.0       0.3       1.1       0.7

                     12        13        14        15        16        17   
                  -0.67650  -0.63900  -0.63170  -0.53856  -0.53539  -0.45670
                   2.00000   2.00000   2.00000   2.00000   2.00000   2.00000
                  --------  --------  --------  --------  --------  --------
 0 C  s              13.2      11.4       3.6       1.2       3.1       0.4
 0 C  px              0.1       0.3       0.3       0.3       5.5       2.0
 0 C  py              0.2       0.7       0.2       1.7       0.2       1.3
 1 C  s               1.9       0.6       2.0       0.8       6.8       0.2
 1 C  px              6.5       1.7       5.1       2.2       2.4       1.2
 1 C  py              0.0       7.7       0.0       7.4       2.0       2.1
 1 C  dx2y2           0.0       0.2       0.0       0.2       0.0       0.0
 1 C  dxy             0.1       0.1       0.1       0.0       0.1       0.2
 2 C  s               0.0      11.3       0.8       2.7       2.5       0.7
 2 C  px              1.5       0.2       0.1       5.2       0.9      12.1
 2 C  py              1.6       0.1       3.7       5.0       4.8       3.6
 3 C  s               2.5       0.1       6.2       7.8       0.0       0.4
 3 C  px              0.0      11.9       0.1       0.1       6.6       0.1
 3 C  py              0.0       0.0       0.8       3.7       0.0      15.8
 3 C  dxy             0.0       0.3       0.0       0.0       0.0       0.0
 4 C  s               0.1      12.3       0.2       3.7       1.8       0.5
 4 C  px              1.6       0.1       0.1       6.2       0.3      12.4
 4 C  py              1.3       0.2       3.6       3.1       5.7       2.7
 5 C  s               1.4       0.2       2.4       0.2       7.3       0.3
 5 C  px              6.5       1.0       7.0       2.2       1.4       2.0
 5 C  py              0.0       6.8       0.1       9.2       1.4       1.0
 5 C  dx2y2           0.0       0.2       0.0       0.2       0.0       0.0
 5 C  dxy             0.1       0.0       0.1       0.0       0.1       0.2
 6 C  s               3.3       0.1       4.0       4.7       0.0       1.8
 6 C  px              0.0       0.1       0.0       0.1      18.8       0.0
 6 C  py              3.8       0.0      11.1       0.2       0.0       3.0
 6 C  dx2y2           0.2       0.0       0.1       0.1       0.0       0.0
 6 C  dxy             0.0       0.0       0.0       0.0       0.4       0.0
 7 C  s              14.2       0.0      13.4       4.0       0.1       0.5
 7 C  px              0.0       0.4       0.0       0.0       1.2       0.0
 7 C  py              0.1       0.0       1.7       4.6       0.1       6.3
 7 C  dx2y2           0.0       0.0       0.0       0.1       0.0       0.1
 8 C  s              12.8       8.4       6.7       0.9       3.1       0.4
 8 C  px              0.1       0.3       0.6       0.2       5.6       2.2
 8 C  py              0.1       0.5       0.2       1.6       0.1       1.7
 9 H  s               2.5       3.1       1.1       0.8       1.3       0.7
 9 H  pz              0.1       0.2       0.1       0.1       0.1       0.0
10 H  s               2.4       3.1       1.1       0.9       1.3       0.6
10 H  pz              0.1       0.2       0.1       0.1       0.1       0.0
11 H  s               3.0       2.5       1.0       0.1       2.8       0.3
11 H  px              0.2       0.1       0.0       0.0       0.1       0.0
11 H  py              0.1       0.1       0.0       0.0       0.1       0.0
12 H  s               0.0       2.7       0.5       1.7       2.8       6.5
12 H  px              0.0       0.2       0.0       0.0       0.2       0.2
12 H  py              0.0       0.1       0.0       0.1       0.0       0.1
13 H  s               0.5       0.0       2.1       5.4       0.0       5.0
13 H  py              0.0       0.0       0.2       0.4       0.0       0.2
14 H  s               0.0       3.0       0.2       2.5       2.1       5.8
14 H  px              0.0       0.2       0.0       0.1       0.1       0.2
14 H  py              0.0       0.1       0.0       0.1       0.0       0.1
15 H  s               2.7       0.0       4.1       1.8       0.4       1.3
15 H  px              0.2       0.0       0.3       0.1       0.0       0.1
16 H  s               2.8       0.0       3.7       2.0       0.0       0.7
16 H  pz              0.2       0.0       0.2       0.1       0.0       0.0
17 H  s               2.7       0.0       3.8       1.9       0.0       0.7
17 H  pz              0.1       0.0       0.2       0.1       0.0       0.0
18 H  s               2.8       2.0       1.8       0.2       2.2       0.3
18 H  pz              0.2       0.1       0.1       0.0       0.1       0.0
19 H  s               2.7       2.0       1.8       0.2       2.1       0.3
19 H  pz              0.2       0.1       0.1       0.0       0.1       0.0
20 H  s               2.2       2.5       2.2       1.0       1.1       1.2
20 H  py              0.2       0.2       0.1       0.1       0.1       0.0

                     18        19        20        21        22        23   
                  -0.44630  -0.40501  -0.39693  -0.37830  -0.36698  -0.36348
                   2.00000   2.00000   2.00000   2.00000   2.00000   2.00000
                  --------  --------  --------  --------  --------  --------
 0 C  s               0.0       0.0       0.1       0.0       0.1       0.1
 0 C  pz              0.0      15.5       0.0      13.7       0.0       0.0
 0 C  px              0.6       0.0       7.3       0.0       7.8       7.6
 0 C  py              6.8       0.0       2.4       0.0       2.9       4.4
 0 C  dyz             0.0       0.1       0.0       0.1       0.0       0.0
 0 C  dxy             0.0       0.0       0.1       0.0       0.1       0.0
 1 C  s               0.4       0.0       3.3       0.0       0.1       0.1
 1 C  pz              0.0      10.2       0.0       2.1       0.0       0.0
 1 C  px              3.3       0.0       3.4       0.0       2.1       9.1
 1 C  py              5.6       0.0       0.1       0.0       0.5       5.4
 1 C  dx2y2           0.0       0.0       0.0       0.0       0.3       0.0
 1 C  dxy             0.0       0.0       0.2       0.0       0.2       0.0
 2 C  s               0.2       0.0       1.9       0.0       0.5       0.3
 2 C  pz              0.0       2.5       0.0       0.1       0.0       0.0
 2 C  px              2.4       0.0       2.1       0.0       4.7       8.1
 2 C  py              9.1       0.0       2.5       0.0       0.1       3.2
 2 C  dx2y2           0.1       0.0       0.3       0.0       0.1       0.3
 2 C  dxy             0.0       0.0       0.2       0.0       0.1       0.0
 3 C  s               0.0       0.0       1.8       0.0       0.2       0.1
 3 C  pz              0.0       1.3       0.0       0.2       0.0       0.0
 3 C  px             12.8       0.0       0.0       0.0       0.4       3.6
 3 C  py              0.2       0.0       9.3       0.0      11.5       1.6
 3 C  dx2y2           0.0       0.0       0.5       0.0       0.2       0.0
 3 C  dxy             0.1       0.0       0.0       0.0       0.1       0.5
 4 C  s               0.4       0.0       2.0       0.0       0.2       0.6
 4 C  pz              0.0       2.2       0.0       2.3       0.0       0.0
 4 C  px              1.2       0.0       1.6       0.0       0.0      16.2
 4 C  py             10.4       0.0       2.1       0.0       0.6       3.9
 4 C  dx2y2           0.1       0.0       0.2       0.0       0.2       0.1
 4 C  dxy             0.0       0.0       0.3       0.0       0.0       0.1
 5 C  s               0.3       0.0       3.1       0.0       0.0       0.2
 5 C  pz              0.0       6.9       0.0       8.4       0.0       0.0
 5 C  px              2.3       0.0       3.7       0.0       8.2       1.7
 5 C  py              7.4       0.0       0.2       0.0       1.7       2.5
 5 C  dxz             0.0       0.0       0.0       0.1       0.0       0.0
 5 C  dx2y2           0.0       0.0       0.0       0.0       0.1       0.2
 5 C  dxy             0.0       0.0       0.1       0.0       0.1       0.1
 6 C  s               0.0       0.0       3.0       0.0       0.5       0.0
 6 C  pz              0.0      12.3       0.0       0.0       0.0       0.0
 6 C  px              8.0       0.0       0.0       0.0       0.0       0.1
 6 C  py              0.0       0.0       2.1       0.0       8.8       1.7
 6 C  dx2y2           0.0       0.0       0.2       0.0       0.0       0.0
 6 C  dxy             0.0       0.0       0.0       0.0       0.0       0.4
 7 C  s               0.0       0.0       0.1       0.0       0.2       0.0
 7 C  pz              0.0      18.5       0.0       1.3       0.1       0.0
 7 C  px              9.1       0.0       0.0       0.0       1.3       2.3
 7 C  py              0.0       0.0       8.1       0.0       5.7       1.4
 7 C  dxz             0.0       0.1       0.0       0.0       0.0       0.0
 7 C  dx2y2           0.0       0.0       0.1       0.0       0.0       0.0
 8 C  s               0.0       0.0       0.1       0.0       0.1       0.1
 8 C  pz              0.0       7.3       0.0      38.3       0.0       0.0
 8 C  px              0.3       0.0       8.7       0.0      14.1       1.6
 8 C  py              7.2       0.0       1.5       0.0       2.1       1.6
 8 C  dz2             0.0       0.0       0.0       0.0       0.2       0.0
 8 C  dxz             0.0       0.0       0.0       0.2       0.0       0.0
 8 C  dyz             0.0       0.0       0.0       0.2       0.0       0.0
 9 H  s               0.7       4.4       0.7       4.2       0.1       1.4
10 H  s               0.8       4.0       0.7       3.9       0.5       1.1
10 H  py              0.0       0.1       0.0       0.1       0.0       0.0
11 H  s               1.3       0.0       1.0       0.0       5.2       0.3
11 H  py              0.0       0.0       0.1       0.0       0.0       0.1
12 H  s               0.1       0.0       5.3       0.0       1.2       4.9
12 H  px              0.0       0.0       0.1       0.0       0.0       0.1
13 H  s               0.0       0.0       8.7       0.0       6.0       0.7
13 H  py              0.0       0.0       0.2       0.0       0.1       0.0
14 H  s               0.6       0.0       4.8       0.0       0.2       8.9
14 H  px              0.1       0.0       0.1       0.0       0.0       0.1
15 H  s               2.6       0.0       0.8       0.0       0.0       1.5
15 H  pz              0.0       0.1       0.0       0.0       0.0       0.0
16 H  s               0.5       5.3       0.6       0.5       1.5       0.0
17 H  s               0.9       4.5       0.6       0.6       1.1       0.1
18 H  s               0.3       1.7       0.8      10.7       3.2       0.1
18 H  pz              0.0       0.0       0.0       0.0       0.1       0.0
18 H  px              0.0       0.0       0.0       0.2       0.0       0.0
19 H  s               0.3       1.9       0.7      11.5       2.6       0.1
19 H  pz              0.0       0.0       0.0       0.1       0.1       0.0
19 H  px              0.0       0.0       0.0       0.2       0.0       0.0
20 H  s               2.7       0.0       0.9       0.0       0.9       0.6
20 H  pz              0.0       0.0       0.0       0.2       0.0       0.0
20 H  px              0.0       0.0       0.1       0.0       0.1       0.0

                     24        25        26        27        28        29   
                  -0.36037  -0.35849  -0.34781  -0.32855  -0.31531  -0.29462
                   2.00000   2.00000   2.00000   2.00000   2.00000   2.00000
                  --------  --------  --------  --------  --------  --------
 0 C  s               0.0       0.0       0.2       0.1       0.0       0.4
 0 C  pz              3.3      17.9       0.0       0.0       5.2       0.0
 0 C  px              3.8       1.1       0.2       7.7       0.0       7.1
 0 C  py              7.8       1.5       8.5      10.0       0.0       4.1
 0 C  dz2             0.1       0.0       0.1       0.1       0.0       0.0
 0 C  dyz             0.0       0.1       0.0       0.0       0.2       0.0
 0 C  dx2y2           0.0       0.0       0.1       0.1       0.0       0.0
 0 C  dxy             0.1       0.0       0.0       0.3       0.0       0.1
 1 C  s               0.1       0.0       0.3       0.0       0.0       0.0
 1 C  pz              0.4       1.9       0.0       0.0       6.1       0.0
 1 C  px              0.6       0.0       0.0       1.5       0.0       9.6
 1 C  py              1.4       0.3       4.5       0.3       0.0       0.2
 1 C  dxz             0.0       0.1       0.0       0.0       0.1       0.0
 1 C  dyz             0.0       0.0       0.0       0.0       0.1       0.0
 1 C  dx2y2           0.0       0.0       0.2       0.1       0.0       0.1
 1 C  dxy             0.0       0.0       0.0       0.1       0.0       0.7
 2 C  s               0.1       0.0       0.3       0.1       0.0       0.1
 2 C  pz              0.2       0.9       0.0       0.0      17.6       0.0
 2 C  px              2.6       0.4       2.4       0.8       0.0       7.4
 2 C  py              1.8       0.4       2.9       0.5       0.0       0.7
 2 C  dxz             0.0       0.0       0.0       0.0       0.1       0.0
 2 C  dxy             0.1       0.0       0.1       0.0       0.0       0.6
 3 C  s               0.5       0.1       0.0       0.0       0.0       0.0
 3 C  pz              0.1       0.3       0.0       0.0      22.5       0.0
 3 C  px              0.2       0.0       5.3       1.1       0.0       8.5
 3 C  py              1.6       0.1       0.0       0.0       0.0       0.5
 3 C  dyz             0.0       0.0       0.0       0.0       0.1       0.0
 3 C  dxy             0.0       0.0       0.0       0.0       0.0       0.2
 4 C  s               0.3       0.1       0.1       0.1       0.0       0.1
 4 C  pz              0.1       0.2       0.0       0.0      15.4       0.0
 4 C  px              1.3       0.2       1.1       0.9       0.0       6.7
 4 C  py              0.2       0.0       4.7       0.5       0.0       0.5
 4 C  dxz             0.0       0.0       0.0       0.0       0.1       0.0
 4 C  dxy             0.1       0.0       0.0       0.0       0.0       0.7
 5 C  s               0.0       0.0       0.4       0.0       0.0       0.0
 5 C  pz              0.0       0.1       0.0       0.0       4.9       0.0
 5 C  px              2.5       0.3       0.0       1.4       0.0       8.8
 5 C  py              0.6       0.1       6.7       0.3       0.0       1.4
 5 C  dxz             0.0       0.0       0.0       0.0       0.1       0.0
 5 C  dx2y2           0.0       0.0       0.1       0.1       0.0       0.0
 5 C  dxy             0.0       0.0       0.0       0.2       0.0       0.5
 6 C  s               0.3       0.1       0.1       0.0       0.0       0.0
 6 C  pz              0.3       1.8       0.0       0.0       4.1       0.0
 6 C  px              0.1       0.0       1.9       4.0       0.0      10.6
 6 C  py              7.9       1.1       0.4       0.0       0.0       0.3
 6 C  dyz             0.0       0.2       0.0       0.0       0.1       0.0
 6 C  dx2y2           0.1       0.0       0.0       0.0       0.0       0.0
 6 C  dxy             0.0       0.0       0.2       0.0       0.0       0.5
 7 C  s               0.3       0.1       0.1       0.0       0.0       0.0
 7 C  pz              5.0      28.3       0.0       0.0       2.2       0.0
 7 C  px              1.0       0.2      28.3      10.0       0.0       3.7
 7 C  py              8.3       1.2       0.3       0.0       0.0       0.4
 7 C  dz2             0.0       0.0       0.2       0.1       0.0       0.1
 7 C  dxz             0.0       0.2       0.0       0.0       0.0       0.0
 7 C  dx2y2           0.2       0.0       0.0       0.0       0.0       0.0
 7 C  dxy             0.0       0.0       0.3       0.0       0.0       0.2
 8 C  s               0.1       0.0       0.2       0.1       0.0       0.2
 8 C  pz              0.5       2.2       0.0       0.0       6.9       0.0
 8 C  px              0.0       0.0       2.2       6.5       0.0       5.8
 8 C  py             15.4       3.2       0.0      16.0       0.0       0.8
 8 C  dz2             0.0       0.0       0.0       0.2       0.0       0.0
 8 C  dxz             0.0       0.0       0.0       0.0       0.2       0.0
 8 C  dx2y2           0.2       0.0       0.1       0.2       0.0       0.0
 9 H  s               0.0       7.5       1.0       1.6       2.6       0.6
 9 H  py              0.1       0.1       0.0       0.0       0.0       0.0
10 H  s               4.3       2.8       1.6       2.1       2.4       0.6
10 H  py              0.0       0.2       0.0       0.0       0.0       0.0
11 H  s               4.8       1.5       2.2      10.1       0.0       0.3
11 H  pz              0.0       0.1       0.0       0.0       0.0       0.0
12 H  s               2.5       0.5       0.6       0.2       0.0       4.1
12 H  pz              0.0       0.0       0.0       0.0       0.1       0.0
13 H  s               0.3       0.0       0.0       0.0       0.0       0.4
13 H  pz              0.0       0.0       0.0       0.0       0.2       0.0
14 H  s               0.8       0.1       0.0       0.2       0.0       6.3
15 H  s               3.3       0.2      12.0       3.4       0.0       2.1
15 H  pz              0.0       0.2       0.0       0.0       0.0       0.0
15 H  px              0.0       0.0       0.1       0.1       0.0       0.0
15 H  py              0.0       0.0       0.1       0.0       0.0       0.0
16 H  s               1.2       9.7       2.9       0.8       1.1       0.7
16 H  pz              0.0       0.1       0.1       0.0       0.0       0.0
16 H  px              0.0       0.1       0.1       0.0       0.0       0.0
16 H  py              0.1       0.0       0.0       0.0       0.0       0.0
17 H  s               1.7       7.4       5.2       1.4       1.0       1.1
[...]
 7 C  dxy             0.0       3.2       0.3       1.7       4.7       0.1
 8 C  s               0.0       0.3       0.2       0.2       0.0       0.1
 8 C  pz              0.7       0.1       0.0       0.0       0.0       0.0
 8 C  px              0.1       1.1       0.3       0.3       0.0       0.3
 8 C  py              0.0       0.4      11.5       0.0       0.6       0.2
 8 C  dz2             0.1       1.9       6.4       0.4       0.2       0.0
 8 C  dxz             1.1       0.1       0.0       0.0       0.0       0.0
 8 C  dyz             0.5       0.0       0.0       0.0       0.0       0.0
 8 C  dx2y2           0.0       0.1      14.7       0.4       0.5       0.9
 8 C  dxy             0.1       1.1       0.1       0.6       0.1       0.3
 9 H  s               3.7       0.3       0.2       0.0       0.9       0.0
 9 H  pz              5.8       0.5       0.5       0.0       2.0       0.0
 9 H  px              0.2       0.0       0.1       0.0       0.4       0.0
 9 H  py              3.1       0.0       0.0       0.2       0.1       0.0
10 H  s               2.5       1.3       0.2       0.0       0.9       0.0
10 H  pz              3.3       2.1       0.4       0.0       1.8       0.0
10 H  px              0.1       0.0       0.0       0.0       0.2       0.0
10 H  py              3.1       0.6       0.0       0.2       0.2       0.0
11 H  s               0.2       4.7       1.1       0.1       3.5       0.3
11 H  pz              0.2       0.0       0.0       0.0       0.0       0.0
11 H  px              0.3       8.0       1.5       0.0       4.5       0.3
11 H  py              0.2       4.4       1.0       0.3       3.0       0.2
12 H  s               0.0       1.0       0.4       0.0       0.2       3.1
12 H  px              0.1       2.3       0.8       0.0       0.4       4.8
12 H  py              0.0       0.8       0.4       0.0       0.2       1.7
13 H  s               0.0       0.0       0.2       0.0       0.7       3.7
13 H  py              0.0       0.0       0.7       0.1       2.3       7.3
14 H  s               0.0       1.0       0.0       0.0       0.3       3.0
14 H  px              0.1       2.6       0.1       0.0       0.6       4.1
14 H  py              0.0       0.6       0.0       0.0       0.3       1.9
15 H  s               0.1       4.0       0.1       0.7       5.7       0.2
15 H  pz              0.2       0.2       0.0       0.0       0.1       0.0
15 H  px              0.4       9.3       0.6       1.3      10.2       0.3
15 H  py              0.1       2.0       0.0       0.1       2.3       0.1
16 H  s               4.4       0.1       0.1       0.1       1.1       0.0
16 H  pz              6.5       0.0       0.2       0.4       2.2       0.0
16 H  px              2.1       0.1       0.0       0.0       0.0       0.0
16 H  py              1.7       0.0       0.0       0.0       0.6       0.0
17 H  s               4.1       1.1       0.1       0.1       1.0       0.0
17 H  pz              5.3       1.4       0.2       0.3       1.9       0.0
17 H  px              3.8       0.3       0.0       0.0       0.0       0.0
17 H  py              1.5       0.3       0.0       0.1       0.4       0.0
18 H  s               0.7       0.2       1.4       0.0       0.1       0.0
18 H  pz              1.1       0.5       2.5       0.2       0.1       0.0
18 H  px              0.5       0.0       0.4       0.1       0.1       0.0
18 H  py              0.2       0.0       0.0       0.0       0.0       0.0
19 H  s               0.2       0.6       1.4       0.1       0.1       0.0
19 H  pz              0.2       1.3       2.6       0.2       0.1       0.0
19 H  px              0.2       0.2       0.4       0.1       0.1       0.0
19 H  py              0.1       0.0       0.0       0.0       0.0       0.0
20 H  s               0.0       0.4       9.9       0.2       0.4       0.2
20 H  px              0.0       0.0       0.0       0.0       0.1       0.0
20 H  py              0.1       1.4      25.2       0.3       0.6       0.3

                    222       223       224       225       226       227   
                  21.28195  21.85957  21.88452  22.00184  22.08385  22.11218
                   0.00000   0.00000   0.00000   0.00000   0.00000   0.00000
                  --------  --------  --------  --------  --------  --------
 0 C  s               1.3       9.2      18.2      14.0      37.4      15.1
 1 C  s              19.0       0.0      26.3       3.1       8.3       2.9
 2 C  s              12.5      13.5       6.4       3.1       8.7       1.5
 3 C  s              10.3      23.4       0.4      10.4       0.6       9.6
 4 C  s              11.7       7.1      10.4       3.5       9.3       0.3
 5 C  s              19.4       3.3      26.1       3.3       4.7       3.3
 6 C  s              22.5      11.0       0.1      22.7       0.0       4.1
 6 C  px              0.0       0.0       0.2       0.0       0.0       0.0
 6 C  py              0.0       0.0       0.0       0.0       0.0       0.2
 7 C  s               2.0      17.4       1.3      14.6       0.0      51.8
 8 C  s               1.2      14.7      10.0      24.9      30.6      10.8

                    228       229       230   
                  22.19140  22.20878  22.35734
                   0.00000   0.00000   0.00000
                  --------  --------  --------
 0 C  s               0.9       3.5       0.0
 1 C  s              16.7       7.3      16.2
 2 C  s              32.4       3.3      18.2
 3 C  s               0.0      27.3      17.8
 4 C  s              31.3       7.6      18.2
 5 C  s              16.2       8.4      15.0
 6 C  s               0.1      25.2      14.3
 7 C  s               0.3      11.8       0.0
 8 C  s               1.8       5.4       0.0


                      *****************************
                      * MAYER POPULATION ANALYSIS *
                      *****************************

  NA   - Mulliken gross atomic population
  ZA   - Total nuclear charge
  QA   - Mulliken gross atomic charge
  VA   - Mayer's total valence
  BVA  - Mayer's bonded valence
  FA   - Mayer's free valence

  ATOM       NA         ZA         QA         VA         BVA        FA
  0 C      6.5799     6.0000    -0.5799     3.6999     3.6999    -0.0000
  1 C      5.8126     6.0000     0.1874     3.3528     3.3528     0.0000
  2 C      6.2798     6.0000    -0.2798     3.7670     3.7670    -0.0000
  3 C      6.2094     6.0000    -0.2094     3.7661     3.7661     0.0000
  4 C      6.2463     6.0000    -0.2463     3.7117     3.7117     0.0000
  5 C      5.8203     6.0000     0.1797     3.3954     3.3954     0.0000
  6 C      5.9592     6.0000     0.0408     3.7237     3.7237    -0.0000
  7 C      6.6193     6.0000    -0.6193     3.6426     3.6426     0.0000
  8 C      6.5526     6.0000    -0.5526     3.7204     3.7204     0.0000
  9 H      0.8150     1.0000     0.1850     0.9502     0.9502    -0.0000
 10 H      0.8240     1.0000     0.1760     0.9527     0.9527    -0.0000
 11 H      0.8317     1.0000     0.1683     0.9590     0.9590    -0.0000
 12 H      0.8261     1.0000     0.1739     0.9617     0.9617    -0.0000
 13 H      0.8285     1.0000     0.1715     0.9612     0.9612     0.0000
 14 H      0.8279     1.0000     0.1721     0.9614     0.9614     0.0000
 15 H      0.8415     1.0000     0.1585     0.9657     0.9657     0.0000
 16 H      0.8120     1.0000     0.1880     0.9493     0.9493    -0.0000
 17 H      0.8249     1.0000     0.1751     0.9540     0.9540    -0.0000
 18 H      0.8250     1.0000     0.1750     0.9537     0.9537     0.0000
 19 H      0.8231     1.0000     0.1769     0.9529     0.9529     0.0000
 20 H      0.8408     1.0000     0.1592     0.9655     0.9655     0.0000

  Mayer bond orders larger than 0.100000
B(  0-C ,  1-C ) :   0.8015 B(  0-C ,  9-H ) :   0.9761 B(  0-C , 10-H ) :   0.9674 
B(  0-C , 11-H ) :   0.9823 B(  1-C ,  2-C ) :   1.3940 B(  1-C ,  6-C ) :   1.3733 
B(  2-C ,  3-C ) :   1.3768 B(  2-C , 12-H ) :   0.9489 B(  3-C ,  4-C ) :   1.4099 
B(  3-C , 13-H ) :   0.9658 B(  4-C ,  5-C ) :   1.3169 B(  4-C , 14-H ) :   0.9565 
B(  5-C ,  6-C ) :   1.4669 B(  5-C ,  8-C ) :   0.7850 B(  6-C ,  7-C ) :   0.8213 
B(  7-C , 15-H ) :   0.9744 B(  7-C , 16-H ) :   0.9795 B(  7-C , 17-H ) :   0.9720 
B(  8-C , 18-H ) :   0.9722 B(  8-C , 19-H ) :   0.9693 B(  8-C , 20-H ) :   0.9854 


-------
TIMINGS
-------

Total SCF time: 0 days 0 hours 0 min 27 sec 

Total time                  ....      27.969 sec
Sum of individual times     ....      27.617 sec  ( 98.7%)

SCF preparation             ....       0.308 sec  (  1.1%)
Fock matrix formation       ....      26.494 sec  ( 94.7%)
  Startup                   ....       0.049 sec  (  0.2% of F)
  Split-RI-J                ....       4.395 sec  ( 16.6% of F)
  XC integration            ....      16.432 sec  ( 62.0% of F)
    XC Preparation          ....       0.000 sec  (  0.0% of XC)
    Basis function eval.    ....       2.706 sec  ( 16.5% of XC)
    Density eval.           ....       5.374 sec  ( 32.7% of XC)
    XC-Functional eval.     ....       1.892 sec  ( 11.5% of XC)
    XC-Potential eval.      ....       5.707 sec  ( 34.7% of XC)
  CPCM terms                ....       5.191 sec  ( 19.6% of F)
Diagonalization             ....       0.000 sec  (  0.0%)
Density matrix formation    ....       0.181 sec  (  0.6%)
Total Energy calculation    ....       0.038 sec  (  0.1%)
Population analysis         ....       0.125 sec  (  0.4%)
Orbital Transformation      ....       0.057 sec  (  0.2%)
Orbital Orthonormalization  ....       0.000 sec  (  0.0%)
DIIS solution               ....       0.322 sec  (  1.2%)
  MO trafo                  ....       0.000 sec  (  0.0 % of DIIS)
  Orb grad                  ....       0.000 sec  (  0.0 % of DIIS)
  Energy W gradient         ....       0.000 sec  (  0.0 % of DIIS)
  DIIS error                ....       0.011 sec  (  3.4 % of DIIS)
  DIIS work                 ....       0.268 sec  ( 83.3 % of DIIS)
  Form Q                    ....       0.000 sec  (  0.0 % of DIIS)
  Form QpQm                 ....       0.000 sec  (  0.0 % of DIIS)
  Exp/Cayley                ....       0.000 sec  (  0.0 % of DIIS)
  Orb update                ....       0.000 sec  (  0.0 % of DIIS)
  Wake-sleep                ....       0.013 sec  (  4.2 % of DIIS)
SOSCF solution              ....       0.092 sec  (  0.3%)
  MO trafo                  ....       0.049 sec  ( 53.8 % of SOSCF)
  Orb grad                  ....       0.001 sec  (  1.5 % of SOSCF)
  Rot update                ....       0.016 sec  ( 17.2 % of SOSCF)
  Step                      ....       0.025 sec  ( 27.4 % of SOSCF)
Finished LeanSCF after  28.1 sec

Maximum memory used throughout the entire LEANSCF-calculation: 33.2 MB


-------------------------------------------------------------------------------
                          DFT DISPERSION CORRECTION                            
                                                                               
                                DFTD4 V3.4.0                                   
-------------------------------------------------------------------------------
The R2SCAN3C composite method is recognized
Using three-body term ABC
Active option DFTDOPT                   ...         5   

-------------------------   ----------------
Dispersion correction           -0.007124196
-------------------------   ----------------

------------------   -----------------
gCP correction             0.008072450
------------------   -----------------

-------------------------   --------------------
FINAL SINGLE POINT ENERGY      -350.083016865297
-------------------------   --------------------


------------------------------------------------------------------------------
                              ORCA PROPERTY CALCULATIONS
------------------------------------------------------------------------------

GBWName                                 ... sp_solv.gbw
Number of atoms                         ...     21
Number of basis functions               ...    231
Max core memory                         ...   1024 MB

Electric properties:
Dipole moment                           ... YES
Quadrupole moment                       ...  NO
Static polarizability (Dipole/Dipole)   ...  NO
Static polarizability (Dipole/Quad.)    ...  NO
Static polarizability (Quad./Quad.)     ...  NO
Static polarizability (Velocity)        ...  NO

Atomic electric properties:
Dipole moment                           ...  NO
Quadrupole moment                       ...  NO
Static polarizability                   ...  NO

Choice of electric origin               ... Center of mass
Position of electric origin             ...     0.000000     0.000009    -0.000000

General magnetic properties:
Magnetizability                         ...  NO

EPR properties:
g-Tensor (aka g-matrix)                 ...  NO
Zero-Field splitting spin-orbit         ...  NO
Zero-field splitting spin-spin          ...  NO
Hyperfine couplings                     ...  NO (   0 nuclei)
Quadrupole couplings                    ...  NO (   0 nuclei)
Contact density                         ...  NO (   0 nuclei)

NMR properties:
Chemical shifts                         ...  NO (   0 nuclei)
Spin-rotation constants                 ...  NO (   0 nuclei)
Spin-spin couplings                     ...  NO (   0 nuclei,    0 pairs)

Choice of magnetic origin               ... GIAO
Position of magnetic origin             ...     0.000000     0.000000     0.000000

Properties with geometric perturbations:
SCF Hessian                             ...  NO
IR spectrum                             ...  NO
VCD spectrum                            ...  NO
X-ray spectroscopy properties:
SCF XES/XAS/RIXS spectra                ...  NO


-------------
DIPOLE MOMENT
-------------

Method             : SCF
Type of density    : Electron Density
Multiplicity       :   1
Irrep              :   0
Energy             :  -350.0839651188724133 Eh
Relativity type    : 
Basis              : AO
                                X                 Y                 Z
Electronic contribution:     -0.075079800      -5.120586745       0.027070300
Nuclear contribution   :      0.094575227       5.596474217      -0.037330702
                        -----------------------------------------
Total Dipole Moment    :      0.019495426       0.475887472      -0.010260402
                        -----------------------------------------
Magnitude (a.u.)       :      0.476397138
Magnitude (Debye)      :      1.210905293



--------------------
Rotational spectrum 
--------------------
 
Rotational constants in cm-1:             0.075375             0.057790             0.033316 
Rotational constants in MHz :          2259.690196          1732.497514           998.793629 

Dipole components along the rotational axes: 
x,y,z [a.u.] :     0.028189     0.475452    -0.010259 
x,y,z [Debye]:     0.071652     1.208502    -0.026077 

 

Dipole moment calculation done in   0.0 sec 

Maximum memory used throughout the entire PROP-calculation: 15.2 MB

--------------------------------
SUGGESTED CITATIONS FOR THIS RUN
--------------------------------

Below you find a list of papers that are relevant to this ORCA run
We neither can nor want to force you to cite these papers, but we appreciate if you do
You receive ORCA, which is the product of decades of hard work by many enthusiastic individuals, for free
The only thing we kindly ask in return is that you cite our papers,
We deeply appreciate it, if you show your appreciation for ORCA by not just citing the generic ORCA reference.

Please note that relegating all ORCA citations to the supporting information does *not* help us.
SI sections are not indexed - citations you put there will not count into any citation statistics
But we need these citations in order to attract the funding resources that allow us to do what we are doing

Therefore, if you are a happy ORCA user, please consider citing a few of the papers listed below in the main body of your paper

In addition to the list printed below, the program has created the file sp_solv.bibtex that contains the list in bibtex format
You can import this file easily into all common literature databanks and citation aid programs


List of essential papers. We consider these as the minimum necessary citations

  1. Neese,F.
     Software update: the ORCA program system, version 5.0
     WIRES Comput. Molec. Sci., 2022 12(1)e1606
     doi.org/10.1002/wcms.1606
  2. Grimme,S.; Hansen,A.; Ehlert,S.; Mewes,J.
     r2SCAN-3c: A 'Swiss army knife' composite electronic-structure method
     J. Chem. Phys., 2021 154 064103
     doi.org/10.1063/5.0040021

List of papers to cite with high priority. The work reported in these papers was absolutely
necessary for this run to complete.
Our perspective: the developers of density functionals and basis sets usually get cited in chemistry papers
Good! But without the algorithms to do something with them, the functionals or basis sets would not do anything.
Hence, in our opinion, the algorithm design and method developments papers are equally worthy of getting cited

  1. Neese,F.
     An improvement of the resolution of the identity approximation for the formation of the Coulomb matrix
     J. Comp. Chem., 2003 24(14)1740-1747
     doi.org/10.1002/jcc.10318
  2. Garcia-Rates,M.; Neese,F.
     Effect of the Solute Cavity on the Solvation Energy and its Derivatives within the Framework of the Gaussian Charge Scheme
     J. Comput. Chem., 2020 41 922-939
     doi.org/10.1002/jcc.26139
  3. Neese,F.
     The SHARK Integral Generation and Digestion System
     J. Comp. Chem., 2022  1-16
     doi.org/10.1002/jcc.26942
  4. Lehtola,S.; Steigemann,C.; Oliveira,M.; Marques,M.
     Recent developments in Libxc - A comprehensive library of functionals for density functional theory
     Software X, 2018 7 
     doi.org/10.1016/j.softx.2017.11.002
  5. Caldeweyher,E.; Bannwarth,C.; Grimme,S.
     Extension of the D3 dispersion coefficient model
     J. Chem. Phys., 2017 147 034112-XXXX
     doi.org/10.1063/1.4993215
  6. Caldeweyher,E.; Ehlert,S.; Hansen,A.; Neugebauer,H.; Spicher,S.; Bannwarth,C.; Grimme,S.
     A generally applicable atomic-charge dependent London dispersion correction
     J. Chem. Phys., 2019 150 154122-XXXX
     doi.org/10.1063/1.5090222
  7. Caldeweyher,E.; Mewes,J.; Ehlert,S.; Grimme,S.
     Extension and evaluation of the D4 London-dispersion model for periodic systems
     Phys. Chem. Chem. Phys., 2020 22(16)8499-8512
     doi.org/10.1039/D0CP00502A

List of suggested additional citations. These are papers that are important in the 'surrounding' of 
of this run, or papers that preceded the highly important papers. If you like your results we are grateful for a citation.

  1. Neese,F.
     The ORCA program system
     WIRES Comput. Molec. Sci., 2012 2(1)73-78
     doi.org/10.1002/wcms.81
  2. Neese,F.
     Software update: the ORCA program system, version 4.0
     WIRES Comput. Molec. Sci., 2018 8(1)1-6
     doi.org/10.1002/wcms.1327
  3. Neese,F.; Wennmohs,F.; Becker,U.; Riplinger,C.
     The ORCA quantum chemistry program package
     J. Chem. Phys., 2020 152 Art. No. L224108
     doi.org/10.1063/5.0004608

List of optional additional citations

  1. Neese,F.
     Approximate second-order SCF convergence for spin unrestricted wavefunctions
     Chem. Phys. Lett., 2000 325(1-3)93-98
     doi.org/10.1016/s0009-2614(00)00662-x

Timings for individual modules:

Sum of individual times          ...       29.899 sec (=   0.498 min)
Startup calculation              ...        1.336 sec (=   0.022 min)   4.5 %
SCF iterations                   ...       28.454 sec (=   0.474 min)  95.2 %
Property calculations            ...        0.108 sec (=   0.002 min)   0.4 %
                             ****ORCA TERMINATED NORMALLY****
TOTAL RUN TIME: 0 days 0 hours 0 minutes 31 seconds 560 msec
