41
 energy: -2932.484131253914 gnorm: 0.002754758411 xtb: 6.7.1 (edcfbbe)
C            4.14343633014539       -2.01975210416146       -2.51098940026284
C            4.58959882527099       -1.76995248823236       -1.09260489235785
O            3.45758001384051       -1.48390130102419       -0.19704430582049
P            2.73590171447236       -0.05115547663965       -0.11651111042427
S            3.76999341035136        1.54441853068998       -0.51864178169992
O            2.20291989281579       -0.02376783024826        1.39572991283690
C            1.44036946979818       -1.14650534187049        1.96467315359430
C            0.71897092829135       -0.63313564903333        3.18343732544959
S            1.05615342703062       -0.40949913043215       -1.37616161796697
C            0.32646866604690        1.27600020508297       -1.44733775170966
S           -0.54745845585392        1.86770583315631        0.04977407212203
P           -2.26710387029919        0.62393579338801       -0.00789014067918
S           -3.02834853745184        0.32429867441806       -1.77776181758141
O           -3.08983107829857        1.49438029489459        1.06298667349982
C           -4.21114003845961        0.93462059934180        1.83654748728843
C           -5.52083298387491        1.08171393335414        1.10043771728954
O           -1.88365849825070       -0.70725386650497        0.81302265554896
C           -2.07203691314745       -2.07105529057785        0.30483543574877
C           -3.40073308428531       -2.62141290810135        0.75807720889203
H            5.01111544883337       -2.35096637560142       -3.09109538020012
H            3.38338407931365       -2.80557982843834       -2.55110423445840
H            3.74883857167534       -1.11330315331702       -2.97838619636456
H            5.29696676362322       -0.93834995957926       -1.02374072264512
H            5.04239381377823       -2.65994134661605       -0.65170529579501
H            0.73892108485314       -1.51320227499830        1.20782515250408
H            2.15347274309996       -1.93934046144351        2.21178620204920
H            0.14004038222653       -1.45234945864779        3.62181422638412
H            1.42746600862234       -0.26939594753709        3.93444909682234
H            0.03063693752819        0.17525463825099        2.91798320799610
H           -0.36477650678732        1.26765703278047       -2.29554418766870
H            1.12244958504547        2.00298527143988       -1.63649070371211
H           -3.98896169994809       -0.10901082741502        2.07745863713927
H           -4.20316985291138        1.51731655622892        2.76090906720449
H           -6.32992911883404        0.76549556178947        1.76786206184045
H           -5.69593897444369        2.12504371924268        0.81952830332675
H           -5.55278010624282        0.45840949817289        0.20181277237152
H           -1.98480607092195       -2.06022128702142       -0.78494743492239
H           -1.23509923689028       -2.63508916188978        0.72353438059208
H           -3.47788529117423       -2.61516665065792        1.84927942788934
H           -4.23086838038041       -2.04556277682754        0.33640043296574
H           -3.48964639773150       -3.65718173881064        0.41254606279536
41
 energy: -2932.484146951175 gnorm: 0.001524658265 xtb: 6.7.1 (edcfbbe)
C            4.14268934817005       -2.01940353519409       -2.51148480678549
C            4.58834434339981       -1.77009870495395       -1.09295595278581
O            3.45620756738015       -1.48308506246788       -0.19757784975353
P            2.73522249826477       -0.04968070555842       -0.11463722967824
S            3.76803106046178        1.54603903482341       -0.51981157048344
O            2.20268592939081       -0.02335543097573        1.39799982496207
C            1.43940993762600       -1.14682239392959        1.96546282029859
C            0.71816127260375       -0.63374718602172        3.18414587607279
S            1.05983830102182       -0.40789537383944       -1.37968354371050
C            0.32987658952042        1.27736780022267       -1.44902593844537
S           -0.54732640066941        1.86734409785889        0.04683874485497
P           -2.26672110467794        0.62333803351383       -0.00706229517211
S           -3.02973895685830        0.32229396778049       -1.77618916941233
O           -3.08816960187771        1.49348490720094        1.06518079036211
C           -4.21088293751700        0.93391625530614        1.83770755141345
C           -5.51836720739042        1.08130387810391        1.09917787053677
O           -1.88269252040471       -0.70763262917251        0.81368678438163
C           -2.07211066285205       -2.07166424618971        0.30609594874598
C           -3.40126922146344       -2.62122320578165        0.75851513899176
H            5.01030463254086       -2.35002452360104       -3.09206707678439
H            3.38265220210978       -2.80507993045301       -2.55173440806587
H            3.74758613410655       -1.11262103867200       -2.97778588526654
H            5.29632047716651       -0.93900357164353       -1.02396604703894
H            5.03978900574854       -2.66048818281077       -0.65129986993797
H            0.73893490233692       -1.51198273672329        1.20782451469596
H            2.15171341461107       -1.93966303388818        2.21187470052862
H            0.13942311563494       -1.45309418469948        3.62203182999444
H            1.42574888565428       -0.27043043668230        3.93505752366884
H            0.02984159578477        0.17407600910726        2.91987359442992
H           -0.36363408059766        1.26612660385659       -2.29538440654459
H            1.12283307542475        2.00686985305767       -1.64096602557571
H           -3.98849707524436       -0.10910995439105        2.07899941060761
H           -4.20353230589945        1.51705699921713        2.76105179819913
H           -6.32837534304363        0.76373010309910        1.76443205740900
H           -5.69383597491831        2.12417546256870        0.81918149261099
H           -5.54817338135432        0.45999962681235        0.20008986773497
H           -1.98424683058191       -2.06082811350076       -0.78355082098609
H           -1.23593680251204       -2.63604995778728        0.72551012797786
H           -3.47849697783431       -2.61505228952712        1.84953141778784
H           -4.23094093924045       -2.04518835559527        0.33658816585006
H           -3.49059584231777       -3.65671718370434        0.41309292735542
41
 energy: -2932.484157360832 gnorm: 0.001805476238 xtb: 6.7.1 (edcfbbe)
C            4.14101931957850       -2.01874821712134       -2.51198872046639
C            4.58709886893359       -1.77095243369764       -1.09340614009016
O            3.45498376912687       -1.48205319943947       -0.19840408736952
P            2.73534515197252       -0.04733049738377       -0.11317786063896
S            3.76932677158271        1.54867457392927       -0.51458310113251
O            2.20245131600389       -0.02220265450926        1.39968432406023
C            1.43733089570520       -1.14669146757105        1.96542641286313
C            0.71638471463631       -0.63514771672178        3.18450736687903
S            1.05993195716525       -0.40304102762716       -1.37790541760172
C            0.32594206463023        1.27951954025434       -1.45132165941962
S           -0.54715303772413        1.87077654505613        0.04670661699185
P           -2.26327015658855        0.62160211524962       -0.00725657629187
S           -3.03146997628651        0.31849948771590       -1.77417686188489
O           -3.08164368754084        1.49176173637287        1.06758154794490
C           -4.20793018486544        0.93309570602960        1.83804769935486
C           -5.51190320675469        1.08038123399711        1.09560206620996
O           -1.87909264088916       -0.70876496806468        0.81405597100927
C           -2.07150912431504       -2.07346400831053        0.30849586776760
C           -3.40207087346691       -2.62017783890648        0.75977036304673
H            5.00829874324965       -2.34792538366640       -3.09389365767450
H            3.38104993245696       -2.80427416475142       -2.55278746876935
H            3.74485173081186       -1.11126829495705       -2.97602982358470
H            5.29621571545234       -0.94082651633842       -1.02435018605811
H            5.03610580110716       -2.66218532659446       -0.65082450447754
H            0.73808826454884       -1.50935134722034        1.20657644079306
H            2.14848249192946       -1.93969474942987        2.21079120538715
H            0.13831878455465       -1.45517584958244        3.62159361579641
H            1.42300779142892       -0.27280908950204        3.93537254648754
H            0.02758442737034        0.17182347074203        2.92259525669797
H           -0.36985053756038        1.26358983756421       -2.29589980389320
H            1.11602342092326        2.01100661865433       -1.64791388493488
H           -3.98574294236990       -0.10899753409093        2.08097345600844
H           -4.20220001694874        1.51741633578147        2.75971377172314
H           -6.32377772340203        0.75954158857595        1.75660530190009
H           -5.68836914567293        2.12292885757894        0.81797088321163
H           -5.53730797807744        0.46268102058884        0.19513749568419
H           -1.98209012281821       -2.06366913478881       -0.78090240792872
H           -1.23729052859959       -2.63878233399558        0.73007473025042
H           -3.47992737072114       -2.61378370899222        1.85052681257003
H           -4.23051375594781       -2.04343119152890        0.33693690517756
H           -3.49266571274264       -3.65538862575346        0.41481261350460
41
 energy: -2932.484164134841 gnorm: 0.001219150002 xtb: 6.7.1 (edcfbbe)
C            4.13930166701041       -2.01772482766027       -2.51197132055772
C            4.58548623090248       -1.77038443943396       -1.09329204456232
O            3.45314239500409       -1.48032672246923       -0.19885957150794
P            2.73418849417631       -0.04506339127654       -0.11368196005406
S            3.77141577954451        1.55007256241598       -0.50999844319054
O            2.20107627150463       -0.02082677088466        1.39920294214743
C            1.43555003848144       -1.14608638372978        1.96436870473314
C            0.71477643290709       -0.63627210198823        3.18424124789000
S            1.05973511098281       -0.40408734207914       -1.37955450317139
C            0.32662304231095        1.27844009533411       -1.45464629622755
S           -0.54594174095239        1.86935344856430        0.04366193655167
P           -2.26254084677449        0.62133355547046       -0.00411281310343
S           -3.02788453169601        0.32008627289762       -1.77224494630457
O           -3.07901445884145        1.49128348679839        1.07230732629199
C           -4.20758202200407        0.93246101679304        1.83974437675272
C           -5.50921076986280        1.07934204512779        1.09336070476654
O           -1.87683678721398       -0.70932710923151        0.81601118863382
C           -2.07027266874470       -2.07416182127600        0.31051021638288
C           -3.40207302598820       -2.61868859606807        0.76103124806501
H            5.00666452599574       -2.34600933393825       -3.09419982803870
H            3.37967245795364       -2.80362584084468       -2.55351397666838
H            3.74287255107495       -1.11008511568380       -2.97547822136303
H            5.29563215076225       -0.94117281862951       -1.02403916125938
H            5.03351331645852       -2.66212125753692       -0.65082908215851
H            0.73595144344133       -1.50771099839883        1.20505437888264
H            2.14710543936164       -1.93937938560076        2.20895655362782
H            0.13741709638964       -1.45735288879151        3.62076888685610
H            1.42209434202133       -0.27456649233046        3.93536240000566
H            0.02514441877920        0.17078658531686        2.92325720728136
H           -0.37031980953775        1.26179422320725       -2.29833667483083
H            1.11575599552382        2.01050373488413       -1.65255596093724
H           -3.98523151013197       -0.10964162434150        2.08341140462331
H           -4.20381246344655        1.51751532531604        2.76124250768842
H           -6.32299698604261        0.75569980246718        1.75087871332515
H           -5.68585286325659        2.12271921839456        0.81761158467245
H           -5.53037492803396        0.46332901392286        0.19111332994148
H           -1.97957310274321       -2.06547593729797       -0.77882766692751
H           -1.23736419405525       -2.64034411285932        0.73363451971169
H           -3.48111067789430       -2.61208186679482        1.85180387427941
H           -4.22949847005906       -2.04104486346897        0.33725412886688
H           -3.49357087440407       -3.65400495643678        0.41612737833100
41
 energy: -2932.484169196692 gnorm: 0.001050371381 xtb: 6.7.1 (edcfbbe)
C            4.13776188056734       -2.01656827207275       -2.51152145025540
C            4.58445739414547       -1.77000535983077       -1.09276723144017
O            3.45292490058980       -1.48023716573491       -0.19742033984363
P            2.73355939913307       -0.04520122739933       -0.11303096776054
S            3.76785980603923        1.55065176248310       -0.51277515467080
O            2.19931721123364       -0.02107964154522        1.39943103090411
C            1.43360824216879       -1.14667035598162        1.96357979023914
C            0.71294505473103       -0.63770939649432        3.18401419381291
S            1.06223143361569       -0.40309229906497       -1.38357748634332
C            0.32608241993447        1.27808504206128       -1.45557464491566
S           -0.54382547168910        1.86965380712848        0.04400668340495
P           -2.26084329941290        0.62200028179659       -0.00242392000280
S           -3.02923725424830        0.31837446500577       -1.76871565854551
O           -3.07601932382029        1.49131755797175        1.07534414685370
C           -4.20609560443522        0.93219411271396        1.84023281478035
C           -5.50661830869679        1.07817891431052        1.09077533274591
O           -1.87372413445073       -0.70887779456528        0.81700175981429
C           -2.06856887470255       -2.07399714068425        0.31236646167590
C           -3.40158907745289       -2.61645131087858        0.76223852240105
H            5.00516603324581       -2.34397263941755       -3.09414116964702
H            3.37859415758254       -2.80304543615908       -2.55367357427949
H            3.74104856179414       -1.10890125580033       -2.97476042258903
H            5.29504735678545       -0.94120802303882       -1.02320156432734
H            5.03270934061125       -2.66210359753621       -0.65144181306582
H            0.73339927613888       -1.50752691961487        1.20371433067469
H            2.14590329751940       -1.94041814906948        2.20736639362052
H            0.13591200943308       -1.45963920612140        3.61989216463341
H            1.42123316232879       -0.27646088082896        3.93560692884417
H            0.02283254064348        0.16995800003528        2.92318330053379
H           -0.37194570926727        1.26146658079931       -2.29835389482949
H            1.11452769630754        2.01033142165729       -1.65494141253517
H           -3.98408434325854       -0.11017014963447        2.08511856003653
H           -4.20511939515502        1.51772149931333        2.76214341208299
H           -6.32189176075002        0.75174340701114        1.74541658119631
H           -5.68393064872245        2.12247424053290        0.81655119535079
H           -5.52416920795167        0.46312887335701        0.18686147461565
H           -1.97655324627773       -2.06688813093375       -0.77696112869480
H           -1.23681129870096       -2.64097919559686        0.73706504423151
H           -3.48186416480530       -2.60912977691935        1.85309777773054
H           -4.22790167740484       -2.03772288562428        0.33739568396434
H           -3.49427907385422       -3.65208407712175        0.41766795561327
41
 energy: -2932.484172917405 gnorm: 0.000643144556 xtb: 6.7.1 (edcfbbe)
C            4.13705836619099       -2.01558384355662       -2.51146263514849
C            4.58380763522277       -1.76946595887623       -1.09266716636134
O            3.45288076304360       -1.47993003489414       -0.19673516495909
P            2.73285578612433       -0.04531237820866       -0.11348215166499
S            3.76716288010256        1.55088495679468       -0.51256877360658
O            2.19771993252596       -0.02121867456879        1.39851345213862
C            1.43292564508266       -1.14723488682937        1.96245929161290
C            0.71224123218624       -0.63873095645912        3.18319941304086
S            1.06019317568149       -0.40399294598384       -1.38164774045420
C            0.32628825301440        1.27821520298782       -1.45548957603699
S           -0.54350467730034        1.87095809574408        0.04360981269214
P           -2.25968896311824        0.62169447689232       -0.00186833438924
S           -3.03126733585313        0.31790251256807       -1.76699496791724
O           -3.07410269270442        1.49096429424009        1.07649696908178
C           -4.20490303447719        0.93213280606437        1.84012611837166
C           -5.50481614561249        1.07747770081170        1.08902271272460
O           -1.87166935722981       -0.70896780887926        0.81777403526619
C           -2.06774012623190       -2.07410550366100        0.31412740480462
C           -3.40156192727328       -2.61518101304771        0.76308567400860
H            5.00448840921687       -2.34283448675645       -3.09419274664978
H            3.37799670979047       -2.80213775326366       -2.55351728542852
H            3.74009339729760       -1.10790891033412       -2.97445072877014
H            5.29451628195732       -0.94075472864934       -1.02310738159104
H            5.03222280478077       -2.66177377438573       -0.65184236331603
H            0.73281040217917       -1.50823030398221        1.20273491960247
H            2.14507289106935       -1.94105856915095        2.20586450925498
H            0.13518886978760       -1.46070109279908        3.61876381775427
H            1.42011521492131       -0.27757701924139        3.93498834114319
H            0.02219614156075        0.16896531953827        2.92291263817958
H           -0.37236084661537        1.26081074852996       -2.29775261179857
H            1.11484933914783        2.01013007196898       -1.65593940298245
H           -3.98314443633288       -0.11002926378540        2.08591269107640
H           -4.20567238407701        1.51777124912361        2.76189372472972
H           -6.32053032030213        0.74971094596288        1.74228511867651
H           -5.68300675172131        2.12152458128248        0.81501427975725
H           -5.52071995450584        0.46319927797928        0.18479725630381
H           -1.97476899699122       -2.06740696025503       -0.77511480290469
H           -1.23673493424352       -2.64148957209093        0.73975180854746
H           -3.48233247915465       -2.60714385651379        1.85386523229667
H           -4.22689836419048       -2.03563884098010        0.33750756889663
H           -3.49521773327243       -3.65080527811687        0.41893699680594
41
 energy: -2932.484172917405 gnorm: 0.000643144556 xtb: 6.7.1 (edcfbbe)
C            4.13705836619099       -2.01558384355662       -2.51146263514849
C            4.58380763522277       -1.76946595887623       -1.09266716636134
O            3.45288076304360       -1.47993003489414       -0.19673516495909
P            2.73285578612433       -0.04531237820866       -0.11348215166499
S            3.76716288010256        1.55088495679468       -0.51256877360658
O            2.19771993252596       -0.02121867456879        1.39851345213862
C            1.43292564508266       -1.14723488682937        1.96245929161290
C            0.71224123218624       -0.63873095645912        3.18319941304086
S            1.06019317568149       -0.40399294598384       -1.38164774045420
C            0.32628825301440        1.27821520298782       -1.45548957603699
S           -0.54350467730034        1.87095809574408        0.04360981269214
P           -2.25968896311824        0.62169447689232       -0.00186833438924
S           -3.03126733585313        0.31790251256807       -1.76699496791724
O           -3.07410269270442        1.49096429424009        1.07649696908178
C           -4.20490303447719        0.93213280606437        1.84012611837166
C           -5.50481614561249        1.07747770081170        1.08902271272460
O           -1.87166935722981       -0.70896780887926        0.81777403526619
C           -2.06774012623190       -2.07410550366100        0.31412740480462
C           -3.40156192727328       -2.61518101304771        0.76308567400860
H            5.00448840921687       -2.34283448675645       -3.09419274664978
H            3.37799670979047       -2.80213775326366       -2.55351728542852
H            3.74009339729760       -1.10790891033412       -2.97445072877014
H            5.29451628195732       -0.94075472864934       -1.02310738159104
H            5.03222280478077       -2.66177377438573       -0.65184236331603
H            0.73281040217917       -1.50823030398221        1.20273491960247
H            2.14507289106935       -1.94105856915095        2.20586450925498
H            0.13518886978760       -1.46070109279908        3.61876381775427
H            1.42011521492131       -0.27757701924139        3.93498834114319
H            0.02219614156075        0.16896531953827        2.92291263817958
H           -0.37236084661537        1.26081074852996       -2.29775261179857
H            1.11484933914783        2.01013007196898       -1.65593940298245
H           -3.98314443633288       -0.11002926378540        2.08591269107640
H           -4.20567238407701        1.51777124912361        2.76189372472972
H           -6.32053032030213        0.74971094596288        1.74228511867651
H           -5.68300675172131        2.12152458128248        0.81501427975725
H           -5.52071995450584        0.46319927797928        0.18479725630381
H           -1.97476899699122       -2.06740696025503       -0.77511480290469
H           -1.23673493424352       -2.64148957209093        0.73975180854746
H           -3.48233247915465       -2.60714385651379        1.85386523229667
H           -4.22689836419048       -2.03563884098010        0.33750756889663
H           -3.49521773327243       -3.65080527811687        0.41893699680594
