      -----------------------------------------------------------      
     |                   =====================                   |     
     |                           x T B                           |     
     |                   =====================                   |     
     |                         S. Grimme                         |     
     |          Mulliken Center for Theoretical Chemistry        |     
     |                    University of Bonn                     |     
      -----------------------------------------------------------      

   * xtb version 6.7.1 (edcfbbe) compiled by 'albert@albert-system' on 2024-07-22

   xtb is free software: you can redistribute it and/or modify it under
   the terms of the GNU Lesser General Public License as published by
   the Free Software Foundation, either version 3 of the License, or
   (at your option) any later version.
   
   xtb is distributed in the hope that it will be useful,
   but WITHOUT ANY WARRANTY; without even the implied warranty of
   MERCHANTABILITY or FITNESS FOR A PARTICULAR PURPOSE.  See the
   GNU Lesser General Public License for more details.
   
   Cite this work as:
   * C. Bannwarth, E. Caldeweyher, S. Ehlert, A. Hansen, P. Pracht,
     J. Seibert, S. Spicher, S. Grimme, WIREs Comput. Mol. Sci., 2020, 11,
     e01493. DOI: 10.1002/wcms.1493
   
   for GFN2-xTB:
   * C. Bannwarth, S. Ehlert and S. Grimme., J. Chem. Theory Comput., 2019,
     15, 1652-1671. DOI: 10.1021/acs.jctc.8b01176
   for GFN1-xTB:
   * S. Grimme, C. Bannwarth, P. Shushkov, J. Chem. Theory Comput., 2017,
     13, 1989-2009. DOI: 10.1021/acs.jctc.7b00118
   for GFN0-xTB:
   * P. Pracht, E. Caldeweyher, S. Ehlert, S. Grimme, ChemRxiv, 2019, preprint.
     DOI: 10.26434/chemrxiv.8326202.v1
   for GFN-FF:
   * S. Spicher and S. Grimme, Angew. Chem. Int. Ed., 2020, 59, 15665-15673.
     DOI: 10.1002/anie.202004239
   
   for ALPB and GBSA implicit solvation:
   * S. Ehlert, M. Stahn, S. Spicher, S. Grimme, J. Chem. Theory Comput.,
     2021, 17, 4250-4261. DOI: 10.1021/acs.jctc.1c00471
   
   for ddCOSMO and CPCM-X implicit solvation:
   * M. Stahn, S. Ehlert, S. Grimme, J. Phys. Chem. A,
     2023, XX, XXXX-XXXX. DOI: 10.1021/acs.jpca.3c04382
   
   for DFT-D4:
   * E. Caldeweyher, C. Bannwarth and S. Grimme, J. Chem. Phys., 2017,
     147, 034112. DOI: 10.1063/1.4993215
   * E. Caldeweyher, S. Ehlert, A. Hansen, H. Neugebauer, S. Spicher,
     C. Bannwarth and S. Grimme, J. Chem. Phys., 2019, 150, 154122.
     DOI: 10.1063/1.5090222
   * E. Caldeweyher, J.-M. Mewes, S. Ehlert and S. Grimme, Phys. Chem. Chem. Phys.
     2020, 22, 8499-8512. DOI: 10.1039/D0CP00502A
   
   for sTDA-xTB:
   * S. Grimme and C. Bannwarth, J. Chem. Phys., 2016, 145, 054103.
     DOI: 10.1063/1.4959605
   
   in the mass-spec context:
   * V. Asgeirsson, C. Bauer and S. Grimme, Chem. Sci., 2017, 8, 4879.
     DOI: 10.1039/c7sc00601b
   * J. Koopman and S. Grimme, ACS Omega 2019, 4, 12, 15120-15133.
     DOI: 10.1021/acsomega.9b02011
   
   for metadynamics refer to:
   * S. Grimme, J. Chem. Theory Comput., 2019, 155, 2847-2862
     DOI: 10.1021/acs.jctc.9b00143
   
   for SPH calculations refer to:
   * S. Spicher and S. Grimme, J. Chem. Theory Comput., 2021, 17, 1701-1714
     DOI: 10.1021/acs.jctc.0c01306
   
   for ONIOM refer to:
   * C. Plett, A. Katbashev, S. Ehlert, S. Grimme, M. Bursch,
     Phys. Chem. Chem. Phys., 2023, 25, 17860-17868. DOI: 10.1039/D3CP02178E
   
   for DIPRO refer to:
   * J. Kohn, N. Gildemeister, S. Grimme, D. Fazzi, A. Hansen,
     J. Chem. Phys., 2023, just accepted.
   
   for PTB refer to:
   * S. Grimme, M. Mueller, A. Hansen, J. Chem. Phys., 2023, 158, 124111.
     DOI: 10.1063/5.0137838
   
   with help from (in alphabetical order)
   P. Atkinson, C. Bannwarth, F. Bohle, G. Brandenburg, E. Caldeweyher
   M. Checinski, S. Dohm, S. Ehlert, S. Ehrlich, I. Gerasimov, C. Hölzer
   A. Katbashev, J. Kohn, J. Koopman, C. Lavigne, S. Lehtola, F. März, M. Müller,
   F. Musil, H. Neugebauer, J. Pisarek, C. Plett, P. Pracht, F. Pultar,
   J. Seibert, P. Shushkov, S. Spicher, M. Stahn, M. Steiner, T. Strunk,
   J. Stückrath, T. Rose, and J. Unsleber
   
 * started run on 2025/04/09 at 05:21:15.362     
   ID    Z sym.   atoms
    1    6 C      1, 2, 7, 8, 10, 15, 16, 18, 19
    2    8 O      3, 6, 14, 17
    3   15 P      4, 12
    4   16 S      5, 9, 11, 13
    5    1 H      20-41

           -------------------------------------------------
          |                Calculation Setup                |
           -------------------------------------------------

          program call               : /srv/scratch/z5358697/.xtb/bin/xtb solv.coord --gfn2 --sp --chrg 0 --norestart --parallel 1 --alpb water reference -I xtb_sp-xcontrol-inp
          hostname                   : k163
          coordinate file            : solv.coord
          omp threads                :                     1


           -------------------------------------------------
          |                 G F N 2 - x T B                 |
           -------------------------------------------------

        Reference                      10.1021/acs.jctc.8b01176
      * Hamiltonian:
        H0-scaling (s, p, d)           1.850000    2.230000    2.230000
        zeta-weighting                 0.500000
      * Dispersion:
        s8                             2.700000
        a1                             0.520000
        a2                             5.000000
        s9                             5.000000
      * Repulsion:
        kExp                           1.500000    1.000000
        rExp                           1.000000
      * Coulomb:
        alpha                          2.000000
        third order                    shell-resolved
        anisotropic                    true
        a3                             3.000000
        a5                             4.000000
        cn-shift                       1.200000
        cn-exp                         4.000000
        max-rad                        5.000000

      * Solvation model:               ALPB
        Solvent                        water
        Parameter file                 internal GFN2-xTB/ALPB
        Dielectric constant                8.0200E+01
        Reference state                gsolv=reference [X=1]
        Free energy shift                  2.8945E-03 Eh       1.8164E+00 kcal/mol
        Temperature                        2.9815E+02 K
        Density                            1.0000E+00 kg/L
        Solvent mass                       1.8000E+01 g/mol
        Interaction kernel             P16
        Born radius scaling (c1)           1.4744E+00
        Born radii integrator          GBOBC
        Born offset                        0.0000E+00 a0       0.0000E+00 AA
        H-bond correction              true
        Ion screening                  false
        Surface tension                    1.0000E-05 Eh       1.5569E+01 dyn/cm
        Grid points                               974 per atom

          ...................................................
          :                      SETUP                      :
          :.................................................:
          :  # basis functions                 134          :
          :  # atomic orbitals                 128          :
          :  # shells                           66          :
          :  # electrons                       116          :
          :  max. iterations                   250          :
          :  Hamiltonian                  GFN2-xTB          :
          :  restarted?                      false          :
          :  GBSA solvation                   true          :
          :  PC potential                    false          :
          :  electronic temp.          300.0000000     K    :
          :  accuracy                    1.0000000          :
          :  -> integral cutoff          0.2500000E+02      :
          :  -> integral neglect         0.1000000E-07      :
          :  -> SCF convergence          0.1000000E-05 Eh   :
          :  -> wf. convergence          0.1000000E-03 e    :
          :  Broyden damping             0.4000000          :
          :  net charge                          0          :
          :  unpaired electrons                  0          :
          ...................................................

 iter      E             dE          RMSdq      gap      omega  full diag
   1    -65.4417552 -0.654418E+02  0.629E+00    4.15       0.0  T
   2    -65.5631123 -0.121357E+00  0.356E+00    3.55       1.0  T
   3    -65.5825759 -0.194635E-01  0.108E+00    3.11       1.0  T
   4    -65.5850114 -0.243549E-02  0.510E-01    3.06       1.0  T
   5    -65.5856312 -0.619831E-03  0.254E-01    3.11       1.0  T
   6    -65.5858055 -0.174365E-03  0.121E-01    3.11       1.0  T
   7    -65.5858600 -0.544214E-04  0.410E-02    3.12       1.0  T
   8    -65.5858637 -0.372272E-05  0.177E-02    3.12       1.0  T
   9    -65.5858646 -0.897157E-06  0.507E-03    3.12       3.1  T
  10    -65.5858646 -0.181728E-07  0.258E-03    3.12       6.1  T
  11    -65.5858646 -0.394563E-07  0.667E-04    3.12      23.4  T
  12    -65.5858646 -0.748543E-09  0.383E-04    3.12      40.8  T

   *** convergence criteria satisfied after 12 iterations ***

         #    Occupation            Energy/Eh            Energy/eV
      -------------------------------------------------------------
         1        2.0000           -0.7661292             -20.8474
       ...           ...                  ...                  ...
        52        2.0000           -0.4478364             -12.1862
        53        2.0000           -0.4198031             -11.4234
        54        2.0000           -0.4115451             -11.1987
        55        2.0000           -0.3959023             -10.7730
        56        2.0000           -0.3927765             -10.6880
        57        2.0000           -0.3923901             -10.6775
        58        2.0000           -0.3904042             -10.6234 (HOMO)
        59                         -0.2757736              -7.5042 (LUMO)
        60                         -0.2547105              -6.9310
        61                         -0.2157838              -5.8718
        62                         -0.1892979              -5.1511
        63                         -0.1866002              -5.0776
       ...                                ...                  ...
       128                          1.3203282              35.9280
      -------------------------------------------------------------
                  HL-Gap            0.1146306 Eh            3.1193 eV
             Fermi-level           -0.3330889 Eh           -9.0638 eV

 SCC (total)                   0 d,  0 h,  0 min,  0.058 sec
 SCC setup                      ...        0 min,  0.003 sec (  4.407%)
 Dispersion                     ...        0 min,  0.000 sec (  0.508%)
 classical contributions        ...        0 min,  0.000 sec (  0.096%)
 integral evaluation            ...        0 min,  0.009 sec ( 14.732%)
 iterations                     ...        0 min,  0.025 sec ( 42.233%)
 molecular gradient             ...        0 min,  0.022 sec ( 37.552%)
 printout                       ...        0 min,  0.000 sec (  0.443%)

         :::::::::::::::::::::::::::::::::::::::::::::::::::::
         ::                     SUMMARY                     ::
         :::::::::::::::::::::::::::::::::::::::::::::::::::::
         :: total energy             -65.023910357471 Eh    ::
         :: total w/o Gsasa/hb       -65.027474782430 Eh    ::
         :: gradient norm              0.000042586275 Eh/a0 ::
         :: HOMO-LUMO gap              3.119258072552 eV    ::
         ::.................................................::
         :: SCC energy               -65.584735653201 Eh    ::
         :: -> isotropic ES            0.124172914805 Eh    ::
         :: -> anisotropic ES         -0.014161654325 Eh    ::
         :: -> anisotropic XC          0.030144873307 Eh    ::
         :: -> dispersion             -0.052124815374 Eh    ::
         :: -> Gsolv                  -0.020411242452 Eh    ::
         ::    -> Gelec               -0.023975667412 Eh    ::
         ::    -> Gsasa                0.004586648694 Eh    ::
         ::    -> Ghb                 -0.003916772895 Eh    ::
         ::    -> Gshift               0.002894549160 Eh    ::
         :: repulsion energy           0.560825295730 Eh    ::
         :: add. restraining           0.000000000000 Eh    ::
         :: total charge               0.000000000000 e     ::
         :::::::::::::::::::::::::::::::::::::::::::::::::::::

           -------------------------------------------------
          |                Property Printout                |
           -------------------------------------------------

    * Orbital Energies and Occupations

         #    Occupation            Energy/Eh            Energy/eV
      -------------------------------------------------------------
         1        2.0000           -0.7661292             -20.8474
       ...           ...                  ...                  ...
        46        2.0000           -0.4627797             -12.5929
        47        2.0000           -0.4598347             -12.5127
        48        2.0000           -0.4554422             -12.3932
        49        2.0000           -0.4533116             -12.3352
        50        2.0000           -0.4518908             -12.2966
        51        2.0000           -0.4508412             -12.2680
        52        2.0000           -0.4478364             -12.1862
        53        2.0000           -0.4198031             -11.4234
        54        2.0000           -0.4115451             -11.1987
        55        2.0000           -0.3959023             -10.7730
        56        2.0000           -0.3927765             -10.6880
        57        2.0000           -0.3923901             -10.6775
        58        2.0000           -0.3904042             -10.6234 (HOMO)
        59                         -0.2757736              -7.5042 (LUMO)
        60                         -0.2547105              -6.9310
        61                         -0.2157838              -5.8718
        62                         -0.1892979              -5.1511
        63                         -0.1866002              -5.0776
        64                         -0.1766256              -4.8062
        65                         -0.1594804              -4.3397
        66                         -0.1539596              -4.1895
        67                         -0.1317420              -3.5849
        68                         -0.1276882              -3.4746
        69                         -0.0512443              -1.3944
       ...                                ...                  ...
       128                          1.3203282              35.9280
      -------------------------------------------------------------
                  HL-Gap            0.1146306 Eh            3.1193 eV
             Fermi-level           -0.3330889 Eh           -9.0638 eV

     #   Z          covCN         q      C6AA      α(0)
     1   6 C        3.751    -0.133    23.120     6.857
     2   6 C        3.839     0.073    19.333     6.255
     3   8 O        1.654    -0.264    18.385     5.788
     4  15 P        3.850     0.373   144.732    21.611
     5  16 S        0.927    -0.444   158.719    21.309
     6   8 O        1.655    -0.249    18.142     5.750
     7   6 C        3.874     0.072    19.332     6.252
     8   6 C        3.751    -0.125    22.965     6.834
     9  16 S        2.008    -0.152   147.445    20.437
    10   6 C        3.828     0.043    19.831     6.336
    11  16 S        2.004    -0.138   146.845    20.395
    12  15 P        3.854     0.375   144.648    21.605
    13  16 S        0.926    -0.452   159.080    21.333
    14   8 O        1.654    -0.267    18.444     5.797
    15   6 C        3.841     0.075    19.297     6.249
    16   6 C        3.751    -0.132    23.109     6.856
    17   8 O        1.655    -0.272    18.529     5.811
    18   6 C        3.863     0.079    19.234     6.237
    19   6 C        3.751    -0.126    22.972     6.835
    20   1 H        0.925     0.085     1.925     2.170
    21   1 H        0.925     0.069     2.096     2.264
    22   1 H        0.925     0.067     2.120     2.277
    23   1 H        0.924     0.069     2.093     2.262
    24   1 H        0.924     0.087     1.910     2.161
    25   1 H        0.924     0.096     1.822     2.111
    26   1 H        0.924     0.067     2.115     2.274
    27   1 H        0.925     0.051     2.309     2.377
    28   1 H        0.925     0.070     2.088     2.259
    29   1 H        0.925     0.086     1.914     2.163
    30   1 H        0.925     0.094     1.837     2.120
    31   1 H        0.925     0.085     1.929     2.172
    32   1 H        0.924     0.090     1.874     2.141
    33   1 H        0.924     0.068     2.110     2.272
    34   1 H        0.925     0.072     2.064     2.246
    35   1 H        0.925     0.087     1.909     2.161
    36   1 H        0.925     0.060     2.196     2.317
    37   1 H        0.924     0.065     2.146     2.291
    38   1 H        0.924     0.089     1.886     2.148
    39   1 H        0.925     0.069     2.099     2.266
    40   1 H        0.925     0.052     2.298     2.371
    41   1 H        0.925     0.084     1.937     2.177

 Mol. C6AA /au·bohr⁶  :      26394.647575
 Mol. C8AA /au·bohr⁸  :     862314.460723
 Mol. α(0) /au        :        257.547524


Wiberg/Mayer (AO) data.
largest (>0.10) Wiberg bond orders for each atom

 ---------------------------------------------------------------------------
     #   Z sym  total        # sym  WBO       # sym  WBO       # sym  WBO
 ---------------------------------------------------------------------------
     1   6 C    3.984 --     2 C    1.021    21 H    0.983    22 H    0.981
                            20 H    0.975
     2   6 C    3.885 --     1 C    1.021    24 H    0.967    23 H    0.964
                             3 O    0.866
     3   8 O    2.399 --     4 P    1.344     2 C    0.866
     4  15 P    5.306 --     5 S    1.556     3 O    1.344     6 O    1.330
                             9 S    0.933
     5  16 S    1.867 --     4 P    1.556     9 S    0.136
     6   8 O    2.414 --     4 P    1.330     7 C    0.885
     7   6 C    3.888 --     8 C    1.022    26 H    0.968    25 H    0.964
                             6 O    0.885
     8   6 C    3.988 --     7 C    1.022    28 H    0.981    29 H    0.976
                            27 H    0.975
     9  16 S    2.264 --    10 C    0.989     4 P    0.933     5 S    0.136
    10   6 C    3.959 --     9 S    0.989    11 S    0.982    31 H    0.960
                            30 H    0.956
    11  16 S    2.302 --    12 P    0.994    10 C    0.982    13 S    0.125
    12  15 P    5.311 --    13 S    1.554    14 O    1.331    17 O    1.286
                            11 S    0.994
    13  16 S    1.860 --    12 P    1.554    11 S    0.125
    14   8 O    2.391 --    12 P    1.331    15 C    0.869
    15   6 C    3.888 --    16 C    1.022    33 H    0.968    32 H    0.966
                            14 O    0.869
    16   6 C    3.985 --    15 C    1.022    34 H    0.983    36 H    0.976
                            35 H    0.974
    17   8 O    2.377 --    12 P    1.286    18 C    0.880
    18   6 C    3.891 --    19 C    1.023    37 H    0.966    38 H    0.964
                            17 O    0.880
    19   6 C    3.988 --    18 C    1.023    39 H    0.983    41 H    0.976
                            40 H    0.975
    20   1 H    0.991 --     1 C    0.975
    21   1 H    0.995 --     1 C    0.983
    22   1 H    0.996 --     1 C    0.981
    23   1 H    0.995 --     2 C    0.964
    24   1 H    0.992 --     2 C    0.967
    25   1 H    0.991 --     7 C    0.964
    26   1 H    0.995 --     7 C    0.968
    27   1 H    0.997 --     8 C    0.975
    28   1 H    0.995 --     8 C    0.981
    29   1 H    0.992 --     8 C    0.976
    30   1 H    0.991 --    10 C    0.956
    31   1 H    0.992 --    10 C    0.960
    32   1 H    0.991 --    15 C    0.966
    33   1 H    0.995 --    15 C    0.968
    34   1 H    0.995 --    16 C    0.983
    35   1 H    0.991 --    16 C    0.974
    36   1 H    0.996 --    16 C    0.976
    37   1 H    0.996 --    18 C    0.966
    38   1 H    0.992 --    18 C    0.964
    39   1 H    0.995 --    19 C    0.983
    40   1 H    0.997 --    19 C    0.975
    41   1 H    0.992 --    19 C    0.976
 ---------------------------------------------------------------------------

Topologies differ in total number of bonds
Writing topology from bond orders to xtbtopo.mol

molecular dipole:
                 x           y           z       tot (Debye)
 q only:        0.588      -2.000       1.806
   full:        0.744      -1.841       1.673       6.599
molecular quadrupole (traceless):
                xx          xy          yy          xz          yz          zz
 q only:       10.208     -23.369      -3.394     -32.338     -12.622      -6.814
  q+dip:       14.273     -22.727      -7.722     -32.866     -17.087      -6.551
   full:       14.324     -22.708      -7.243     -33.412     -16.472      -7.081


           -------------------------------------------------
          | TOTAL ENERGY              -65.023910357471 Eh   |
          | GRADIENT NORM               0.000042586275 Eh/α |
          | HOMO-LUMO GAP               3.119258072552 eV   |
           -------------------------------------------------

------------------------------------------------------------------------
 * finished run on 2025/04/09 at 05:21:15.477     
------------------------------------------------------------------------
 total:
 * wall-time:     0 d,  0 h,  0 min,  0.115 sec
 *  cpu-time:     0 d,  0 h,  0 min,  0.071 sec
 * ratio c/w:     0.616 speedup
 SCF:
 * wall-time:     0 d,  0 h,  0 min,  0.058 sec
 *  cpu-time:     0 d,  0 h,  0 min,  0.058 sec
 * ratio c/w:     0.986 speedup

