
                                 *****************
                                 * O   R   C   A *
                                 *****************

                                            #,                                       
                                            ###                                      
                                            ####                                     
                                            #####                                    
                                            ######                                   
                                           ########,                                 
                                     ,,################,,,,,                         
                               ,,#################################,,                 
                          ,,##########################################,,             
                       ,#########################################, ''#####,          
                    ,#############################################,,   '####,        
                  ,##################################################,,,,####,       
                ,###########''''           ''''###############################       
              ,#####''   ,,,,##########,,,,          '''####'''          '####       
            ,##' ,,,,###########################,,,                        '##       
           ' ,,###''''                  '''############,,,                           
         ,,##''                                '''############,,,,        ,,,,,,###''
      ,#''                                            '''#######################'''  
     '                                                          ''''####''''         
             ,#######,   #######,   ,#######,      ##                                
            ,#'     '#,  ##    ##  ,#'     '#,    #''#        ,####,   ,####,        
            ##       ##  ##   ,#'  ##            #'  '#       #'       #'  '#        
            ##       ##  #######   ##           ,######,      #####,   #    #        
            '#,     ,#'  ##    ##  '#,     ,#' ,#      #,     #,   #   #,  ,#        
             '#######'   ##     ##  '#######'  #'      '#     '####' # '####'        



                #########################################################
                #                        -***-                          #
                #          Department of theory and spectroscopy        #
                #                                                       #
                #                      Frank Neese                      #
                #                                                       #
                #     Directorship, Architecture, Infrastructure        #
                #                    SHARK, DRIVERS                     #
                #        Core code/Algorithms in most modules           #
                #                                                       #
                #        Max Planck Institute fuer Kohlenforschung      #
                #                Kaiser Wilhelm Platz 1                 #
                #                 D-45470 Muelheim/Ruhr                 #
                #                      Germany                          #
                #                                                       #
                #                  All rights reserved                  #
                #                        -***-                          #
                #########################################################


                         Program Version 6.0.0  -   RELEASE  -


 With contributions from (in alphabetic order):
   Daniel Aravena         : Magnetic Suceptibility
   Michael Atanasov       : Ab Initio Ligand Field Theory (pilot matlab implementation)
   Alexander A. Auer      : GIAO ZORA, VPT2 properties, NMR spectrum
   Ute Becker             : All parallelization in ORCA, NUMFREQ, NUMCALC
   Giovanni Bistoni       : ED, misc. LED, open-shell LED, HFLD
   Martin Brehm           : Molecular dynamics
   Dmytro Bykov           : pre 5.0 version of the SCF Hessian
   Marcos Casanova-Páez   : Triplet and SCS-CIS(D). UHF-(DLPNO)-IP/EA/STEOM-CCSD. UHF-CVS-IP/STEOM-CCSD
   Vijay G. Chilkuri      : MRCI spin determinant printing, contributions to CSF-ICE
   Pauline Colinet        : FMM embedding
   Dipayan Datta          : RHF DLPNO-CCSD density
   Achintya Kumar Dutta   : EOM-CC, STEOM-CC
   Nicolas Foglia         : Exact transition moments, OPA infrastructure, MCD improvements
   Dmitry Ganyushin       : Spin-Orbit,Spin-Spin,Magnetic field MRCI
   Miquel Garcia          : C-PCM and meta-GGA Hessian, CCSD/C-PCM, Gaussian charge scheme
   Tiago L. C. Gouveia    : GS-ROHF, GS-ROCIS
   Yang Guo               : DLPNO-NEVPT2, F12-NEVPT2, CIM, IAO-localization
   Andreas Hansen         : Spin unrestricted coupled pair/coupled cluster methods
   Ingolf Harden          : AUTO-CI MPn and infrastructure 
   Benjamin Helmich-Paris : MC-RPA, TRAH-(SCF,CASSCF), AVAS, COSX integrals, SCF dyn. polar.
   Lee Huntington         : MR-EOM, pCC
   Robert Izsak           : Overlap fitted RIJCOSX, COSX-SCS-MP3, EOM
   Riya Kayal             : Wick's Theorem for AUTO-CI, AUTO-CI UHF-CCSDT
   Emily Kempfer          : AUTO-CI, RHF CISDT and CCSDT
   Christian Kollmar      : KDIIS, OOCD, Brueckner-CCSD(T), CCSD density, CASPT2, CASPT2-K, improved NEVPT2
   Axel Koslowski         : Symmetry handling
   Simone Kossmann        : Meta GGA functionals, TD-DFT gradient, OOMP2, (MP2 Hessian; deprecated post 5.0)
   Lucas Lang             : DCDCAS
   Marvin Lechner         : AUTO-CI (C++ implementation), FIC-MRCC
   Spencer Leger          : CASSCF response
   Dagmar Lenk            : GEPOL surface, SMD, ORCA-2-JSON
   Dimitrios Liakos       : Extrapolation schemes; Compound Job, initial MDCI parallelization
   Dimitrios Manganas     : Further ROCIS development; embedding schemes. LFT, Crystal Embedding
   Dimitrios Pantazis     : SARC Basis sets
   Anastasios Papadopoulos: AUTO-CI, single reference methods and gradients
   Taras Petrenko         : pre 6.0 DFT Hessian and TD-DFT gradient, (ASA, deprecated), ECA, 1-Electron XAS/XES, NRVS
   Peter Pinski           : DLPNO-MP2, DLPNO-MP2 Gradient
   Christoph Reimann      : Effective Core Potentials
   Marius Retegan         : Local ZFS, SOC
   Christoph Riplinger    : Optimizer, TS searches, QM/MM, DLPNO-CCSD(T), (RO)-DLPNO pert. Triples
   Michael Roemelt        : Original ROCIS implementation
   Masaaki Saitow         : Open-shell DLPNO-CCSD energy and density
   Barbara Sandhoefer     : DKH picture change effects
   Kantharuban Sivalingam : CASSCF convergence/infrastructure, NEVPT2 and variants, FIC-MRCI
   Bernardo de Souza      : ESD, SOC TD-DFT
   Georgi Stoychev        : AutoAux, RI-MP2 NMR, DLPNO-MP2 response, X2C
   Van Anh Tran           : RI-MP2 g-tensors
   Willem Van den Heuvel  : Paramagnetic NMR
   Zikuan Wang            : NOTCH, Electric field optimization 
   Frank Wennmohs         : Technical directorship and infrastructure
   Hang Xu                : AUTO-CI-Response properties 


 We gratefully acknowledge several colleagues who have allowed us to
 interface, adapt or use parts of their codes:
   Stefan Grimme, W. Hujo, H. Kruse, P. Pracht,  : VdW corrections, initial TS optimization,
                  C. Bannwarth, S. Ehlert,         DFT functionals, gCP, sTDA/sTD-DF
                  L. Wittmann, M. Mueller
   Ed Valeev, F. Pavosevic, A. Kumar             : LibInt (2-el integral package), F12 methods
   Garnet Chan, S. Sharma, J. Yang, R. Olivares  : DMRG
   Ulf Ekstrom                                   : XCFun DFT Library
   Mihaly Kallay                                 : mrcc  (arbitrary order and MRCC methods)
   Frank Weinhold                                : gennbo (NPA and NBO analysis)
   Simon Mueller                                 : openCOSMO-RS
   Christopher J. Cramer and Donald G. Truhlar   : smd solvation model
   Lars Goerigk                                  : TD-DFT with DH, B97 family of functionals
   V. Asgeirsson, H. Jonsson                     : NEB implementation
   FAccTs GmbH                                   : IRC, NEB, NEB-TS, DLPNO-Multilevel, CI-OPT
                                                   MM, QMMM, 2- and 3-layer-ONIOM, Crystal-QMMM,
                                                   LR-CPCM, SF, NACMEs, symmetry and pop. for TD-DFT,
                                                   nearIR, NL-DFT gradient (VV10), updates on ESD,
                                                   ML-optimized integration grids, MBIS, APM,
                                                   GOAT, DOCKER, SOLVATOR, interface openCOSMO-RS
   S Lehtola, MJT Oliveira, MAL Marques          : LibXC Library
   Liviu Ungur et al                             : ANISO software


 Your calculation uses the libint2 library for the computation of 2-el integrals
 For citations please refer to: http://libint.valeyev.net

 Your ORCA version has been built with support for libXC version: 6.2.2
 For citations please refer to: https://libxc.gitlab.io

 This ORCA versions uses:
   CBLAS   interface :  Fast vector & matrix operations
   LAPACKE interface :  Fast linear algebra routines
   SCALAPACK package :  Parallel linear algebra routines
   Shared memory     :  Shared parallel matrices
   BLAS/LAPACK       :  OpenBLAS 0.3.27  USE64BITINT DYNAMIC_ARCH NO_AFFINITY SkylakeX SINGLE_THREADED
        Core in use  :  SkylakeX
   Copyright (c) 2011-2014, The OpenBLAS Project


Your calculation utilizes the geometrical counterpoise correction gCP
Please cite in your paper:
H.Kruse, S. Grimme J.Chem.Phys., 136, (2012), 154101 
   

Your calculation utilizes the atom-pairwise dispersion correction
based on EEQ partial charges (D4)


Your calculation utilizes the SMD solvation module
Please cite in your paper:
A.V. Marenich, C.J. Cramer, D.G. Truhlar J. Phys. Chem. B, 113, (2009), 6378 

================================================================================

----- Orbital basis set information -----
Your calculation utilizes the basis: def2-mTZVPP
   Stefan Grimme, Andreas Hansen, Sebastian Ehlert, and Jan-Michael Mewes 
   J. Chem. Phys. 154, 064103 (2021). DOI: 10.1063/5.0040021

----- AuxJ basis set information -----
Your calculation utilizes the auxiliary basis: def2/J
   F. Weigend, Phys. Chem. Chem. Phys. 8, 1057 (2006).

================================================================================
                                        WARNINGS
                       Please study these warnings very carefully!
================================================================================

Using LibXC functional ID 497 : Re-regularized SCAN exchange by Furness et al
[ 1]  J. W. Furness, A. D. Kaplan, J. Ning, J. P. Perdew, and J. Sun.,  J. Phys. Chem. Lett. 11, 8208-8215 (2020)
[ 2]  J. W. Furness, A. D. Kaplan, J. Ning, J. P. Perdew, and J. Sun.,  J. Phys. Chem. Lett. 11, 9248-9248 (2020)
Using LibXC functional ID 498 : Re-regularized SCAN correlation by Furness et al
[ 1]  J. W. Furness, A. D. Kaplan, J. Ning, J. P. Perdew, and J. Sun.,  J. Phys. Chem. Lett. 11, 8208-8215 (2020)
[ 2]  J. W. Furness, A. D. Kaplan, J. Ning, J. P. Perdew, and J. Sun.,  J. Phys. Chem. Lett. 11, 9248-9248 (2020)
Using LibXC functional ID 497 : Re-regularized SCAN exchange by Furness et al
[ 1]  J. W. Furness, A. D. Kaplan, J. Ning, J. P. Perdew, and J. Sun.,  J. Phys. Chem. Lett. 11, 8208-8215 (2020)
[ 2]  J. W. Furness, A. D. Kaplan, J. Ning, J. P. Perdew, and J. Sun.,  J. Phys. Chem. Lett. 11, 9248-9248 (2020)
Using LibXC functional ID 498 : Re-regularized SCAN correlation by Furness et al
[ 1]  J. W. Furness, A. D. Kaplan, J. Ning, J. P. Perdew, and J. Sun.,  J. Phys. Chem. Lett. 11, 8208-8215 (2020)
[ 2]  J. W. Furness, A. D. Kaplan, J. Ning, J. P. Perdew, and J. Sun.,  J. Phys. Chem. Lett. 11, 9248-9248 (2020)

================================================================================
                                       INPUT FILE
================================================================================
NAME = sp_solv.inp
|  1> ! r2scan-3c def2/J RI DEFGRID2 scfconv6 printgap
|  2> %output
|  3>     printlevel normal
|  4> end
|  5> %cpcm
|  6>     smd true
|  7>     smdsolvent "water"
|  8> end
|  9> * xyz 0 1
| 10> C -1.0426748463 -2.9162696821 -0.0001835745
| 11> C -1.0104148645 -1.4171758963 -1.12162e-05
| 12> C -2.1779527426 -0.7009441908 0.0001276423
| 13> C -2.1784075308 0.6995383777 0.0001388237
| 14> C -1.0113373839 1.4165202968 -1.67359e-05
| 15> C 0.2234100859 0.7116772341 -2.9862e-05
| 16> C 0.2238795439 -0.7115133893 6.374e-06
| 17> C 1.4649792171 -1.3849454639 7.60829e-05
| 18> C 2.6474068412 -0.6994761769 7.92723e-05
| 19> C 2.6469368403 0.7011737156 -9.0352e-06
| 20> C 1.464067172 1.3858966233 -4.72946e-05
| 21> C -1.0447483867 2.9155914072 -0.0001063041
| 22> H -2.0708451996 -3.2688049706 -0.0006311178
| 23> H -0.5423010447 -3.3125247862 -0.8825334332
| 24> H -0.543013759 -3.3127080831 0.8824920394
| 25> H -3.1260035854 -1.2201965928 0.0002178916
| 26> H -3.1268185397 1.2181297694 0.0002573555
| 27> H 1.4782984761 -2.4632888696 0.0001375163
| 28> H 3.5865812554 -1.2330400884 0.0001496158
| 29> H 3.585746477 1.2353838999 1.04272e-05
| 30> H 1.4767805372 2.4642495373 -3.23544e-05
| 31> H -0.5454791359 3.3123019848 0.8826792178
| 32> H -0.5444339599 3.3122487013 -0.8823133598
| 33> H -2.0731825511 3.2673812891 -0.000721862
| 34> *
| 35> 
| 36>                          ****END OF INPUT****
================================================================================

                       ****************************
                       * Single Point Calculation *
                       ****************************

---------------------------------
CARTESIAN COORDINATES (ANGSTROEM)
---------------------------------
  C     -1.042675   -2.916270   -0.000184
  C     -1.010415   -1.417176   -0.000011
  C     -2.177953   -0.700944    0.000128
  C     -2.178408    0.699538    0.000139
  C     -1.011337    1.416520   -0.000017
  C      0.223410    0.711677   -0.000030
  C      0.223880   -0.711513    0.000006
  C      1.464979   -1.384945    0.000076
  C      2.647407   -0.699476    0.000079
  C      2.646937    0.701174   -0.000009
  C      1.464067    1.385897   -0.000047
  C     -1.044748    2.915591   -0.000106
  H     -2.070845   -3.268805   -0.000631
  H     -0.542301   -3.312525   -0.882533
  H     -0.543014   -3.312708    0.882492
  H     -3.126004   -1.220197    0.000218
  H     -3.126819    1.218130    0.000257
  H      1.478298   -2.463289    0.000138
  H      3.586581   -1.233040    0.000150
  H      3.585746    1.235384    0.000010
  H      1.476781    2.464250   -0.000032
  H     -0.545479    3.312302    0.882679
  H     -0.544434    3.312249   -0.882313
  H     -2.073183    3.267381   -0.000722

----------------------------
CARTESIAN COORDINATES (A.U.)
----------------------------
  NO LB      ZA    FRAG     MASS         X           Y           Z
   0 C     6.0000    0    12.011   -1.970370   -5.510951   -0.000347
   1 C     6.0000    0    12.011   -1.909407   -2.678074   -0.000021
   2 C     6.0000    0    12.011   -4.115734   -1.324593    0.000241
   3 C     6.0000    0    12.011   -4.116594    1.321936    0.000262
   4 C     6.0000    0    12.011   -1.911151    2.676835   -0.000032
   5 C     6.0000    0    12.011    0.422184    1.344875   -0.000056
   6 C     6.0000    0    12.011    0.423071   -1.344565    0.000012
   7 C     6.0000    0    12.011    2.768410   -2.617168    0.000144
   8 C     6.0000    0    12.011    5.002874   -1.321818    0.000150
   9 C     6.0000    0    12.011    5.001986    1.325026   -0.000017
  10 C     6.0000    0    12.011    2.766686    2.618965   -0.000089
  11 C     6.0000    0    12.011   -1.974288    5.509669   -0.000201
  12 H     1.0000    0     1.008   -3.913330   -6.177146   -0.001193
  13 H     1.0000    0     1.008   -1.024800   -6.259765   -1.667746
  14 H     1.0000    0     1.008   -1.026147   -6.260111    1.667668
  15 H     1.0000    0     1.008   -5.907291   -2.305837    0.000412
  16 H     1.0000    0     1.008   -5.908831    2.301932    0.000486
  17 H     1.0000    0     1.008    2.793579   -4.654941    0.000260
  18 H     1.0000    0     1.008    6.777656   -2.330108    0.000283
  19 H     1.0000    0     1.008    6.776079    2.334537    0.000020
  20 H     1.0000    0     1.008    2.790711    4.656757   -0.000061
  21 H     1.0000    0     1.008   -1.030806    6.259344    1.668022
  22 H     1.0000    0     1.008   -1.028831    6.259243   -1.667331
  23 H     1.0000    0     1.008   -3.917747    6.174456   -0.001364

--------------------------------
INTERNAL COORDINATES (ANGSTROEM)
--------------------------------
 C      0   0   0     0.000000000000     0.00000000     0.00000000
 C      1   0   0     1.499440867376     0.00000000     0.00000000
 C      2   1   0     1.369719888168   120.29443898     0.00000000
 C      3   2   1     1.400482642388   121.54583968   180.00726328
 C      4   3   2     1.369713774590   121.54560784     0.00000000
 C      5   4   3     1.421761251894   118.71633894     0.00000000
 C      2   1   3     1.421774335365   120.98997208   180.00024945
 C      7   2   1     1.412033697465   121.75815893     0.00000000
 C      8   7   2     1.366749146576   121.41388641   179.99934640
 C      9   8   7     1.400649974140   120.08222335     0.00000000
 C     10   9   8     1.366757518354   120.08431258     0.00000000
 C      5   4   3     1.499443395786   120.28742864   179.99530555
 H      1   2   3     1.086929438988   110.15842480     0.02559260
 H      1   2   3     1.089005657470   110.73168669   119.97286537
 H      1   2   3     1.089009112599   110.73137607   240.07907101
 H      3   2   1     1.080936383725   119.76301554     0.00000000
 H      4   3   2     1.080935006093   118.68845613   180.00037686
 H      8   7   2     1.078425661347   119.19232227     0.00000000
 H      9   8   7     1.080156948268   120.29677063   179.99898932
 H     10   9   8     1.080159273140   119.62191783   179.99900553
 H     11  10   9     1.078427854337   119.38962252   179.99494005
 H     12   5   4     1.089017605390   110.72779616   119.91140819
 H     12   5   4     1.089009101777   110.72958961   240.00910565
 H     12   5   4     1.086937592700   110.16073415   359.96115403

---------------------------
INTERNAL COORDINATES (A.U.)
---------------------------
 C      0   0   0     0.000000000000     0.00000000     0.00000000
 C      1   0   0     2.833532593350     0.00000000     0.00000000
 C      2   1   0     2.588395468823   120.29443898     0.00000000
 C      3   2   1     2.646528649423   121.54583968   180.00726328
 C      4   3   2     2.588383915834   121.54560784     0.00000000
 C      5   4   3     2.686739393900   118.71633894     0.00000000
 C      2   1   3     2.686764118078   120.98997208   180.00024945
 C      7   2   1     2.668356980077   121.75815893     0.00000000
 C      8   7   2     2.582781580799   121.41388641   179.99934640
 C      9   8   7     2.646844860609   120.08222335     0.00000000
 C     10   9   8     2.582797401167   120.08431258     0.00000000
 C      5   4   3     2.833537371353   120.28742864   179.99530555
 H      1   2   3     2.053998966583   110.15842480     0.02559260
 H      1   2   3     2.057922450908   110.73168669   119.97286537
 H      1   2   3     2.057928980156   110.73137607   240.07907101
 H      3   2   1     2.042673733432   119.76301554     0.00000000
 H      4   3   2     2.042671130085   118.68845613   180.00037686
 H      8   7   2     2.037929155738   119.19232227     0.00000000
 H      9   8   7     2.041200813878   120.29677063   179.99898932
 H     10   9   8     2.041205207249   119.62191783   179.99900553
 H     11  10   9     2.037933299890   119.38962252   179.99494005
 H     12   5   4     2.057945029207   110.72779616   119.91140819
 H     12   5   4     2.057928959707   110.72958961   240.00910565
 H     12   5   4     2.054014374866   110.16073415   359.96115403

---------------------
BASIS SET INFORMATION
---------------------
There are 2 groups of distinct atoms

 Group   1 Type C   : 11s6p1d contracted to 5s3p1d pattern {62111/411/1}
 Group   2 Type H   : 4s1p contracted to 2s1p pattern {31/1}

Atom   0C    basis set group =>   1
Atom   1C    basis set group =>   1
Atom   2C    basis set group =>   1
Atom   3C    basis set group =>   1
Atom   4C    basis set group =>   1
Atom   5C    basis set group =>   1
Atom   6C    basis set group =>   1
Atom   7C    basis set group =>   1
Atom   8C    basis set group =>   1
Atom   9C    basis set group =>   1
Atom  10C    basis set group =>   1
Atom  11C    basis set group =>   1
Atom  12H    basis set group =>   2
Atom  13H    basis set group =>   2
Atom  14H    basis set group =>   2
Atom  15H    basis set group =>   2
Atom  16H    basis set group =>   2
Atom  17H    basis set group =>   2
Atom  18H    basis set group =>   2
Atom  19H    basis set group =>   2
Atom  20H    basis set group =>   2
Atom  21H    basis set group =>   2
Atom  22H    basis set group =>   2
Atom  23H    basis set group =>   2
---------------------------------
AUXILIARY/J BASIS SET INFORMATION
---------------------------------
There are 2 groups of distinct atoms

 Group   1 Type C   : 12s5p4d2f1g contracted to 6s4p3d1f1g pattern {711111/2111/211/2/1}
 Group   2 Type H   : 5s2p1d contracted to 3s1p1d pattern {311/2/1}

Atom   0C    basis set group =>   1
Atom   1C    basis set group =>   1
Atom   2C    basis set group =>   1
Atom   3C    basis set group =>   1
Atom   4C    basis set group =>   1
Atom   5C    basis set group =>   1
Atom   6C    basis set group =>   1
Atom   7C    basis set group =>   1
Atom   8C    basis set group =>   1
Atom   9C    basis set group =>   1
Atom  10C    basis set group =>   1
Atom  11C    basis set group =>   1
Atom  12H    basis set group =>   2
Atom  13H    basis set group =>   2
Atom  14H    basis set group =>   2
Atom  15H    basis set group =>   2
Atom  16H    basis set group =>   2
Atom  17H    basis set group =>   2
Atom  18H    basis set group =>   2
Atom  19H    basis set group =>   2
Atom  20H    basis set group =>   2
Atom  21H    basis set group =>   2
Atom  22H    basis set group =>   2
Atom  23H    basis set group =>   2

Checking for AutoStart:
The File: sp_solv.gbw exists
Trying to determine its content:
     ... Fine, the file contains calculation information
     ... Fine, the calculation information was read
     ... Fine, the file contains a basis set
     ... Fine, the basis set was read
     ... Fine, the file contains a geometry
     ... Fine, the geometry was read
     ... Fine, the file contains a set of orbitals
     ... Fine, the orbitals can be read
     => possible old guess file was deleted
     => GBW file was renamed to GES file
     => GES file is set as startup file
     => Guess is set to MORead
     ... now leaving AutoStart

------------------------------------------------------------------------------
                             ORCA STARTUP CALCULATIONS
                           -- RI-GTO INTEGRALS CHOSEN --
------------------------------------------------------------------------------
------------------------------------------------------------------------------
                   ___                                                        
                  /   \      - P O W E R E D   B Y -                         
                 /     \                                                     
                 |  |  |   _    _      __       _____    __    __             
                 |  |  |  | |  | |    /  \     |  _  \  |  |  /  |          
                  \  \/   | |  | |   /    \    | | | |  |  | /  /          
                 / \  \   | |__| |  /  /\  \   | |_| |  |  |/  /          
                |  |  |   |  __  | /  /__\  \  |    /   |      \           
                |  |  |   | |  | | |   __   |  |    \   |  |\   \          
                \     /   | |  | | |  |  |  |  | |\  \  |  | \   \       
                 \___/    |_|  |_| |__|  |__|  |_| \__\ |__|  \__/        
                                                                              
                      - O R C A' S   B I G   F R I E N D -                    
                                      &                                       
                       - I N T E G R A L  F E E D E R -                       
                                                                              
 v1 FN, 2020, v2 2021, v3 2022-2024                                           
------------------------------------------------------------------------------


----------------------
SHARK INTEGRAL PACKAGE
----------------------

Number of atoms                             ...     24
Number of basis functions                   ...    288
Number of shells                            ...    144
Maximum angular momentum                    ...      2
Integral batch strategy                     ... SHARK/LIBINT Hybrid
RI-J (if used) integral strategy            ... SPLIT-RIJ (Revised 2003 algorithm where possible)
Printlevel                                  ...      1
Contraction scheme used                     ... SEGMENTED contraction
Prescreening option                         ... SCHWARTZ
   Thresh                                   ... 1.000e-10
   Tcut                                     ... 1.000e-11
   Tpresel                                  ... 1.000e-11 
Coulomb Range Separation                    ... NOT USED
Exchange Range Separation                   ... NOT USED
Multipole approximations                    ... NOT USED
Finite Nucleus Model                        ... NOT USED
CABS basis                                  ... NOT available
Auxiliary Coulomb fitting basis             ... AVAILABLE
   # of basis functions in Aux-J            ...    720
   # of shells in Aux-J                     ...    240
   Maximum angular momentum in Aux-J        ...      4
Auxiliary J/K fitting basis                 ... NOT available
Auxiliary Correlation fitting basis         ... NOT available
Auxiliary 'external' fitting basis          ... NOT available

Checking pre-screening integrals            ... done (  0.0 sec) Dimension = 144
Check shell pair data                       ... done (  0.0 sec)
Shell pair information
Shell pair cut-off parameter TPreSel        ...   1.0e-11
Total number of shell pairs                 ...     10440
Shell pairs after pre-screening             ...      8894
Total number of primitive shell pairs       ...     38526
Primitive shell pairs kept                  ...     22308
          la=0 lb=0:   2966 shell pairs
          la=1 lb=0:   3476 shell pairs
          la=1 lb=1:   1045 shell pairs
          la=2 lb=0:    840 shell pairs
          la=2 lb=1:    498 shell pairs
          la=2 lb=2:     69 shell pairs

Calculating one electron integrals          ... done (  0.0 sec)
Calculating RI/J V-Matrix + Cholesky decomp.... done (  0.9 sec)
Calculating Nuclear repulsion               ... done (  0.0 sec) ENN=    647.874486655663 Eh

Diagonalization of the overlap matrix:
Smallest eigenvalue                        ... 1.028e-05
Time for diagonalization                   ...    0.007 sec
Threshold for overlap eigenvalues          ... 1.000e-07
Number of eigenvalues below threshold      ... 0
Time for construction of square roots      ...    0.019 sec
Total time needed                          ...    0.036 sec

-------------------
DFT GRID GENERATION
-------------------

General Integration Accuracy     IntAcc      ... 4.388
Radial Grid Type                 RadialGrid  ... OptM3 with GC (2021)
Angular Grid (max. ang.)         AngularGrid ... 4 (Lebedev-302)
Angular grid pruning method      GridPruning ... 4 (adaptive)
Weight generation scheme         WeightScheme... mBecke (2022)
Basis function cutoff            BFCut       ... 1.0000e-10
Integration weight cutoff        WCut        ... 1.0000e-14
Partially contracted basis set               ... off
Rotationally invariant grid construction     ... off
Angular grids for H and He will be reduced by one unit

Total number of grid points                  ...   109988
Total number of batches                      ...     1734
Average number of points per batch           ...       63
Average number of grid points per atom       ...     4583
Initializing property integral containers    ... done (  0.0 sec)

SHARK setup successfully completed in   2.4 seconds

Maximum memory used throughout the entire STARTUP-calculation: 50.6 MB
-------------------------------------------------------------------------------
                                 ORCA GUESS
                   Start orbitals & Density for SCF / CASSCF
-------------------------------------------------------------------------------

------------
SCF SETTINGS
------------
Hamiltonian:
 Density Functional     Method          .... DFT(GTOs)
  Functional kind                       .... Exchange
  Functional name                       .... Re-regularized SCAN exchange by Furness et al
  Functional family                     .... MGGA
  Functional refs                              
    [ 0] J. W. Furness, A. D. Kaplan, J. Ning, J. P. Perdew, and J. Sun.,  J. Phys. Chem. Lett. 11, 8208-8215 (2020), doi: 10.1021/acs.jpclett.0c02405
    [ 1] J. W. Furness, A. D. Kaplan, J. Ning, J. P. Perdew, and J. Sun.,  J. Phys. Chem. Lett. 11, 9248-9248 (2020), doi: 10.1021/acs.jpclett.0c03077
  Functional external parameters        .... 6
    Parameter  0 _c1        =  6.670000e-01 : c1 parameter        
    Parameter  1 _c2        =  8.000000e-01 : c2 parameter        
    Parameter  2 _d         =  1.240000e+00 : d parameter         
    Parameter  3 _k1        =  6.500000e-02 : k1 parameter        
    Parameter  4 _eta       =  1.000000e-03 : eta parameter       
    Parameter  5 _dp2       =  3.610000e-01 : dp2 parameter       
  Functional kind                       .... Correlation
  Functional name                       .... Re-regularized SCAN correlation by Furness et al
  Functional family                     .... MGGA
  Functional refs                              
    [ 0] J. W. Furness, A. D. Kaplan, J. Ning, J. P. Perdew, and J. Sun.,  J. Phys. Chem. Lett. 11, 8208-8215 (2020), doi: 10.1021/acs.jpclett.0c02405
    [ 1] J. W. Furness, A. D. Kaplan, J. Ning, J. P. Perdew, and J. Sun.,  J. Phys. Chem. Lett. 11, 9248-9248 (2020), doi: 10.1021/acs.jpclett.0c03077
  Functional external parameters        .... 1
    Parameter  0 _eta       =  1.000000e-03 : Regularization parameter
 Gradients option       PostSCFGGA      .... off
 RI-approximation to the Coulomb term is turned on
   Number of AuxJ basis functions       .... 720


General Settings:
 Integral files         IntName         .... sp_solv
 Hartree-Fock type      HFTyp           .... RHF
 Total Charge           Charge          ....    0
 Multiplicity           Mult            ....    1
 Number of Electrons    NEL             ....   84
 Basis Dimension        Dim             ....  288
 Nuclear Repulsion      ENuc            ....    647.8744866557 Eh

Convergence Acceleration:
 AO-DIIS                CNVDIIS         .... on
   Start iteration      DIISMaxIt       ....    12
   Startup error        DIISStart       ....  0.200000
   # of expansion vecs  DIISMaxEq       ....     5
   Bias factor          DIISBfac        ....   1.050
   Max. coefficient     DIISMaxC        ....  10.000
 MO-DIIS                CNVKDIIS        .... off
 Trust-Rad. Augm. Hess. CNVTRAH         .... auto
   Auto Start mean grad. ratio tolernc. ....  1.125000
   Auto Start start iteration           ....     1
   Auto Start num. interpolation iter.  ....    10
   Max. Number of Micro iterations      ....    24
   Max. Number of Macro iterations      .... Maxiter - #DIIS iter
   Number of Davidson start vectors     ....     2
   Converg. threshold    (grad. norm)   ....   3.330e-04
   Grad. Scal. Fac. for Micro threshold ....   0.100
   Minimum threshold for Micro iter.    ....   1.000e-02
   NR start threshold (gradient norm)   ....   1.000e-04
   Initial trust radius                 ....   0.400
   Minimum AH scaling param. (alpha)    ....   1.000
   Maximum AH scaling param. (alpha)    .... 1000.000
   Quad. conv. algorithm                .... NR
   White noise on init. David. guess    .... on
   Maximum white noise                  ....   0.010
   Pseudo random numbers                .... off
   Inactive MOs                         .... canonical
   Orbital update algorithm             .... Taylor
   Preconditioner                       .... Diag
   Full preconditioner red. dimension   ....   250
   COSX micro iterations for RIJONX calc.... off
 SOSCF                  CNVSOSCF        .... on
   Start iteration      SOSCFMaxIt      ....   150
   Startup grad/error   SOSCFStart      ....  0.003300
   Hessian update       SOSCFHessUp     .... L-BFGS
 Level Shifting         CNVShift        .... on
   Level shift para.    LevelShift      ....    0.2500
   Turn off err/grad.   ShiftErr        ....    0.0010
 Zerner damping         CNVZerner       .... off
 Static damping         CNVDamp         .... on
   Fraction old density DampFac         ....    0.7000
   Max. Damping (<1)    DampMax         ....    0.9800
   Min. Damping (>=0)   DampMin         ....    0.0000
   Turn off err/grad.   DampErr         ....    0.1000

SCF Procedure:
 Maximum # iterations   MaxIter         ....   125
 SCF integral mode      SCFMode         .... Direct
   Integral package                     .... SHARK and LIBINT hybrid scheme
 Reset frequency        DirectResetFreq ....    20
 Integral Threshold     Thresh          ....  1.000e-10 Eh
 Primitive CutOff       TCut            ....  1.000e-11 Eh

Convergence Tolerance:
 Convergence Check Mode ConvCheckMode   .... Total+1el-Energy
 Convergence forced     ConvForced      .... 0
 Energy Change          TolE            ....  1.000e-06 Eh
 1-El. energy change                    ....  1.000e-03 Eh
 Orbital Gradient       TolG            ....  3.330e-04
 Orbital Rotation angle TolX            ....  3.330e-04
 DIIS Error             TolErr          ....  1.000e-06

---------------------
INITIAL GUESS: MOREAD
---------------------
Guess MOs are being read from file: sp_solv.ges
Input Geometry matches current geometry (good)
Atom 0: N(Shells)= 9 and 6 - projection required
Input basis set needs projection
NBasis(read)= 192
NBasis(calc)= 288
Basis set overlap was calculated
Using GuessMode=FMatrix for the initial guess
C*T matrix was formed
Effective Fockian was calculated
Effective Fockian was diagonalized
Initial density was built
                      ------------------
                      INITIAL GUESS DONE (   0.0 sec)
                      ------------------
             **** ENERGY FILE WAS UPDATED (sp_solv.en.tmp) ****
Finished Guess after   0.3 sec
Maximum memory used throughout the entire GUESS-calculation: 23.2 MB

-------------------------------------------------------------------------------------------
                                      ORCA LEAN-SCF
                              memory conserving SCF solver
-------------------------------------------------------------------------------------------

--------------------
CPCM SOLVATION MODEL
--------------------
CPCM parameters:
  Epsilon                                         ...      78.3550
  Refrac                                          ...       1.3328
  Rsolv                                           ...       1.3000
  Surface type                                    ... GAUSSIAN VDW
  Discretization scheme                           ... Constant charge density
    Threshold for H atoms                         ...       5.0000 (charges/Ang^2)
    Threshold for non-H atoms                     ...       5.0000 (charges/Ang^2)
  Epsilon function type                           ...         CPCM
Solvent:                                          ... WATER
SMD-CDS solvent descriptors:
  Soln                                            ...       1.3328
  Soln25                                          ...       1.3323
  Sola                                            ...       0.0000
  Solb                                            ...       0.0000
  Solg                                            ...       0.0000
  Solc                                            ...       0.0000
  Solh                                            ...       0.0000
Radii:
  Scheme                                          ... Element-dependent radii
  Radius for C  used is    3.4960 Bohr (=   1.8500 Ang.)
  Radius for H  used is    2.2677 Bohr (=   1.2000 Ang.)
Calculating surface                               ...        done! (  0.0s)
Cavity surface points                             ...         1786
Cavity Volume                                     ...    1173.4864
Cavity Surface-area                               ...     686.7365
Calculating surface distance matrix               ...        done! (  0.0s)
Performing Cholesky decomposition & store         ...        done! (  0.1s)
Overall time for CPCM initialization              ...                 0.1s

----------------------------------------D-I-I-S--------------------------------------------
Iteration    Energy (Eh)           Delta-E    RMSDP     MaxDP     DIISErr   Damp  Time(sec)
-------------------------------------------------------------------------------------------
               ***  Starting incremental Fock matrix formation  ***
    1    -464.1842218689909032     0.00e+00  4.75e-02  1.80e+00  2.86e-01  0.700   5.1
    2    -464.2470302785023932    -6.28e-02  3.61e-02  1.34e+00  2.01e-01  0.700   4.4
                               ***Turning on AO-DIIS***
    3    -464.2914191431815425    -4.44e-02  2.58e-02  9.51e-01  1.41e-01  0.700   4.9
    4    -464.3225805798987267    -3.12e-02  1.82e-02  6.68e-01  9.84e-02  0.700   4.8
    5    -464.3444387424073057    -2.19e-02  4.24e-02  1.56e+00  6.89e-02  0.000   4.1
                              *** Initializing SOSCF ***
---------------------------------------S-O-S-C-F--------------------------------------
Iteration    Energy (Eh)           Delta-E    RMSDP     MaxDP     MaxGrad    Time(sec)
--------------------------------------------------------------------------------------
    6    -464.3956035880506761    -5.12e-02  1.32e-04  3.00e-03  2.37e-04     4.4
               *** Restarting incremental Fock matrix formation ***
    7    -464.3956053225566620    -1.73e-06  7.32e-05  1.49e-03  7.82e-05     4.8
                  *** Gradient check signals convergence ***

               *****************************************************
               *                     SUCCESS                       *
               *           SCF CONVERGED AFTER   7 CYCLES          *
               *****************************************************


SMD CDS free energy correction energy :                 4.04773     Kcal/mol
Total Energy after SMD CDS correction =              -464.389154861 Eh
             **** ENERGY FILE WAS UPDATED (sp_solv.en.tmp) ****

----------------
TOTAL SCF ENERGY
----------------

Total Energy       :       -464.38915486102195 Eh          -12636.67134 eV

Components:
Nuclear Repulsion  :        647.87448665566274 Eh           17629.56105 eV
Electronic Energy  :      -1112.25882870684336 Eh          -30266.10143 eV
One Electron Energy:      -1910.95342656763182 Eh          -51999.68635 eV
Two Electron Energy:        798.69459786078846 Eh           21733.58492 eV
CPCM Dielectric    :         -0.01126327137610 Eh              -0.30649 eV
SMD CDS (Gcds)     :          0.00645046153471 Eh               0.17553 eV

Virial components:
Potential Energy   :       -926.91485617089370 Eh          -25222.63553 eV
Kinetic Energy     :        462.52570130987181 Eh           12585.96419 eV
Virial Ratio       :          2.00402886487361

DFT components:
N(Alpha)           :       42.000060054014 electrons
N(Beta)            :       42.000060054014 electrons
N(Total)           :       84.000120108028 electrons
E(X)               :      -66.828621331361 Eh       
E(C)               :       -2.698219322893 Eh       
E(XC)              :      -69.526840654254 Eh       

CPCM Solvation Model Properties:
Surface-charge          :         -0.05203953042680
Corrected charge        :          0.00000000000000
Outlying charge corr.   :          0.00018797220385 Eh               0.00511 eV
Free-energy (cav+disp)  :          0.00645046153471 Eh               0.17553 eV

---------------
SCF CONVERGENCE
---------------

  Last Energy change         ...    1.7345e-06  Tolerance :   1.0000e-06
  Last MAX-Density change    ...    1.4910e-03  Tolerance :   1.0000e-05
  Last RMS-Density change    ...    7.3162e-05  Tolerance :   1.0000e-06
  Last DIIS Error            ...    2.3747e-04  Tolerance :   1.0000e-06
  Last Orbital Gradient      ...    7.8205e-05  Tolerance :   3.3300e-04
  Last Orbital Rotation      ...    2.9497e-04  Tolerance :   3.3300e-04


----------------
ORBITAL ENERGIES
----------------

  NO   OCC          E(Eh)            E(eV) 
   0   2.0000     -10.042576      -273.2724 
   1   2.0000     -10.042253      -273.2636 
   2   2.0000     -10.040395      -273.2130 
   3   2.0000     -10.040389      -273.2129 
   4   2.0000     -10.032765      -273.0054 
   5   2.0000     -10.032609      -273.0012 
   6   2.0000     -10.032212      -272.9904 
   7   2.0000     -10.031981      -272.9841 
   8   2.0000     -10.026586      -272.8373 
   9   2.0000     -10.026181      -272.8263 
  10   2.0000     -10.017893      -272.6007 
  11   2.0000     -10.017890      -272.6006 
  12   2.0000      -0.847538       -23.0627 
  13   2.0000      -0.794437       -21.6177 
  14   2.0000      -0.765636       -20.8340 
  15   2.0000      -0.709666       -19.3110 
  16   2.0000      -0.703753       -19.1501 
  17   2.0000      -0.683053       -18.5868 
  18   2.0000      -0.617956       -16.8154 
  19   2.0000      -0.588800       -16.0221 
  20   2.0000      -0.582133       -15.8407 
  21   2.0000      -0.532008       -14.4767 
  22   2.0000      -0.473840       -12.8938 
  23   2.0000      -0.473443       -12.8830 
  24   2.0000      -0.452091       -12.3020 
  25   2.0000      -0.420167       -11.4333 
  26   2.0000      -0.400656       -10.9024 
  27   2.0000      -0.398744       -10.8504 
  28   2.0000      -0.383539       -10.4366 
  29   2.0000      -0.381884       -10.3916 
  30   2.0000      -0.373667       -10.1680 
  31   2.0000      -0.359069        -9.7708 
  32   2.0000      -0.347699        -9.4614 
  33   2.0000      -0.346876        -9.4390 
  34   2.0000      -0.339699        -9.2437 
  35   2.0000      -0.329292        -8.9605 
  36   2.0000      -0.301856        -8.2139 
  37   2.0000      -0.296453        -8.0669 
  38   2.0000      -0.287879        -7.8336 
  39   2.0000      -0.255306        -6.9472 
  40   2.0000      -0.233019        -6.3408 
  41   2.0000      -0.196307        -5.3418 
  42   0.0000      -0.065706        -1.7879 
  43   0.0000      -0.037123        -1.0102 
  44   0.0000       0.007549         0.2054 
  45   0.0000       0.065028         1.7695 
  46   0.0000       0.086041         2.3413 
  47   0.0000       0.095413         2.5963 
  48   0.0000       0.102695         2.7945 
  49   0.0000       0.114210         3.1078 
  50   0.0000       0.126835         3.4514 
  51   0.0000       0.132425         3.6035 
  52   0.0000       0.154199         4.1960 
*Only the first 10 virtual orbitals were printed.

                    ********************************
                    * MULLIKEN POPULATION ANALYSIS *
                    ********************************

-----------------------
MULLIKEN ATOMIC CHARGES
-----------------------
   0 C :   -0.594609
   1 C :    0.093339
   2 C :   -0.254986
   3 C :   -0.254975
   4 C :    0.093308
   5 C :    0.165965
   6 C :    0.165951
   7 C :   -0.272250
   8 C :   -0.201520
   9 C :   -0.201508
  10 C :   -0.272283
  11 C :   -0.594579
  12 H :    0.170866
  13 H :    0.183535
  14 H :    0.183562
  15 H :    0.175302
  16 H :    0.175300
  17 H :    0.174462
  18 H :    0.176350
  19 H :    0.176349
  20 H :    0.174465
  21 H :    0.183571
  22 H :    0.183512
  23 H :    0.170872
Sum of atomic charges:   -0.0000000

--------------------------------
MULLIKEN REDUCED ORBITAL CHARGES
--------------------------------
  0 C s       :     3.427845  s :     3.427845
      pz      :     1.094809  p :     3.139573
      px      :     1.133854
      py      :     0.910910
      dz2     :     0.004968  d :     0.027191
      dxz     :     0.003928
      dyz     :     0.005900
      dx2y2   :     0.007535
      dxy     :     0.004859

  1 C s       :     3.126268  s :     3.126268
      pz      :     0.973432  p :     2.732697
      px      :     0.933793
      py      :     0.825472
      dz2     :     0.003456  d :     0.047696
      dxz     :     0.006819
      dyz     :     0.006540
      dx2y2   :     0.014855
      dxy     :     0.016026

  2 C s       :     3.226791  s :     3.226791
      pz      :     1.008098  p :     2.990276
      px      :     1.012546
      py      :     0.969631
      dz2     :     0.003186  d :     0.037920
      dxz     :     0.003447
      dyz     :     0.005982
      dx2y2   :     0.012419
      dxy     :     0.012886

  3 C s       :     3.226779  s :     3.226779
      pz      :     1.008103  p :     2.990276
      px      :     1.012607
      py      :     0.969566
      dz2     :     0.003186  d :     0.037920
      dxz     :     0.003444
      dyz     :     0.005985
      dx2y2   :     0.012423
      dxy     :     0.012882

  4 C s       :     3.126271  s :     3.126271
      pz      :     0.973427  p :     2.732724
      px      :     0.933777
      py      :     0.825521
      dz2     :     0.003456  d :     0.047697
      dxz     :     0.006818
      dyz     :     0.006541
      dx2y2   :     0.014857
      dxy     :     0.016025

  5 C s       :     3.248705  s :     3.248705
      pz      :     0.991130  p :     2.537985
      px      :     0.777925
      py      :     0.768930
      dz2     :     0.003647  d :     0.047345
      dxz     :     0.006882
      dyz     :     0.005843
      dx2y2   :     0.015965
      dxy     :     0.015009

  6 C s       :     3.248681  s :     3.248681
      pz      :     0.991131  p :     2.538024
      px      :     0.777945
      py      :     0.768948
      dz2     :     0.003647  d :     0.047344
      dxz     :     0.006882
      dyz     :     0.005843
      dx2y2   :     0.015965
      dxy     :     0.015008

  7 C s       :     3.278350  s :     3.278350
      pz      :     0.997820  p :     2.956515
      px      :     0.927536
      py      :     1.031159
      dz2     :     0.003177  d :     0.037385
      dxz     :     0.007009
      dyz     :     0.002195
      dx2y2   :     0.013505
      dxy     :     0.011498

  8 C s       :     3.242254  s :     3.242254
      pz      :     0.986686  p :     2.921261
      px      :     1.006021
      py      :     0.928554
      dz2     :     0.003161  d :     0.038004
      dxz     :     0.003624
      dyz     :     0.005716
      dx2y2   :     0.012622
      dxy     :     0.012883

  9 C s       :     3.242246  s :     3.242246
      pz      :     0.986688  p :     2.921258
      px      :     1.005963
      py      :     0.928607
      dz2     :     0.003161  d :     0.038004
      dxz     :     0.003626
      dyz     :     0.005713
      dx2y2   :     0.012619
      dxy     :     0.012885

 10 C s       :     3.278363  s :     3.278363
      pz      :     0.997820  p :     2.956536
      px      :     0.927552
      py      :     1.031164
      dz2     :     0.003177  d :     0.037385
      dxz     :     0.007010
      dyz     :     0.002194
      dx2y2   :     0.013504
      dxy     :     0.011500

 11 C s       :     3.427835  s :     3.427835
      pz      :     1.094811  p :     3.139553
      px      :     1.133827
      py      :     0.910915
      dz2     :     0.004968  d :     0.027191
      dxz     :     0.003924
      dyz     :     0.005905
      dx2y2   :     0.007539
      dxy     :     0.004856

 12 H s       :     0.810907  s :     0.810907
      pz      :     0.003653  p :     0.018227
      px      :     0.010364
      py      :     0.004210

 13 H s       :     0.798078  s :     0.798078
      pz      :     0.008513  p :     0.018387
      px      :     0.005268
      py      :     0.004606

 14 H s       :     0.798050  s :     0.798050
      pz      :     0.008517  p :     0.018387
      px      :     0.005263
      py      :     0.004607

 15 H s       :     0.805133  s :     0.805133
      pz      :     0.004079  p :     0.019565
      px      :     0.010222
      py      :     0.005264

 16 H s       :     0.805134  s :     0.805134
      pz      :     0.004079  p :     0.019565
      px      :     0.010227
      py      :     0.005259

 17 H s       :     0.805430  s :     0.805430
      pz      :     0.004105  p :     0.020107
      px      :     0.003204
      py      :     0.012799

 18 H s       :     0.804140  s :     0.804140
      pz      :     0.003988  p :     0.019510
      px      :     0.010151
      py      :     0.005371

 19 H s       :     0.804141  s :     0.804141
      pz      :     0.003988  p :     0.019510
      px      :     0.010145
      py      :     0.005377

 20 H s       :     0.805428  s :     0.805428
      pz      :     0.004105  p :     0.020107
      px      :     0.003203
      py      :     0.012798

 21 H s       :     0.798042  s :     0.798042
      pz      :     0.008518  p :     0.018387
      px      :     0.005260
      py      :     0.004609

 22 H s       :     0.798101  s :     0.798101
      pz      :     0.008512  p :     0.018387
      px      :     0.005267
      py      :     0.004608

 23 H s       :     0.810901  s :     0.810901
      pz      :     0.003652  p :     0.018226
      px      :     0.010368
      py      :     0.004206


------------------------
MULLIKEN OVERLAP CHARGES
------------------------
B(  0-C ,  1-C ) :   0.2315 B(  0-C ,  2-C ) :  -0.1604 B(  0-C ,  5-C ) :   0.0528 
B(  0-C ,  6-C ) :  -0.1041 B(  0-C , 12-H ) :   0.8363 B(  0-C , 13-H ) :   0.8515 
B(  0-C , 14-H ) :   0.8514 B(  1-C ,  2-C ) :   0.6719 B(  1-C ,  4-C ) :  -0.4144 
B(  1-C ,  5-C ) :  -0.1905 B(  1-C ,  6-C ) :   0.5216 B(  1-C ,  7-C ) :  -0.5597 
B(  1-C ,  8-C ) :   0.1010 B(  1-C , 10-C ) :   0.1875 B(  1-C , 12-H ) :  -0.1077 
B(  1-C , 13-H ) :  -0.0951 B(  1-C , 14-H ) :  -0.0949 B(  1-C , 15-H ) :  -0.0704 
B(  2-C ,  3-C ) :   0.5648 B(  2-C ,  5-C ) :  -0.3535 B(  2-C ,  6-C ) :   0.1454 
B(  2-C ,  7-C ) :   0.1029 B(  2-C , 15-H ) :   0.7962 B(  3-C ,  4-C ) :   0.6719 
B(  3-C ,  5-C ) :   0.1455 B(  3-C ,  6-C ) :  -0.3535 B(  3-C , 10-C ) :   0.1029 
B(  3-C , 11-C ) :  -0.1604 B(  3-C , 16-H ) :   0.7962 B(  4-C ,  5-C ) :   0.5214 
B(  4-C ,  6-C ) :  -0.1904 B(  4-C ,  7-C ) :   0.1875 B(  4-C ,  9-C ) :   0.1010 
B(  4-C , 10-C ) :  -0.5598 B(  4-C , 11-C ) :   0.2315 B(  4-C , 16-H ) :  -0.0704 
B(  4-C , 21-H ) :  -0.0950 B(  4-C , 22-H ) :  -0.0951 B(  4-C , 23-H ) :  -0.1077 
B(  5-C ,  6-C ) :   0.4846 B(  5-C ,  7-C ) :  -0.0998 B(  5-C ,  8-C ) :  -0.1329 
B(  5-C ,  9-C ) :  -0.0572 B(  5-C , 10-C ) :   0.7121 B(  5-C , 11-C ) :  -0.1040 
B(  5-C , 20-H ) :  -0.0607 B(  6-C ,  7-C ) :   0.7122 B(  6-C ,  8-C ) :  -0.0572 
B(  6-C ,  9-C ) :  -0.1328 B(  6-C , 10-C ) :  -0.0998 B(  6-C , 11-C ) :   0.0528 
B(  6-C , 17-H ) :  -0.0607 B(  7-C ,  8-C ) :   0.7216 B(  7-C , 10-C ) :  -0.3492 
B(  7-C , 17-H ) :   0.8281 B(  7-C , 18-H ) :  -0.0758 B(  8-C ,  9-C ) :   0.6927 
B(  8-C , 17-H ) :  -0.0830 B(  8-C , 18-H ) :   0.8409 B(  8-C , 19-H ) :  -0.0818 
B(  9-C , 10-C ) :   0.7216 B(  9-C , 18-H ) :  -0.0818 B(  9-C , 19-H ) :   0.8409 
B(  9-C , 20-H ) :  -0.0830 B( 10-C , 19-H ) :  -0.0758 B( 10-C , 20-H ) :   0.8281 
B( 11-C , 21-H ) :   0.8515 B( 11-C , 22-H ) :   0.8515 B( 11-C , 23-H ) :   0.8363 
B( 13-H , 14-H ) :  -0.0553 B( 21-H , 22-H ) :  -0.0553 


                     *******************************
                     * LOEWDIN POPULATION ANALYSIS *
                     *******************************

----------------------
LOEWDIN ATOMIC CHARGES
----------------------
   0 C :   -0.393958
   1 C :   -0.090366
   2 C :   -0.173919
   3 C :   -0.173921
   4 C :   -0.090365
   5 C :   -0.063280
   6 C :   -0.063278
   7 C :   -0.152501
   8 C :   -0.172881
   9 C :   -0.172883
  10 C :   -0.152501
  11 C :   -0.393954
  12 H :    0.166428
  13 H :    0.170048
  14 H :    0.170053
  15 H :    0.178751
  16 H :    0.178751
  17 H :    0.183604
  18 H :    0.178018
  19 H :    0.178017
  20 H :    0.183604
  21 H :    0.170054
  22 H :    0.170044
  23 H :    0.166434

-------------------------------
LOEWDIN REDUCED ORBITAL CHARGES
-------------------------------
  0 C s       :     2.952400  s :     2.952400
      pz      :     1.157406  p :     3.378476
      px      :     1.164493
      py      :     1.056577
      dz2     :     0.011946  d :     0.063082
      dxz     :     0.009846
      dyz     :     0.012970
      dx2y2   :     0.017644
      dxy     :     0.010675

  1 C s       :     2.863821  s :     2.863821
      pz      :     0.961954  p :     3.128118
      px      :     1.096324
      py      :     1.069840
      dz2     :     0.006359  d :     0.098427
      dxz     :     0.012253
      dyz     :     0.010539
      dx2y2   :     0.033818
      dxy     :     0.035457

  2 C s       :     2.898262  s :     2.898262
      pz      :     0.998086  p :     3.192564
      px      :     1.101454
      py      :     1.093024
      dz2     :     0.005538  d :     0.083092
      dxz     :     0.005819
      dyz     :     0.010970
      dx2y2   :     0.029579
      dxy     :     0.031186

  3 C s       :     2.898259  s :     2.898259
      pz      :     0.998089  p :     3.192568
      px      :     1.101464
      py      :     1.093015
      dz2     :     0.005538  d :     0.083093
      dxz     :     0.005814
      dyz     :     0.010976
      dx2y2   :     0.029589
      dxy     :     0.031177

  4 C s       :     2.863817  s :     2.863817
      pz      :     0.961950  p :     3.128120
      px      :     1.096306
      py      :     1.069864
      dz2     :     0.006359  d :     0.098428
      dxz     :     0.012252
      dyz     :     0.010542
      dx2y2   :     0.033821
      dxy     :     0.035455

  5 C s       :     2.842392  s :     2.842392
      pz      :     0.983310  p :     3.121305
      px      :     1.067664
      py      :     1.070330
      dz2     :     0.006757  d :     0.099583
      dxz     :     0.011902
      dyz     :     0.010365
      dx2y2   :     0.035822
      dxy     :     0.034738

  6 C s       :     2.842398  s :     2.842398
      pz      :     0.983309  p :     3.121299
      px      :     1.067671
      py      :     1.070320
      dz2     :     0.006756  d :     0.099580
      dxz     :     0.011901
      dyz     :     0.010365
      dx2y2   :     0.035822
      dxy     :     0.034736

  7 C s       :     2.895620  s :     2.895620
      pz      :     0.982635  p :     3.175471
      px      :     1.082530
      py      :     1.110306
      dz2     :     0.005425  d :     0.081410
      dxz     :     0.012845
      dyz     :     0.003198
      dx2y2   :     0.032663
      dxy     :     0.027278

  8 C s       :     2.905826  s :     2.905826
      pz      :     0.976576  p :     3.184211
      px      :     1.110152
      py      :     1.097483
      dz2     :     0.005412  d :     0.082844
      dxz     :     0.005984
      dyz     :     0.010383
      dx2y2   :     0.029985
      dxy     :     0.031080

  9 C s       :     2.905828  s :     2.905828
      pz      :     0.976578  p :     3.184211
      px      :     1.110149
      py      :     1.097484
      dz2     :     0.005412  d :     0.082843
      dxz     :     0.005989
      dyz     :     0.010377
      dx2y2   :     0.029977
      dxy     :     0.031088

 10 C s       :     2.895620  s :     2.895620
      pz      :     0.982635  p :     3.175471
      px      :     1.082547
      py      :     1.110289
      dz2     :     0.005425  d :     0.081410
      dxz     :     0.012846
      dyz     :     0.003197
      dx2y2   :     0.032661
      dxy     :     0.027281

 11 C s       :     2.952406  s :     2.952406
      pz      :     1.157409  p :     3.378466
      px      :     1.164473
      py      :     1.056585
      dz2     :     0.011945  d :     0.063081
      dxz     :     0.009835
      dyz     :     0.012981
      dx2y2   :     0.017655
      dxy     :     0.010665

 12 H s       :     0.789807  s :     0.789807
      pz      :     0.008087  p :     0.043765
      px      :     0.026254
      py      :     0.009423

 13 H s       :     0.785722  s :     0.785722
      pz      :     0.021416  p :     0.044230
      px      :     0.012429
      py      :     0.010385

 14 H s       :     0.785717  s :     0.785717
      pz      :     0.021426  p :     0.044230
      px      :     0.012417
      py      :     0.010388

 15 H s       :     0.775752  s :     0.775752
      pz      :     0.009221  p :     0.045498
      px      :     0.024130
      py      :     0.012147

 16 H s       :     0.775751  s :     0.775751
      pz      :     0.009221  p :     0.045498
      px      :     0.024143
      py      :     0.012134

 17 H s       :     0.769684  s :     0.769684
      pz      :     0.009288  p :     0.046712
      px      :     0.007074
      py      :     0.030349

 18 H s       :     0.776475  s :     0.776475
      pz      :     0.008860  p :     0.045507
      px      :     0.024013
      py      :     0.012634

 19 H s       :     0.776476  s :     0.776476
      pz      :     0.008861  p :     0.045507
      px      :     0.023999
      py      :     0.012647

 20 H s       :     0.769685  s :     0.769685
      pz      :     0.009288  p :     0.046711
      px      :     0.007074
      py      :     0.030349

 21 H s       :     0.785717  s :     0.785717
      pz      :     0.021428  p :     0.044229
      px      :     0.012409
      py      :     0.010392

 22 H s       :     0.785726  s :     0.785726
      pz      :     0.021412  p :     0.044230
      px      :     0.012428
      py      :     0.010390

 23 H s       :     0.789802  s :     0.789802
      pz      :     0.008086  p :     0.043764
      px      :     0.026264
      py      :     0.009414


---------------------------------
LOEWDIN BOND ORDERS (THRESH 0.050000)
---------------------------------
B(  0-C ,  1-C ) :   1.1093 B(  0-C ,  2-C ) :   0.0941 B(  0-C ,  6-C ) :   0.0764 
B(  0-C , 12-H ) :   0.9133 B(  0-C , 13-H ) :   0.9066 B(  0-C , 14-H ) :   0.9066 
B(  1-C ,  2-C ) :   1.5532 B(  1-C ,  3-C ) :   0.0905 B(  1-C ,  4-C ) :   0.1218 
B(  1-C ,  5-C ) :   0.0785 B(  1-C ,  6-C ) :   1.2549 B(  1-C ,  7-C ) :   0.0844 
B(  1-C , 15-H ) :   0.0551 B(  2-C ,  3-C ) :   1.3891 B(  2-C ,  4-C ) :   0.0905 
B(  2-C ,  5-C ) :   0.0776 B(  2-C ,  6-C ) :   0.0873 B(  2-C , 15-H ) :   0.8615 
B(  2-C , 16-H ) :   0.0525 B(  3-C ,  4-C ) :   1.5532 B(  3-C ,  5-C ) :   0.0873 
B(  3-C ,  6-C ) :   0.0776 B(  3-C , 11-C ) :   0.0942 B(  3-C , 15-H ) :   0.0525 
B(  3-C , 16-H ) :   0.8615 B(  4-C ,  5-C ) :   1.2549 B(  4-C ,  6-C ) :   0.0785 
B(  4-C , 10-C ) :   0.0844 B(  4-C , 11-C ) :   1.1093 B(  4-C , 16-H ) :   0.0551 
B(  5-C ,  6-C ) :   1.2468 B(  5-C ,  7-C ) :   0.0776 B(  5-C ,  8-C ) :   0.0857 
B(  5-C ,  9-C ) :   0.0883 B(  5-C , 10-C ) :   1.3180 B(  5-C , 11-C ) :   0.0764 
B(  6-C ,  7-C ) :   1.3180 B(  6-C ,  8-C ) :   0.0883 B(  6-C ,  9-C ) :   0.0858 
B(  6-C , 10-C ) :   0.0776 B(  7-C ,  8-C ) :   1.6118 B(  7-C ,  9-C ) :   0.0892 
B(  7-C , 10-C ) :   0.1336 B(  7-C , 17-H ) :   0.8543 B(  7-C , 18-H ) :   0.0575 
B(  8-C ,  9-C ) :   1.3995 B(  8-C , 10-C ) :   0.0892 B(  8-C , 17-H ) :   0.0557 
B(  8-C , 18-H ) :   0.8689 B(  8-C , 19-H ) :   0.0518 B(  9-C , 10-C ) :   1.6118 
B(  9-C , 18-H ) :   0.0518 B(  9-C , 19-H ) :   0.8689 B(  9-C , 20-H ) :   0.0557 
B( 10-C , 19-H ) :   0.0575 B( 10-C , 20-H ) :   0.8543 B( 11-C , 21-H ) :   0.9066 
B( 11-C , 22-H ) :   0.9066 B( 11-C , 23-H ) :   0.9133 

------------------------------------------
LOEWDIN REDUCED ORBITAL POPULATIONS PER MO
-------------------------------------------
THRESHOLD FOR PRINTING IS 0.1%%
                      0         1         2         3         4         5   
                 -10.04258 -10.04225 -10.04040 -10.04039 -10.03277 -10.03261
                   2.00000   2.00000   2.00000   2.00000   2.00000   2.00000
                  --------  --------  --------  --------  --------  --------
 1 C  s               0.3       0.4      55.2      43.6       0.0       0.0
 4 C  s               0.3       0.4      43.5      55.3       0.0       0.0
 5 C  s              49.6      49.3       0.4       0.3       0.0       0.0
 6 C  s              49.3      49.5       0.5       0.2       0.0       0.0
 7 C  s               0.0       0.0       0.0       0.0      19.6      36.5
 8 C  s               0.0       0.0       0.0       0.0      30.4      13.0
 9 C  s               0.0       0.0       0.0       0.0      30.2      13.2
10 C  s               0.0       0.0       0.0       0.0      19.4      36.8

                      6         7         8         9        10        11   
                 -10.03221 -10.03198 -10.02659 -10.02618 -10.01789 -10.01789
                   2.00000   2.00000   2.00000   2.00000   2.00000   2.00000
                  --------  --------  --------  --------  --------  --------
 0 C  s               0.0       0.0       0.0       0.0      17.2      82.5
 2 C  s               0.0       0.0      49.9      49.6       0.0       0.0
 3 C  s               0.0       0.0      49.6      50.0       0.0       0.0
 7 C  s              30.4      13.1       0.0       0.0       0.0       0.0
 8 C  s              19.6      36.6       0.0       0.0       0.0       0.0
 9 C  s              19.4      36.8       0.0       0.0       0.0       0.0
10 C  s              30.2      13.2       0.0       0.0       0.0       0.0
11 C  s               0.0       0.0       0.0       0.0      82.5      17.2

                     12        13        14        15        16        17   
                  -0.84754  -0.79444  -0.76564  -0.70967  -0.70375  -0.68305
                   2.00000   2.00000   2.00000   2.00000   2.00000   2.00000
                  --------  --------  --------  --------  --------  --------
 0 C  s               1.3       1.2       7.3       0.0       3.4      17.9
 0 C  px              0.0       0.1       0.0       0.2       0.1       0.0
 0 C  py              0.9       0.5       1.5       0.0       0.1       0.1
 1 C  s               7.9       5.0      12.7       0.0       2.1       1.4
 1 C  px              0.3       1.5       0.1       6.6       1.6       0.0
 1 C  py              1.1       0.3       0.7       0.0       0.6       9.5
 1 C  dz2             0.1       0.1       0.1       0.0       0.0       0.0
 1 C  dxy             0.0       0.0       0.0       0.2       0.0       0.0
 2 C  s               5.1       8.9       2.2       9.8       1.1       2.0
 2 C  px              1.4       0.6       1.2       0.4       0.2       0.1
 2 C  py              0.2       0.4       3.0       1.3       1.3       2.5
 3 C  s               5.1       8.9       2.2       9.8       1.1       2.0
 3 C  px              1.4       0.6       1.2       0.4       0.2       0.1
 3 C  py              0.2       0.4       3.0       1.3       1.3       2.5
 4 C  s               7.9       5.0      12.7       0.0       2.1       1.4
 4 C  px              0.3       1.5       0.1       6.6       1.6       0.0
 4 C  py              1.1       0.3       0.7       0.0       0.6       9.5
 4 C  dz2             0.1       0.1       0.1       0.0       0.0       0.0
 4 C  dxy             0.0       0.0       0.0       0.2       0.0       0.0
 5 C  s              14.4       0.1       4.5       8.6       1.4       1.2
 5 C  px              0.0       6.3       0.3       0.0       3.6       0.0
 5 C  py              0.5       0.0       5.5       0.8       1.2       2.1
 5 C  dz2             0.2       0.0       0.0       0.1       0.0       0.0
 5 C  dxy             0.0       0.0       0.0       0.0       0.1       0.0
 6 C  s              14.4       0.1       4.5       8.6       1.4       1.2
 6 C  px              0.0       6.3       0.3       0.0       3.6       0.0
 6 C  py              0.5       0.0       5.5       0.8       1.2       2.1
 6 C  dz2             0.2       0.0       0.0       0.1       0.0       0.0
 6 C  dxy             0.0       0.0       0.0       0.0       0.1       0.0
 7 C  s               6.7       5.6       4.0       0.0      14.6       0.0
 7 C  px              0.4       1.5       0.6       6.6       0.4       0.2
 7 C  py              1.5       1.2       0.1       0.0       0.2       0.2
 7 C  dxy             0.0       0.0       0.0       0.2       0.0       0.0
 8 C  s               4.4      11.4       0.5       9.4       4.9       0.5
 8 C  px              1.2       0.8       0.4       0.4       1.7       0.1
 8 C  py              0.2       0.8       0.7       1.3       5.0       0.0
 8 C  dz2             0.0       0.1       0.0       0.1       0.0       0.0
 8 C  dx2y2           0.0       0.0       0.0       0.1       0.1       0.0
 8 C  dxy             0.0       0.0       0.0       0.0       0.1       0.0
 9 C  s               4.4      11.4       0.5       9.4       4.9       0.5
 9 C  px              1.2       0.8       0.4       0.4       1.7       0.1
 9 C  py              0.2       0.8       0.7       1.3       5.0       0.0
 9 C  dz2             0.0       0.1       0.0       0.1       0.0       0.0
 9 C  dx2y2           0.0       0.0       0.0       0.1       0.1       0.0
 9 C  dxy             0.0       0.0       0.0       0.0       0.1       0.0
10 C  s               6.7       5.6       4.0       0.0      14.6       0.0
10 C  px              0.4       1.5       0.6       6.6       0.4       0.2
10 C  py              1.5       1.2       0.1       0.0       0.2       0.2
10 C  dxy             0.0       0.0       0.0       0.2       0.0       0.0
11 C  s               1.3       1.2       7.3       0.0       3.4      17.9
11 C  px              0.0       0.1       0.0       0.2       0.1       0.0
11 C  py              0.9       0.5       1.5       0.0       0.1       0.1
12 H  s               0.1       0.2       1.0       0.0       0.7       3.5
12 H  px              0.0       0.0       0.1       0.0       0.1       0.3
13 H  s               0.1       0.1       1.0       0.0       0.5       3.6
13 H  pz              0.0       0.0       0.1       0.0       0.0       0.2
14 H  s               0.1       0.1       1.0       0.0       0.5       3.6
14 H  pz              0.0       0.0       0.1       0.0       0.0       0.2
15 H  s               0.4       0.9       0.3       1.7       0.2       0.2
15 H  px              0.0       0.1       0.0       0.1       0.0       0.0
16 H  s               0.4       0.9       0.3       1.7       0.2       0.2
16 H  px              0.0       0.1       0.0       0.1       0.0       0.0
17 H  s               0.6       0.5       0.7       0.0       2.5       0.1
17 H  py              0.0       0.0       0.1       0.0       0.2       0.0
18 H  s               0.4       1.2       0.1       1.7       0.9       0.1
18 H  px              0.0       0.1       0.0       0.1       0.1       0.0
19 H  s               0.4       1.2       0.1       1.7       0.9       0.1
19 H  px              0.0       0.1       0.0       0.1       0.1       0.0
20 H  s               0.6       0.5       0.7       0.0       2.5       0.1
20 H  py              0.0       0.0       0.1       0.0       0.2       0.0
21 H  s               0.1       0.1       1.0       0.0       0.5       3.6
21 H  pz              0.0       0.0       0.1       0.0       0.0       0.2
22 H  s               0.1       0.1       1.0       0.0       0.5       3.6
22 H  pz              0.0       0.0       0.1       0.0       0.0       0.2
23 H  s               0.1       0.2       1.0       0.0       0.7       3.5
23 H  px              0.0       0.0       0.1       0.0       0.1       0.3

                     18        19        20        21        22        23   
                  -0.61796  -0.58880  -0.58213  -0.53201  -0.47384  -0.47344
                   2.00000   2.00000   2.00000   2.00000   2.00000   2.00000
                  --------  --------  --------  --------  --------  --------
 0 C  s              12.7       0.3       0.0       2.0       0.3       0.0
 0 C  px              0.0       0.0       0.9       0.4       2.3       0.6
 0 C  py              2.2       0.3       0.0       2.6       2.6       1.0
 1 C  s               3.0       1.7       0.0       2.9       1.7       2.6
 1 C  px              0.1       0.9      10.0       0.3       6.1       3.7
 1 C  py              6.9       0.8       0.0       0.1       0.4       0.1
 1 C  dx2y2           0.2       0.0       0.0       0.0       0.0       0.0
 1 C  dxy             0.0       0.1       0.1       0.0       0.0       0.0
 2 C  s               3.2       2.8       4.6       0.4       0.2       2.2
 2 C  px              0.6       4.1       0.1       3.4       3.4       2.7
 2 C  py              1.9       0.9       3.8       0.8       8.4       1.9
 2 C  dx2y2           0.1       0.1       0.0       0.0       0.0       0.0
 3 C  s               3.2       2.8       4.6       0.4       0.2       2.2
 3 C  px              0.6       4.1       0.1       3.4       3.4       2.7
 3 C  py              1.9       0.9       3.8       0.8       8.4       1.9
 3 C  dx2y2           0.1       0.1       0.0       0.0       0.0       0.0
 4 C  s               3.0       1.7       0.0       2.9       1.7       2.6
 4 C  px              0.1       0.9      10.0       0.3       6.1       3.7
 4 C  py              6.9       0.8       0.0       0.1       0.4       0.1
 4 C  dx2y2           0.2       0.0       0.0       0.0       0.0       0.0
 4 C  dxy             0.0       0.1       0.1       0.0       0.0       0.0
 5 C  s               1.6       0.3       4.1       1.3       0.7       0.0
 5 C  px              1.0       8.3       0.0       2.0       1.2       6.6
 5 C  py              0.7       1.2       3.1       9.6       0.2       0.0
 5 C  dx2y2           0.1       0.0       0.0       0.1       0.1       0.0
 5 C  dxy             0.0       0.1       0.0       0.0       0.0       0.6
 6 C  s               1.6       0.3       4.1       1.3       0.7       0.0
 6 C  px              1.0       8.3       0.0       2.0       1.1       6.7
 6 C  py              0.7       1.2       3.1       9.6       0.2       0.0
 6 C  dx2y2           0.1       0.0       0.0       0.1       0.1       0.0
 6 C  dxy             0.0       0.1       0.0       0.0       0.0       0.6
 7 C  s               0.1       6.4       0.1       2.9       0.1       2.7
 7 C  px              1.0       0.7       9.3       0.6       0.6       3.7
 7 C  py              0.1       0.8       0.0       7.3       4.5       0.5
 7 C  dx2y2           0.0       0.0       0.0       0.0       0.0       0.1
 7 C  dxy             0.0       0.0       0.1       0.0       0.0       0.1
 8 C  s               0.5       3.5       4.6       0.1       0.4       3.5
 8 C  px              0.0       5.6       0.1       0.0       9.1       2.7
 8 C  py              0.5       4.0       3.7       3.9       0.4       2.3
 8 C  dx2y2           0.0       0.1       0.0       0.0       0.0       0.0
 9 C  s               0.5       3.5       4.6       0.1       0.4       3.5
 9 C  px              0.0       5.6       0.1       0.0       9.1       2.7
 9 C  py              0.5       4.0       3.7       3.9       0.4       2.3
 9 C  dx2y2           0.0       0.1       0.0       0.0       0.0       0.0
10 C  s               0.1       6.4       0.1       2.9       0.1       2.7
10 C  px              1.0       0.7       9.3       0.6       0.5       3.7
10 C  py              0.1       0.8       0.0       7.3       4.5       0.5
10 C  dx2y2           0.0       0.0       0.0       0.0       0.0       0.1
10 C  dxy             0.0       0.0       0.1       0.0       0.0       0.1
11 C  s              12.7       0.3       0.0       2.0       0.3       0.0
11 C  px              0.0       0.0       0.9       0.4       2.3       0.6
11 C  py              2.2       0.3       0.0       2.6       2.6       1.0
12 H  s               3.5       0.1       0.1       1.5       0.0       0.5
12 H  px              0.3       0.0       0.0       0.1       0.0       0.0
13 H  s               3.8       0.1       0.1       0.8       1.0       0.0
13 H  pz              0.2       0.0       0.0       0.0       0.1       0.0
14 H  s               3.8       0.1       0.1       0.8       1.0       0.0
14 H  pz              0.2       0.0       0.0       0.0       0.1       0.0
15 H  s               0.7       1.8       2.2       0.8       0.1       4.1
15 H  px              0.1       0.1       0.2       0.0       0.0       0.2
16 H  s               0.7       1.8       2.2       0.8       0.1       4.1
16 H  px              0.1       0.1       0.2       0.0       0.0       0.2
17 H  s               0.1       2.6       0.0       4.4       1.3       1.7
17 H  py              0.0       0.2       0.0       0.3       0.0       0.1
18 H  s               0.2       1.8       2.2       0.2       3.3       5.2
18 H  px              0.0       0.1       0.2       0.0       0.1       0.2
19 H  s               0.2       1.8       2.2       0.2       3.3       5.2
19 H  px              0.0       0.1       0.2       0.0       0.1       0.2
20 H  s               0.1       2.6       0.0       4.4       1.3       1.7
20 H  py              0.0       0.2       0.0       0.3       0.0       0.1
21 H  s               3.8       0.1       0.1       0.8       1.0       0.0
21 H  pz              0.2       0.0       0.0       0.0       0.1       0.0
22 H  s               3.8       0.1       0.1       0.8       1.0       0.0
22 H  pz              0.2       0.0       0.0       0.0       0.1       0.0
23 H  s               3.5       0.1       0.1       1.5       0.0       0.5
23 H  px              0.3       0.0       0.0       0.1       0.0       0.0

                     24        25        26        27        28        29   
                  -0.45209  -0.42017  -0.40066  -0.39874  -0.38354  -0.38188
                   2.00000   2.00000   2.00000   2.00000   2.00000   2.00000
                  --------  --------  --------  --------  --------  --------
 0 C  s               0.7       0.0       0.1       0.0       0.0       0.0
 0 C  pz              0.0       0.0       0.0      15.1       0.0      26.1
 0 C  px              0.1       4.6       3.7       0.0       1.1       0.0
 0 C  py              5.9       0.1       0.8       0.0       1.0       0.0
 0 C  dxz             0.0       0.0       0.0       0.1       0.0       0.2
 1 C  s               0.7       0.0       0.2       0.0       0.2       0.0
 1 C  pz              0.0       0.0       0.0      10.1       0.0       6.1
 1 C  px              0.8       2.5       0.1       0.0       4.7       0.0
 1 C  py              4.2       0.1       0.1       0.0       0.6       0.0
 1 C  dx2y2           0.1       0.0       0.0       0.0       0.0       0.0
 1 C  dxy             0.0       0.1       0.0       0.0       0.2       0.0
 2 C  s               0.2       0.1       0.0       0.0       0.3       0.0
 2 C  pz              0.0       0.0       0.0       4.0       0.0       0.5
 2 C  px              7.0       1.1       0.2       0.0       9.0       0.0
 2 C  py              2.2       8.6       0.0       0.0       0.2       0.0
 3 C  s               0.2       0.1       0.0       0.0       0.3       0.0
 3 C  pz              0.0       0.0       0.0       4.0       0.0       0.5
 3 C  px              7.0       1.1       0.2       0.0       9.1       0.0
 3 C  py              2.2       8.6       0.0       0.0       0.2       0.0
 4 C  s               0.7       0.0       0.2       0.0       0.2       0.0
 4 C  pz              0.0       0.0       0.0      10.1       0.0       6.1
 4 C  px              0.8       2.5       0.1       0.0       4.7       0.0
 4 C  py              4.2       0.1       0.1       0.0       0.6       0.0
 4 C  dx2y2           0.1       0.0       0.0       0.0       0.0       0.0
 4 C  dxy             0.0       0.1       0.0       0.0       0.2       0.0
 5 C  s               0.2       0.9       2.2       0.0       0.0       0.0
 5 C  pz              0.0       0.0       0.0       8.4       0.0       0.9
 5 C  px              1.1       0.1       1.7       0.0       7.5       0.0
 5 C  py              5.7       6.5       0.3       0.0       0.9       0.0
 5 C  dx2y2           0.0       0.2       0.3       0.0       0.0       0.0
 5 C  dxy             0.0       0.0       0.0       0.0       0.1       0.0
 6 C  s               0.2       0.9       2.2       0.0       0.0       0.0
 6 C  pz              0.0       0.0       0.0       8.4       0.0       0.9
 6 C  px              1.2       0.1       1.7       0.0       7.5       0.0
 6 C  py              5.7       6.5       0.3       0.0       0.9       0.0
 6 C  dx2y2           0.0       0.2       0.3       0.0       0.0       0.0
 6 C  dxy             0.0       0.0       0.0       0.0       0.1       0.0
 7 C  s               0.2       0.1       0.2       0.0       0.2       0.0
 7 C  pz              0.0       0.0       0.0       2.8       0.0       0.4
 7 C  px              6.3       0.3       0.4       0.0       9.6       0.0
 7 C  py              0.2       1.3      22.6       0.0       0.3       0.0
 7 C  dx2y2           0.0       0.0       0.3       0.0       0.0       0.0
 7 C  dxy             0.0       0.2       0.0       0.0       0.2       0.0
 8 C  s               0.0       0.2       0.9       0.0       0.1       0.0
 8 C  pz              0.0       0.0       0.0       1.1       0.0       0.0
 8 C  px              2.5       5.5       0.5       0.0       5.6       0.0
 8 C  py              4.7       7.7       0.1       0.0       2.7       0.0
 8 C  dx2y2           0.0       0.1       0.3       0.0       0.0       0.0
 9 C  s               0.0       0.2       0.9       0.0       0.1       0.0
 9 C  pz              0.0       0.0       0.0       1.1       0.0       0.0
 9 C  px              2.5       5.5       0.5       0.0       5.6       0.0
 9 C  py              4.7       7.7       0.1       0.0       2.7       0.0
 9 C  dx2y2           0.0       0.1       0.3       0.0       0.0       0.0
10 C  s               0.2       0.1       0.2       0.0       0.2       0.0
10 C  pz              0.0       0.0       0.0       2.8       0.0       0.4
10 C  px              6.3       0.3       0.4       0.0       9.6       0.0
10 C  py              0.2       1.3      22.6       0.0       0.3       0.0
10 C  dx2y2           0.0       0.0       0.3       0.0       0.0       0.0
10 C  dxy             0.0       0.2       0.0       0.0       0.2       0.0
11 C  s               0.7       0.0       0.1       0.0       0.0       0.0
11 C  pz              0.0       0.0       0.0      15.1       0.0      26.1
11 C  px              0.1       4.6       3.7       0.0       1.1       0.0
11 C  py              5.9       0.1       0.8       0.0       1.0       0.0
11 C  dxz             0.0       0.0       0.0       0.1       0.0       0.2
[...]
11 C  dxy             4.2       4.4       0.4       0.1       0.0       0.0
12 H  s               4.5       4.5       1.2       0.0       0.4       0.1
12 H  px              9.8       9.6       2.7       0.0       0.6       0.1
12 H  py              1.0       1.2       0.3       0.2       0.0       0.0
13 H  s               0.9       1.2       0.1       0.0       0.0       0.0
13 H  pz              1.8       2.6       0.1       0.1       0.0       0.0
13 H  py              0.3       0.3       0.1       0.1       0.0       0.0
14 H  s               0.8       1.2       0.1       0.0       0.0       0.0
14 H  pz              1.8       2.6       0.1       0.1       0.0       0.0
14 H  py              0.3       0.3       0.1       0.1       0.0       0.0
15 H  s               0.1       0.4       0.1       0.5       3.7       0.3
15 H  px              0.3       1.0       0.1       1.1       6.3       0.3
15 H  py              0.1       0.3       0.1       0.4       1.7       0.2
16 H  s               0.1       0.4       0.1       0.5       3.7       0.3
16 H  px              0.3       1.0       0.1       1.1       6.3       0.3
16 H  py              0.1       0.3       0.1       0.4       1.7       0.2
17 H  s               1.1       0.1       4.1       0.0       0.2       2.2
17 H  py              3.3       0.0      12.9       0.0       0.4       4.4
18 H  s               0.2       0.0       0.8       0.4       0.5       2.7
18 H  px              0.3       0.0       1.3       1.0       0.9       3.8
18 H  py              0.2       0.0       1.1       0.3       0.2       1.2
19 H  s               0.2       0.0       0.8       0.4       0.5       2.7
19 H  px              0.3       0.0       1.3       1.0       0.9       3.8
19 H  py              0.2       0.0       1.1       0.3       0.2       1.2
20 H  s               1.1       0.1       4.1       0.0       0.2       2.2
20 H  py              3.3       0.0      12.9       0.0       0.4       4.4
21 H  s               0.9       1.2       0.1       0.0       0.0       0.0
21 H  pz              1.8       2.6       0.1       0.1       0.0       0.0
21 H  py              0.3       0.3       0.1       0.1       0.0       0.0
22 H  s               0.9       1.2       0.1       0.0       0.0       0.0
22 H  pz              1.8       2.6       0.1       0.1       0.0       0.0
22 H  py              0.3       0.3       0.1       0.1       0.0       0.0
23 H  s               4.5       4.5       1.2       0.0       0.4       0.1
23 H  px              9.8       9.6       2.6       0.0       0.6       0.1
23 H  py              1.0       1.2       0.3       0.2       0.0       0.0

                    276       277       278       279       280       281   
                  21.20930  21.60086  21.87851  21.99599  22.02346  22.05994
                   0.00000   0.00000   0.00000   0.00000   0.00000   0.00000
                  --------  --------  --------  --------  --------  --------
 0 C  s               0.7       0.0       8.7      17.0      28.1       5.0
 1 C  s              11.0       9.6      26.3       0.0       0.7       3.9
 2 C  s               8.3      10.6       5.6      13.0       2.0       7.2
 3 C  s               8.3      10.6       5.6      13.0       2.0       7.2
 4 C  s              11.0       9.6      26.3       0.0       0.7       3.9
 5 C  s              18.1       0.1       7.8       6.9      14.5       3.6
 5 C  py              0.0       0.0       0.2       0.0       0.0       0.1
 6 C  s              18.1       0.1       7.8       6.9      14.5       3.6
 6 C  py              0.0       0.0       0.2       0.0       0.0       0.1
 7 C  s               7.2      11.6       1.1       1.0       0.0      18.6
 8 C  s               4.8      17.9       0.0      11.8       4.4      11.3
 9 C  s               4.8      17.9       0.0      11.8       4.4      11.3
10 C  s               7.2      11.6       1.1       1.0       0.0      18.6
11 C  s               0.7       0.0       8.7      17.0      28.1       5.0

                    282       283       284       285       286       287   
                  22.09437  22.16260  22.19963  22.23408  22.34078  22.38371
                   0.00000   0.00000   0.00000   0.00000   0.00000   0.00000
                  --------  --------  --------  --------  --------  --------
 0 C  s              35.2       0.2       0.7       3.2       0.3       0.2
 1 C  s               3.8       0.1      21.5       7.2      10.0       5.6
 2 C  s               0.1      12.3      15.5       0.4      21.5       3.1
 3 C  s               0.1      12.3      15.4       0.4      21.5       3.1
 4 C  s               3.8       0.1      21.5       7.2      10.0       5.6
 5 C  s               4.1      17.3       0.2      10.1       1.6      15.6
 5 C  px              0.0       0.0       0.0       0.0       0.1       0.0
 6 C  s               4.1      17.3       0.2      10.1       1.6      15.6
 6 C  px              0.0       0.0       0.0       0.0       0.1       0.0
 7 C  s               2.5       0.2       6.4      23.6       9.8      17.2
 8 C  s               4.1      19.7       5.6       5.3       6.6       8.1
 9 C  s               4.1      19.7       5.6       5.3       6.6       8.1
10 C  s               2.5       0.2       6.4      23.6       9.8      17.2
11 C  s              35.2       0.2       0.7       3.2       0.3       0.2



                      *****************************
                      * MAYER POPULATION ANALYSIS *
                      *****************************

  NA   - Mulliken gross atomic population
  ZA   - Total nuclear charge
  QA   - Mulliken gross atomic charge
  VA   - Mayer's total valence
  BVA  - Mayer's bonded valence
  FA   - Mayer's free valence

  ATOM       NA         ZA         QA         VA         BVA        FA
  0 C      6.5946     6.0000    -0.5946     3.7259     3.7259    -0.0000
  1 C      5.9067     6.0000     0.0933     3.2881     3.2881     0.0000
  2 C      6.2550     6.0000    -0.2550     3.7519     3.7519    -0.0000
  3 C      6.2550     6.0000    -0.2550     3.7519     3.7519    -0.0000
  4 C      5.9067     6.0000     0.0933     3.2880     3.2880    -0.0000
  5 C      5.8340     6.0000     0.1660     3.6199     3.6199    -0.0000
  6 C      5.8340     6.0000     0.1660     3.6200     3.6200    -0.0000
  7 C      6.2722     6.0000    -0.2722     3.6402     3.6402    -0.0000
  8 C      6.2015     6.0000    -0.2015     3.7025     3.7025    -0.0000
  9 C      6.2015     6.0000    -0.2015     3.7025     3.7025     0.0000
 10 C      6.2723     6.0000    -0.2723     3.6402     3.6402    -0.0000
 11 C      6.5946     6.0000    -0.5946     3.7259     3.7259     0.0000
 12 H      0.8291     1.0000     0.1709     0.9580     0.9580     0.0000
 13 H      0.8165     1.0000     0.1835     0.9481     0.9481     0.0000
 14 H      0.8164     1.0000     0.1836     0.9481     0.9481    -0.0000
 15 H      0.8247     1.0000     0.1753     0.9611     0.9611    -0.0000
 16 H      0.8247     1.0000     0.1753     0.9611     0.9611     0.0000
 17 H      0.8255     1.0000     0.1745     0.9593     0.9593    -0.0000
 18 H      0.8237     1.0000     0.1763     0.9594     0.9594    -0.0000
 19 H      0.8237     1.0000     0.1763     0.9594     0.9594     0.0000
 20 H      0.8255     1.0000     0.1745     0.9593     0.9593     0.0000
 21 H      0.8164     1.0000     0.1836     0.9481     0.9481     0.0000
 22 H      0.8165     1.0000     0.1835     0.9481     0.9481     0.0000
 23 H      0.8291     1.0000     0.1709     0.9580     0.9580     0.0000

  Mayer bond orders larger than 0.100000
B(  0-C ,  1-C ) :   0.7898 B(  0-C , 12-H ) :   0.9819 B(  0-C , 13-H ) :   0.9704 
B(  0-C , 14-H ) :   0.9704 B(  1-C ,  2-C ) :   1.4693 B(  1-C ,  5-C ) :  -0.1033 
B(  1-C ,  6-C ) :   1.2402 B(  2-C ,  3-C ) :   1.2627 B(  2-C , 15-H ) :   0.9435 
B(  3-C ,  4-C ) :   1.4693 B(  3-C , 16-H ) :   0.9435 B(  4-C ,  5-C ) :   1.2402 
B(  4-C ,  6-C ) :  -0.1033 B(  4-C , 11-C ) :   0.7898 B(  5-C ,  6-C ) :   1.2730 
B(  5-C , 10-C ) :   1.2233 B(  6-C ,  7-C ) :   1.2233 B(  7-C ,  8-C ) :   1.4665 
B(  7-C , 17-H ) :   0.9522 B(  8-C ,  9-C ) :   1.2311 B(  8-C , 18-H ) :   0.9640 
B(  9-C , 10-C ) :   1.4665 B(  9-C , 19-H ) :   0.9640 B( 10-C , 20-H ) :   0.9522 
B( 11-C , 21-H ) :   0.9704 B( 11-C , 22-H ) :   0.9704 B( 11-C , 23-H ) :   0.9819 


-------
TIMINGS
-------

Total SCF time: 0 days 0 hours 0 min 33 sec 

Total time                  ....      33.207 sec
Sum of individual times     ....      32.491 sec  ( 97.8%)

SCF preparation             ....       0.393 sec  (  1.2%)
Fock matrix formation       ....      30.812 sec  ( 92.8%)
  Startup                   ....       0.052 sec  (  0.2% of F)
  Split-RI-J                ....       6.046 sec  ( 19.6% of F)
  XC integration            ....      18.066 sec  ( 58.6% of F)
    Basis function eval.    ....       2.654 sec  ( 14.7% of XC)
    Density eval.           ....       5.647 sec  ( 31.3% of XC)
    XC-Functional eval.     ....       1.503 sec  (  8.3% of XC)
    XC-Potential eval.      ....       6.503 sec  ( 36.0% of XC)
  CPCM terms                ....       6.244 sec  ( 20.3% of F)
Diagonalization             ....       0.000 sec  (  0.0%)
Density matrix formation    ....       0.183 sec  (  0.6%)
Total Energy calculation    ....       0.032 sec  (  0.1%)
Population analysis         ....       0.144 sec  (  0.4%)
Orbital Transformation      ....       0.073 sec  (  0.2%)
Orbital Orthonormalization  ....       0.000 sec  (  0.0%)
DIIS solution               ....       0.792 sec  (  2.4%)
  MO trafo                  ....       0.000 sec  (  0.0 % of DIIS)
  Orb grad                  ....       0.000 sec  (  0.0 % of DIIS)
  Energy W gradient         ....       0.000 sec  (  0.0 % of DIIS)
  DIIS error                ....       0.014 sec  (  1.8 % of DIIS)
  DIIS work                 ....       0.720 sec  ( 90.9 % of DIIS)
  Form Q                    ....       0.000 sec  (  0.0 % of DIIS)
  Form QpQm                 ....       0.000 sec  (  0.0 % of DIIS)
  Exp/Cayley                ....       0.000 sec  (  0.0 % of DIIS)
  Orb update                ....       0.000 sec  (  0.0 % of DIIS)
  Wake-sleep                ....       0.017 sec  (  2.2 % of DIIS)
SOSCF solution              ....       0.062 sec  (  0.2%)
  MO trafo                  ....       0.047 sec  ( 75.1 % of SOSCF)
  Orb grad                  ....       0.001 sec  (  1.5 % of SOSCF)
  Rot update                ....       0.000 sec  (  0.1 % of SOSCF)
  Step                      ....       0.015 sec  ( 23.2 % of SOSCF)
Finished LeanSCF after  33.3 sec

Maximum memory used throughout the entire LEANSCF-calculation: 44.1 MB


-------------------------------------------------------------------------------
                          DFT DISPERSION CORRECTION                            
                                                                               
                                DFTD4 V3.4.0                                   
-------------------------------------------------------------------------------
The R2SCAN3C composite method is recognized
Using three-body term ABC
Active option DFTDOPT                   ...         5   

-------------------------   ----------------
Dispersion correction           -0.009739414
-------------------------   ----------------

------------------   -----------------
gCP correction             0.007266613
------------------   -----------------

-------------------------   --------------------
FINAL SINGLE POINT ENERGY      -464.391627661880
-------------------------   --------------------


------------------------------------------------------------------------------
                              ORCA PROPERTY CALCULATIONS
------------------------------------------------------------------------------

GBWName                                 ... sp_solv.gbw
Number of atoms                         ...     24
Number of basis functions               ...    288
Max core memory                         ...   1024 MB

Electric properties:
Dipole moment                           ... YES
Quadrupole moment                       ...  NO
Static polarizability (Dipole/Dipole)   ...  NO
Static polarizability (Dipole/Quad.)    ...  NO
Static polarizability (Quad./Quad.)     ...  NO
Static polarizability (Velocity)        ...  NO

Atomic electric properties:
Dipole moment                           ...  NO
Quadrupole moment                       ...  NO
Static polarizability                   ...  NO

Choice of electric origin               ... Center of mass
Position of electric origin             ...    -0.000003    -0.000000    -0.000000

General magnetic properties:
Magnetizability                         ...  NO

EPR properties:
g-Tensor (aka g-matrix)                 ...  NO
Zero-Field splitting spin-orbit         ...  NO
Zero-field splitting spin-spin          ...  NO
Hyperfine couplings                     ...  NO (   0 nuclei)
Quadrupole couplings                    ...  NO (   0 nuclei)
Contact density                         ...  NO (   0 nuclei)

NMR properties:
Chemical shifts                         ...  NO (   0 nuclei)
Spin-rotation constants                 ...  NO (   0 nuclei)
Spin-spin couplings                     ...  NO (   0 nuclei,    0 pairs)

Choice of magnetic origin               ... GIAO
Position of magnetic origin             ...     0.000000     0.000000     0.000000

Properties with geometric perturbations:
SCF Hessian                             ...  NO
IR spectrum                             ...  NO
VCD spectrum                            ...  NO
X-ray spectroscopy properties:
SCF XES/XAS/RIXS spectra                ...  NO


-------------
DIPOLE MOMENT
-------------

Method             : SCF
Type of density    : Electron Density
Multiplicity       :   1
Irrep              :   0
Energy             :  -464.3891548610219502 Eh
Relativity type    : 
Basis              : AO
                                X                 Y                 Z
Electronic contribution:      2.283317086       0.000804709       0.000342444
Nuclear contribution   :     -2.293515089      -0.000814527      -0.000270252
                        -----------------------------------------
Total Dipole Moment    :     -0.010198003      -0.000009818       0.000072192
                        -----------------------------------------
Magnitude (a.u.)       :      0.010198263
Magnitude (Debye)      :      0.025921925



--------------------
Rotational spectrum 
--------------------
 
Rotational constants in cm-1:             0.039992             0.037564             0.019511 
Rotational constants in MHz :          1198.936325          1126.150379           584.923080 

Dipole components along the rotational axes: 
x,y,z [a.u.] :    -0.010198    -0.000010     0.000072 
x,y,z [Debye]:    -0.025921    -0.000025     0.000183 

 

Dipole moment calculation done in   0.0 sec 

Maximum memory used throughout the entire PROP-calculation: 20.9 MB

--------------------------------
SUGGESTED CITATIONS FOR THIS RUN
--------------------------------

Below you find a list of papers that are relevant to this ORCA run
We neither can nor want to force you to cite these papers, but we appreciate if you do
You receive ORCA, which is the product of decades of hard work by many enthusiastic individuals, for free
The only thing we kindly ask in return is that you cite our papers,
We deeply appreciate it, if you show your appreciation for ORCA by not just citing the generic ORCA reference.

Please note that relegating all ORCA citations to the supporting information does *not* help us.
SI sections are not indexed - citations you put there will not count into any citation statistics
But we need these citations in order to attract the funding resources that allow us to do what we are doing

Therefore, if you are a happy ORCA user, please consider citing a few of the papers listed below in the main body of your paper

In addition to the list printed below, the program has created the file sp_solv.bibtex that contains the list in bibtex format
You can import this file easily into all common literature databanks and citation aid programs


List of essential papers. We consider these as the minimum necessary citations

  1. Neese,F.
     Software update: the ORCA program system, version 5.0
     WIRES Comput. Molec. Sci., 2022 12(1)e1606
     doi.org/10.1002/wcms.1606
  2. Grimme,S.; Hansen,A.; Ehlert,S.; Mewes,J.
     r2SCAN-3c: A 'Swiss army knife' composite electronic-structure method
     J. Chem. Phys., 2021 154 064103
     doi.org/10.1063/5.0040021

List of papers to cite with high priority. The work reported in these papers was absolutely
necessary for this run to complete.
Our perspective: the developers of density functionals and basis sets usually get cited in chemistry papers
Good! But without the algorithms to do something with them, the functionals or basis sets would not do anything.
Hence, in our opinion, the algorithm design and method developments papers are equally worthy of getting cited

  1. Neese,F.
     An improvement of the resolution of the identity approximation for the formation of the Coulomb matrix
     J. Comp. Chem., 2003 24(14)1740-1747
     doi.org/10.1002/jcc.10318
  2. Garcia-Rates,M.; Neese,F.
     Effect of the Solute Cavity on the Solvation Energy and its Derivatives within the Framework of the Gaussian Charge Scheme
     J. Comput. Chem., 2020 41 922-939
     doi.org/10.1002/jcc.26139
  3. Neese,F.
     The SHARK Integral Generation and Digestion System
     J. Comp. Chem., 2022  1-16
     doi.org/10.1002/jcc.26942
  4. Lehtola,S.; Steigemann,C.; Oliveira,M.; Marques,M.
     Recent developments in Libxc - A comprehensive library of functionals for density functional theory
     Software X, 2018 7 
     doi.org/10.1016/j.softx.2017.11.002
  5. Caldeweyher,E.; Bannwarth,C.; Grimme,S.
     Extension of the D3 dispersion coefficient model
     J. Chem. Phys., 2017 147 034112-XXXX
     doi.org/10.1063/1.4993215
  6. Caldeweyher,E.; Ehlert,S.; Hansen,A.; Neugebauer,H.; Spicher,S.; Bannwarth,C.; Grimme,S.
     A generally applicable atomic-charge dependent London dispersion correction
     J. Chem. Phys., 2019 150 154122-XXXX
     doi.org/10.1063/1.5090222
  7. Caldeweyher,E.; Mewes,J.; Ehlert,S.; Grimme,S.
     Extension and evaluation of the D4 London-dispersion model for periodic systems
     Phys. Chem. Chem. Phys., 2020 22(16)8499-8512
     doi.org/10.1039/D0CP00502A

List of suggested additional citations. These are papers that are important in the 'surrounding' of 
of this run, or papers that preceded the highly important papers. If you like your results we are grateful for a citation.

  1. Neese,F.
     The ORCA program system
     WIRES Comput. Molec. Sci., 2012 2(1)73-78
     doi.org/10.1002/wcms.81
  2. Neese,F.
     Software update: the ORCA program system, version 4.0
     WIRES Comput. Molec. Sci., 2018 8(1)1-6
     doi.org/10.1002/wcms.1327
  3. Neese,F.; Wennmohs,F.; Becker,U.; Riplinger,C.
     The ORCA quantum chemistry program package
     J. Chem. Phys., 2020 152 Art. No. L224108
     doi.org/10.1063/5.0004608

List of optional additional citations

  1. Neese,F.
     Approximate second-order SCF convergence for spin unrestricted wavefunctions
     Chem. Phys. Lett., 2000 325(1-3)93-98
     doi.org/10.1016/s0009-2614(00)00662-x

Timings for individual modules:

Sum of individual times          ...       36.135 sec (=   0.602 min)
Startup calculation              ...        2.388 sec (=   0.040 min)   6.6 %
SCF iterations                   ...       33.641 sec (=   0.561 min)  93.1 %
Property calculations            ...        0.106 sec (=   0.002 min)   0.3 %
                             ****ORCA TERMINATED NORMALLY****
TOTAL RUN TIME: 0 days 0 hours 0 minutes 36 seconds 869 msec
