
                                 *****************
                                 * O   R   C   A *
                                 *****************

                                            #,                                       
                                            ###                                      
                                            ####                                     
                                            #####                                    
                                            ######                                   
                                           ########,                                 
                                     ,,################,,,,,                         
                               ,,#################################,,                 
                          ,,##########################################,,             
                       ,#########################################, ''#####,          
                    ,#############################################,,   '####,        
                  ,##################################################,,,,####,       
                ,###########''''           ''''###############################       
              ,#####''   ,,,,##########,,,,          '''####'''          '####       
            ,##' ,,,,###########################,,,                        '##       
           ' ,,###''''                  '''############,,,                           
         ,,##''                                '''############,,,,        ,,,,,,###''
      ,#''                                            '''#######################'''  
     '                                                          ''''####''''         
             ,#######,   #######,   ,#######,      ##                                
            ,#'     '#,  ##    ##  ,#'     '#,    #''#        ,####,   ,####,        
            ##       ##  ##   ,#'  ##            #'  '#       #'       #'  '#        
            ##       ##  #######   ##           ,######,      #####,   #    #        
            '#,     ,#'  ##    ##  '#,     ,#' ,#      #,     #,   #   #,  ,#        
             '#######'   ##     ##  '#######'  #'      '#     '####' # '####'        



                #########################################################
                #                        -***-                          #
                #          Department of theory and spectroscopy        #
                #                                                       #
                #                      Frank Neese                      #
                #                                                       #
                #     Directorship, Architecture, Infrastructure        #
                #                    SHARK, DRIVERS                     #
                #        Core code/Algorithms in most modules           #
                #                                                       #
                #        Max Planck Institute fuer Kohlenforschung      #
                #                Kaiser Wilhelm Platz 1                 #
                #                 D-45470 Muelheim/Ruhr                 #
                #                      Germany                          #
                #                                                       #
                #                  All rights reserved                  #
                #                        -***-                          #
                #########################################################


                         Program Version 6.0.0  -   RELEASE  -


 With contributions from (in alphabetic order):
   Daniel Aravena         : Magnetic Suceptibility
   Michael Atanasov       : Ab Initio Ligand Field Theory (pilot matlab implementation)
   Alexander A. Auer      : GIAO ZORA, VPT2 properties, NMR spectrum
   Ute Becker             : All parallelization in ORCA, NUMFREQ, NUMCALC
   Giovanni Bistoni       : ED, misc. LED, open-shell LED, HFLD
   Martin Brehm           : Molecular dynamics
   Dmytro Bykov           : pre 5.0 version of the SCF Hessian
   Marcos Casanova-Páez   : Triplet and SCS-CIS(D). UHF-(DLPNO)-IP/EA/STEOM-CCSD. UHF-CVS-IP/STEOM-CCSD
   Vijay G. Chilkuri      : MRCI spin determinant printing, contributions to CSF-ICE
   Pauline Colinet        : FMM embedding
   Dipayan Datta          : RHF DLPNO-CCSD density
   Achintya Kumar Dutta   : EOM-CC, STEOM-CC
   Nicolas Foglia         : Exact transition moments, OPA infrastructure, MCD improvements
   Dmitry Ganyushin       : Spin-Orbit,Spin-Spin,Magnetic field MRCI
   Miquel Garcia          : C-PCM and meta-GGA Hessian, CCSD/C-PCM, Gaussian charge scheme
   Tiago L. C. Gouveia    : GS-ROHF, GS-ROCIS
   Yang Guo               : DLPNO-NEVPT2, F12-NEVPT2, CIM, IAO-localization
   Andreas Hansen         : Spin unrestricted coupled pair/coupled cluster methods
   Ingolf Harden          : AUTO-CI MPn and infrastructure 
   Benjamin Helmich-Paris : MC-RPA, TRAH-(SCF,CASSCF), AVAS, COSX integrals, SCF dyn. polar.
   Lee Huntington         : MR-EOM, pCC
   Robert Izsak           : Overlap fitted RIJCOSX, COSX-SCS-MP3, EOM
   Riya Kayal             : Wick's Theorem for AUTO-CI, AUTO-CI UHF-CCSDT
   Emily Kempfer          : AUTO-CI, RHF CISDT and CCSDT
   Christian Kollmar      : KDIIS, OOCD, Brueckner-CCSD(T), CCSD density, CASPT2, CASPT2-K, improved NEVPT2
   Axel Koslowski         : Symmetry handling
   Simone Kossmann        : Meta GGA functionals, TD-DFT gradient, OOMP2, (MP2 Hessian; deprecated post 5.0)
   Lucas Lang             : DCDCAS
   Marvin Lechner         : AUTO-CI (C++ implementation), FIC-MRCC
   Spencer Leger          : CASSCF response
   Dagmar Lenk            : GEPOL surface, SMD, ORCA-2-JSON
   Dimitrios Liakos       : Extrapolation schemes; Compound Job, initial MDCI parallelization
   Dimitrios Manganas     : Further ROCIS development; embedding schemes. LFT, Crystal Embedding
   Dimitrios Pantazis     : SARC Basis sets
   Anastasios Papadopoulos: AUTO-CI, single reference methods and gradients
   Taras Petrenko         : pre 6.0 DFT Hessian and TD-DFT gradient, (ASA, deprecated), ECA, 1-Electron XAS/XES, NRVS
   Peter Pinski           : DLPNO-MP2, DLPNO-MP2 Gradient
   Christoph Reimann      : Effective Core Potentials
   Marius Retegan         : Local ZFS, SOC
   Christoph Riplinger    : Optimizer, TS searches, QM/MM, DLPNO-CCSD(T), (RO)-DLPNO pert. Triples
   Michael Roemelt        : Original ROCIS implementation
   Masaaki Saitow         : Open-shell DLPNO-CCSD energy and density
   Barbara Sandhoefer     : DKH picture change effects
   Kantharuban Sivalingam : CASSCF convergence/infrastructure, NEVPT2 and variants, FIC-MRCI
   Bernardo de Souza      : ESD, SOC TD-DFT
   Georgi Stoychev        : AutoAux, RI-MP2 NMR, DLPNO-MP2 response, X2C
   Van Anh Tran           : RI-MP2 g-tensors
   Willem Van den Heuvel  : Paramagnetic NMR
   Zikuan Wang            : NOTCH, Electric field optimization 
   Frank Wennmohs         : Technical directorship and infrastructure
   Hang Xu                : AUTO-CI-Response properties 


 We gratefully acknowledge several colleagues who have allowed us to
 interface, adapt or use parts of their codes:
   Stefan Grimme, W. Hujo, H. Kruse, P. Pracht,  : VdW corrections, initial TS optimization,
                  C. Bannwarth, S. Ehlert,         DFT functionals, gCP, sTDA/sTD-DF
                  L. Wittmann, M. Mueller
   Ed Valeev, F. Pavosevic, A. Kumar             : LibInt (2-el integral package), F12 methods
   Garnet Chan, S. Sharma, J. Yang, R. Olivares  : DMRG
   Ulf Ekstrom                                   : XCFun DFT Library
   Mihaly Kallay                                 : mrcc  (arbitrary order and MRCC methods)
   Frank Weinhold                                : gennbo (NPA and NBO analysis)
   Simon Mueller                                 : openCOSMO-RS
   Christopher J. Cramer and Donald G. Truhlar   : smd solvation model
   Lars Goerigk                                  : TD-DFT with DH, B97 family of functionals
   V. Asgeirsson, H. Jonsson                     : NEB implementation
   FAccTs GmbH                                   : IRC, NEB, NEB-TS, DLPNO-Multilevel, CI-OPT
                                                   MM, QMMM, 2- and 3-layer-ONIOM, Crystal-QMMM,
                                                   LR-CPCM, SF, NACMEs, symmetry and pop. for TD-DFT,
                                                   nearIR, NL-DFT gradient (VV10), updates on ESD,
                                                   ML-optimized integration grids, MBIS, APM,
                                                   GOAT, DOCKER, SOLVATOR, interface openCOSMO-RS
   S Lehtola, MJT Oliveira, MAL Marques          : LibXC Library
   Liviu Ungur et al                             : ANISO software


 Your calculation uses the libint2 library for the computation of 2-el integrals
 For citations please refer to: http://libint.valeyev.net

 Your ORCA version has been built with support for libXC version: 6.2.2
 For citations please refer to: https://libxc.gitlab.io

 This ORCA versions uses:
   CBLAS   interface :  Fast vector & matrix operations
   LAPACKE interface :  Fast linear algebra routines
   SCALAPACK package :  Parallel linear algebra routines
   Shared memory     :  Shared parallel matrices
   BLAS/LAPACK       :  OpenBLAS 0.3.27  USE64BITINT DYNAMIC_ARCH NO_AFFINITY SapphireRapids SINGLE_THREADED
        Core in use  :  SapphireRapids
   Copyright (c) 2011-2014, The OpenBLAS Project


Your calculation utilizes the geometrical counterpoise correction gCP
Please cite in your paper:
H.Kruse, S. Grimme J.Chem.Phys., 136, (2012), 154101 
   

Your calculation utilizes the atom-pairwise dispersion correction
based on EEQ partial charges (D4)


================================================================================

----- Orbital basis set information -----
Your calculation utilizes the basis: def2-SV(P)
   F. Weigend and R. Ahlrichs, Phys. Chem. Chem. Phys. 7, 3297 (2005).

----- AuxJ basis set information -----
Your calculation utilizes the auxiliary basis: def2/J
   F. Weigend, Phys. Chem. Chem. Phys. 8, 1057 (2006).

================================================================================
                                        WARNINGS
                       Please study these warnings very carefully!
================================================================================


================================================================================
                                       INPUT FILE
================================================================================
NAME = sp.inp
|  1> ! pbe def2-sv(p) def2/J RI DEFGRID1 loosescf d4 GCP(DFT/SV(P)) printgap
|  2> %output
|  3>     printlevel normal
|  4> end
|  5> * xyz 0 1
|  6> C 5.0247829824 -1.1896130825 -1.816940289
|  7> C 4.6673237295 -0.2887807502 -0.6521365944
|  8> O 3.5017931408 0.5119074108 -0.969275195
|  9> P 2.058635396 0.2182211012 -0.3839822303
| 10> S 0.8284470636 1.6067027729 -0.9990824817
| 11> O 2.1989398222 0.0602025416 1.2025251532
| 12> C 2.0966493628 1.1861375092 2.0918547963
| 13> C 3.3112578772 2.0855245044 1.9956935525
| 14> S 1.7477185983 -1.8095626626 -0.8626094484
| 15> C 0.1787206233 -2.1495917355 -0.0232303223
| 16> S -1.2927962206 -1.7878807871 -1.0377084687
| 17> P -2.1468369159 -0.1724107771 0.0173054473
| 18> S -1.2618052177 0.2536416613 1.7206030029
| 19> O -3.6833209606 -0.5669156981 0.1764992879
| 20> C -4.1544253372 -1.4302660113 1.2303945888
| 21> C -4.7898071224 -0.6137753333 2.3390957027
| 22> O -2.2419126667 0.8883697582 -1.1442663273
| 23> C -3.1335989063 2.0239195557 -1.1557780081
| 24> C -2.8290683614 2.9979316032 -0.0371767921
| 25> H 5.9446496362 -1.7178724736 -1.5872618568
| 26> H 4.2320024189 -1.9128220981 -1.9955522654
| 27> H 5.1658249272 -0.5951083583 -2.715264421
| 28> H 5.4573933538 0.4397489828 -0.4608879318
| 29> H 4.4685603275 -0.8681103915 0.2527228119
| 30> H 1.1827359169 1.7386999354 1.8523244777
| 31> H 1.9939156689 0.7342366251 3.079480859
| 32> H 3.2156072909 2.8924174347 2.7153154981
| 33> H 4.2172217607 1.522076575 2.2035321687
| 34> H 3.3752862211 2.5104851373 0.9941313735
| 35> H 0.1226490586 -1.570149087 0.9029036763
| 36> H 0.1785585668 -3.2181672627 0.1733721848
| 37> H -4.8800195131 -2.0895077226 0.7510162884
| 38> H -3.3193885696 -2.0220357917 1.6151018209
| 39> H -4.0428394544 0.0230099053 2.8083483689
| 40> H -5.5845463555 0.0089541403 1.938194179
| 41> H -5.2007802951 -1.2850840861 3.0859573856
| 42> H -2.952161368 2.4726940633 -2.1337799016
| 43> H -4.1602244047 1.6553111077 -1.0947559612
| 44> H -3.0294481511 2.5377620311 0.9295445924
| 45> H -1.7794024957 3.2838778203 -0.0749661527
| 46> H -3.4483852244 3.8823605007 -0.1464852124
| 47> *
| 48> 
| 49>                          ****END OF INPUT****
================================================================================

                       ****************************
                       * Single Point Calculation *
                       ****************************

---------------------------------
CARTESIAN COORDINATES (ANGSTROEM)
---------------------------------
  C      5.024783   -1.189613   -1.816940
  C      4.667324   -0.288781   -0.652137
  O      3.501793    0.511907   -0.969275
  P      2.058635    0.218221   -0.383982
  S      0.828447    1.606703   -0.999082
  O      2.198940    0.060203    1.202525
  C      2.096649    1.186138    2.091855
  C      3.311258    2.085525    1.995694
  S      1.747719   -1.809563   -0.862609
  C      0.178721   -2.149592   -0.023230
  S     -1.292796   -1.787881   -1.037708
  P     -2.146837   -0.172411    0.017305
  S     -1.261805    0.253642    1.720603
  O     -3.683321   -0.566916    0.176499
  C     -4.154425   -1.430266    1.230395
  C     -4.789807   -0.613775    2.339096
  O     -2.241913    0.888370   -1.144266
  C     -3.133599    2.023920   -1.155778
  C     -2.829068    2.997932   -0.037177
  H      5.944650   -1.717872   -1.587262
  H      4.232002   -1.912822   -1.995552
  H      5.165825   -0.595108   -2.715264
  H      5.457393    0.439749   -0.460888
  H      4.468560   -0.868110    0.252723
  H      1.182736    1.738700    1.852324
  H      1.993916    0.734237    3.079481
  H      3.215607    2.892417    2.715315
  H      4.217222    1.522077    2.203532
  H      3.375286    2.510485    0.994131
  H      0.122649   -1.570149    0.902904
  H      0.178559   -3.218167    0.173372
  H     -4.880020   -2.089508    0.751016
  H     -3.319389   -2.022036    1.615102
  H     -4.042839    0.023010    2.808348
  H     -5.584546    0.008954    1.938194
  H     -5.200780   -1.285084    3.085957
  H     -2.952161    2.472694   -2.133780
  H     -4.160224    1.655311   -1.094756
  H     -3.029448    2.537762    0.929545
  H     -1.779402    3.283878   -0.074966
  H     -3.448385    3.882361   -0.146485

----------------------------
CARTESIAN COORDINATES (A.U.)
----------------------------
  NO LB      ZA    FRAG     MASS         X           Y           Z
   0 C     6.0000    0    12.011    9.495464   -2.248043   -3.433520
   1 C     6.0000    0    12.011    8.819964   -0.545717   -1.232360
   2 O     8.0000    0    15.999    6.617430    0.967365   -1.831665
   3 P    15.0000    0    30.974    3.890257    0.412378   -0.725621
   4 S    16.0000    0    32.060    1.565538    3.036228   -1.887992
   5 O     8.0000    0    15.999    4.155394    0.113766    2.272443
   6 C     6.0000    0    12.011    3.962093    2.241475    3.953033
   7 C     6.0000    0    12.011    6.257371    3.941070    3.771314
   8 S    16.0000    0    32.060    3.302710   -3.419578   -1.630096
   9 C     6.0000    0    12.011    0.337733   -4.062140   -0.043899
  10 S    16.0000    0    32.060   -2.443031   -3.378605   -1.960985
  11 P    15.0000    0    30.974   -4.056934   -0.325809    0.032703
  12 S    16.0000    0    32.060   -2.384466    0.479313    3.251468
  13 O     8.0000    0    15.999   -6.960468   -1.071315    0.333535
  14 C     6.0000    0    12.011   -7.850726   -2.702811    2.325109
  15 C     6.0000    0    12.011   -9.051424   -1.159867    4.420250
  16 O     8.0000    0    15.999   -4.236601    1.678776   -2.162350
  17 C     6.0000    0    12.011   -5.921644    3.824654   -2.184104
  18 C     6.0000    0    12.011   -5.346164    5.665270   -0.070254
  19 H     1.0000    0     1.008   11.233760   -3.246309   -2.999490
  20 H     1.0000    0     1.008    7.997326   -3.614710   -3.771047
  21 H     1.0000    0     1.008    9.761994   -1.124592   -5.131106
  22 H     1.0000    0     1.008   10.312979    0.831005   -0.870952
  23 H     1.0000    0     1.008    8.444355   -1.640491    0.477577
  24 H     1.0000    0     1.008    2.235047    3.285667    3.500386
  25 H     1.0000    0     1.008    3.767955    1.387506    5.819375
  26 H     1.0000    0     1.008    6.076617    5.465877    5.131203
  27 H     1.0000    0     1.008    7.969394    2.876308    4.164072
  28 H     1.0000    0     1.008    6.378367    4.744129    1.878636
  29 H     1.0000    0     1.008    0.231773   -2.967152    1.706241
  30 H     1.0000    0     1.008    0.337427   -6.081455    0.327626
  31 H     1.0000    0     1.008   -9.221900   -3.948597    1.419215
  32 H     1.0000    0     1.008   -6.272735   -3.821094    3.052100
  33 H     1.0000    0     1.008   -7.639859    0.043482    5.307009
  34 H     1.0000    0     1.008  -10.553263    0.016921    3.662656
  35 H     1.0000    0     1.008   -9.828050   -2.428457    5.831614
  36 H     1.0000    0     1.008   -5.578776    4.672715   -4.032260
  37 H     1.0000    0     1.008   -7.861685    3.128085   -2.068789
  38 H     1.0000    0     1.008   -5.724827    4.795675    1.756585
  39 H     1.0000    0     1.008   -3.362583    6.205630   -0.141665
  40 H     1.0000    0     1.008   -6.516504    7.336598   -0.276817

--------------------------------
INTERNAL COORDINATES (ANGSTROEM)
--------------------------------
 C      0   0   0     0.000000000000     0.00000000     0.00000000
 C      1   0   0     1.515270159198     0.00000000     0.00000000
 O      2   1   0     1.449185970244   110.48573787     0.00000000
 P      3   2   1     1.584778779310   123.31095638   104.52593269
 S      4   3   2     1.954377907441   108.98426644   176.77687743
 O      4   3   2     1.600518939310   107.73148684    50.22768212
 C      6   4   3     1.438436687326   121.96049565    89.06588773
 C      7   6   4     1.514403445320   111.62762926   288.20251810
 S      4   3   2     2.106575482087   103.23098886   306.95813873
 C      9   4   3     1.811610259770   101.72587666   174.08794756
 S     10   9   4     1.823557660618   113.82162000    88.23944817
 P     11  10   9     2.110019721565   101.55567379   246.48446180
 S     12  11  10     1.966220829408   114.63605470   354.00098758
 O     12  11  10     1.594289820326   104.51032145   228.95131538
 C     14  12  11     1.441529882525   122.42267990    83.32065089
 C     15  14  12     1.516438327196   110.42497795   101.40810532
 O     12  11  10     1.575926308559    99.85939796   125.31172513
 C     17  12  11     1.443852558709   124.92624813   158.21356125
 C     18  17  12     1.514168749476   112.07458249    63.51652808
 H      1   2   3     1.085340880681   109.06387872   175.42719556
 H      1   2   3     1.087857775733   110.45806987   295.44273081
 H      1   2   3     1.086423003909   109.93323636    55.54779909
 H      2   1   3     1.091577589571   111.14401556   244.36811618
 H      2   1   3     1.092657434164   111.36426852   121.46444298
 H      7   6   4     1.094503446762   108.61733218    50.72643498
 H      7   6   4     1.090950897445   104.01443235   166.92468095
 H      8   7   6     1.085394389251   109.19132335   182.75619436
 H      8   7   6     1.086941128919   110.39534335   303.05509333
 H      8   7   6     1.089870619267   109.69660378    63.43834624
 H     10   9   4     1.093902183301   109.70910459   325.89351744
 H     10   9   4     1.086511035099   105.57887229   205.53462122
 H     15  14  12     1.091279110453   104.94802333   221.78499780
 H     15  14  12     1.093378951082   109.37781655   339.29479922
 H     16  15  14     1.087958731695   110.04834930   295.51658223
 H     16  15  14     1.086335343079   110.20389302    55.78206584
 H     16  15  14     1.085060718877   109.19733165   175.93149747
 H     18  17  12     1.091240506335   103.17353611   183.41430233
 H     18  17  12     1.092499790439   108.33281700   300.21497871
 H     19  18  17     1.089246680260   110.29781959   294.18617824
 H     19  18  17     1.088573242581   109.70999036    53.78900774
 H     19  18  17     1.085226327674   109.57600465   173.95418673

---------------------------
INTERNAL COORDINATES (A.U.)
---------------------------
 C      0   0   0     0.000000000000     0.00000000     0.00000000
 C      1   0   0     2.863445619787     0.00000000     0.00000000
 O      2   1   0     2.738564600882   110.48573787     0.00000000
 P      3   2   1     2.994797875745   123.31095638   104.52593269
 S      4   3   2     3.693239007249   108.98426644   176.77687743
 O      4   3   2     3.024542467450   107.73148684    50.22768212
 C      6   4   3     2.718251400031   121.96049565    89.06588773
 C      7   6   4     2.861807767922   111.62762926   288.20251810
 S      4   3   2     3.980850741577   103.23098886   306.95813873
 C      9   4   3     3.423447252367   101.72587666   174.08794756
 S     10   9   4     3.446024567981   113.82162000    88.23944817
 P     11  10   9     3.987359410930   101.55567379   246.48446180
 S     12  11  10     3.715618886393   114.63605470   354.00098758
 O     12  11  10     3.012771138515   104.51032145   228.95131538
 C     14  12  11     2.724096691836   122.42267990    83.32065089
 C     15  14  12     2.865653137381   110.42497795   101.40810532
 O     12  11  10     2.978069130418    99.85939796   125.31172513
 C     17  12  11     2.728485913721   124.92624813   158.21356125
 C     18  17  12     2.861364257051   112.07458249    63.51652808
 H      1   2   3     2.050997026435   109.06387872   175.42719556
 H      1   2   3     2.055753268791   110.45806987   295.44273081
 H      1   2   3     2.053041942980   109.93323636    55.54779909
 H      2   1   3     2.062782698214   111.14401556   244.36811618
 H      2   1   3     2.064823308762   111.36426852   121.46444298
 H      7   6   4     2.068311767013   108.61733218    50.72643498
 H      7   6   4     2.061598421727   104.01443235   166.92468095
 H      8   7   6     2.051098142978   109.19132335   182.75619436
 H      8   7   6     2.054021057352   110.39534335   303.05509333
 H      8   7   6     2.059556991821   109.69660378    63.43834624
 H     10   9   4     2.067175543738   109.70910459   325.89351744
 H     10   9   4     2.053208297820   105.57887229   205.53462122
 H     15  14  12     2.062218654426   104.94802333   221.78499780
 H     15  14  12     2.066186778139   109.37781655   339.29479922
 H     16  15  14     2.055944047912   110.04834930   295.51658223
 H     16  15  14     2.052876288019   110.20389302    55.78206584
 H     16  15  14     2.050467597353   109.19733165   175.93149747
 H     18  17  12     2.062145703214   103.17353611   183.41430233
 H     18  17  12     2.064525405297   108.33281700   300.21497871
 H     19  18  17     2.058377917973   110.29781959   294.18617824
 H     19  18  17     2.057105305193   109.70999036    53.78900774
 H     19  18  17     2.050780552626   109.57600465   173.95418673

---------------------
BASIS SET INFORMATION
---------------------
There are 5 groups of distinct atoms

 Group   1 Type C   : 7s4p1d contracted to 3s2p1d pattern {511/31/1}
 Group   2 Type O   : 7s4p1d contracted to 3s2p1d pattern {511/31/1}
 Group   3 Type P   : 10s7p1d contracted to 4s3p1d pattern {5311/511/1}
 Group   4 Type S   : 10s7p1d contracted to 4s3p1d pattern {5311/511/1}
 Group   5 Type H   : 4s contracted to 2s pattern {31}

Atom   0C    basis set group =>   1
Atom   1C    basis set group =>   1
Atom   2O    basis set group =>   2
Atom   3P    basis set group =>   3
Atom   4S    basis set group =>   4
Atom   5O    basis set group =>   2
Atom   6C    basis set group =>   1
Atom   7C    basis set group =>   1
Atom   8S    basis set group =>   4
Atom   9C    basis set group =>   1
Atom  10S    basis set group =>   4
Atom  11P    basis set group =>   3
Atom  12S    basis set group =>   4
Atom  13O    basis set group =>   2
Atom  14C    basis set group =>   1
Atom  15C    basis set group =>   1
Atom  16O    basis set group =>   2
Atom  17C    basis set group =>   1
Atom  18C    basis set group =>   1
Atom  19H    basis set group =>   5
Atom  20H    basis set group =>   5
Atom  21H    basis set group =>   5
Atom  22H    basis set group =>   5
Atom  23H    basis set group =>   5
Atom  24H    basis set group =>   5
Atom  25H    basis set group =>   5
Atom  26H    basis set group =>   5
Atom  27H    basis set group =>   5
Atom  28H    basis set group =>   5
Atom  29H    basis set group =>   5
Atom  30H    basis set group =>   5
Atom  31H    basis set group =>   5
Atom  32H    basis set group =>   5
Atom  33H    basis set group =>   5
Atom  34H    basis set group =>   5
Atom  35H    basis set group =>   5
Atom  36H    basis set group =>   5
Atom  37H    basis set group =>   5
Atom  38H    basis set group =>   5
Atom  39H    basis set group =>   5
Atom  40H    basis set group =>   5
---------------------------------
AUXILIARY/J BASIS SET INFORMATION
---------------------------------
There are 5 groups of distinct atoms

 Group   1 Type C   : 12s5p4d2f1g contracted to 6s4p3d1f1g pattern {711111/2111/211/2/1}
 Group   2 Type O   : 12s5p4d2f1g contracted to 6s4p3d1f1g pattern {711111/2111/211/2/1}
 Group   3 Type P   : 14s5p5d2f1g contracted to 8s4p3d1f1g pattern {71111111/2111/311/2/1}
 Group   4 Type S   : 14s5p5d2f1g contracted to 8s4p3d1f1g pattern {71111111/2111/311/2/1}
 Group   5 Type H   : 5s2p1d contracted to 3s1p1d pattern {311/2/1}

Atom   0C    basis set group =>   1
Atom   1C    basis set group =>   1
Atom   2O    basis set group =>   2
Atom   3P    basis set group =>   3
Atom   4S    basis set group =>   4
Atom   5O    basis set group =>   2
Atom   6C    basis set group =>   1
Atom   7C    basis set group =>   1
Atom   8S    basis set group =>   4
Atom   9C    basis set group =>   1
Atom  10S    basis set group =>   4
Atom  11P    basis set group =>   3
Atom  12S    basis set group =>   4
Atom  13O    basis set group =>   2
Atom  14C    basis set group =>   1
Atom  15C    basis set group =>   1
Atom  16O    basis set group =>   2
Atom  17C    basis set group =>   1
Atom  18C    basis set group =>   1
Atom  19H    basis set group =>   5
Atom  20H    basis set group =>   5
Atom  21H    basis set group =>   5
Atom  22H    basis set group =>   5
Atom  23H    basis set group =>   5
Atom  24H    basis set group =>   5
Atom  25H    basis set group =>   5
Atom  26H    basis set group =>   5
Atom  27H    basis set group =>   5
Atom  28H    basis set group =>   5
Atom  29H    basis set group =>   5
Atom  30H    basis set group =>   5
Atom  31H    basis set group =>   5
Atom  32H    basis set group =>   5
Atom  33H    basis set group =>   5
Atom  34H    basis set group =>   5
Atom  35H    basis set group =>   5
Atom  36H    basis set group =>   5
Atom  37H    basis set group =>   5
Atom  38H    basis set group =>   5
Atom  39H    basis set group =>   5
Atom  40H    basis set group =>   5
------------------------------------------------------------------------------
                             ORCA STARTUP CALCULATIONS
                           -- RI-GTO INTEGRALS CHOSEN --
------------------------------------------------------------------------------
------------------------------------------------------------------------------
                   ___                                                        
                  /   \      - P O W E R E D   B Y -                         
                 /     \                                                     
                 |  |  |   _    _      __       _____    __    __             
                 |  |  |  | |  | |    /  \     |  _  \  |  |  /  |          
                  \  \/   | |  | |   /    \    | | | |  |  | /  /          
                 / \  \   | |__| |  /  /\  \   | |_| |  |  |/  /          
                |  |  |   |  __  | /  /__\  \  |    /   |      \           
                |  |  |   | |  | | |   __   |  |    \   |  |\   \          
                \     /   | |  | | |  |  |  |  | |\  \  |  | \   \       
                 \___/    |_|  |_| |__|  |__|  |_| \__\ |__|  \__/        
                                                                              
                      - O R C A' S   B I G   F R I E N D -                    
                                      &                                       
                       - I N T E G R A L  F E E D E R -                       
                                                                              
 v1 FN, 2020, v2 2021, v3 2022-2024                                           
------------------------------------------------------------------------------


----------------------
SHARK INTEGRAL PACKAGE
----------------------

Number of atoms                             ...     41
Number of basis functions                   ...    334
Number of shells                            ...    170
Maximum angular momentum                    ...      2
Integral batch strategy                     ... SHARK/LIBINT Hybrid
RI-J (if used) integral strategy            ... SPLIT-RIJ (Revised 2003 algorithm where possible)
Printlevel                                  ...      1
Contraction scheme used                     ... SEGMENTED contraction
Prescreening option                         ... SCHWARTZ
   Thresh                                   ... 1.000e-09
   Tcut                                     ... 1.000e-10
   Tpresel                                  ... 1.000e-10 
Coulomb Range Separation                    ... NOT USED
Exchange Range Separation                   ... NOT USED
Multipole approximations                    ... NOT USED
Finite Nucleus Model                        ... NOT USED
CABS basis                                  ... NOT available
Auxiliary Coulomb fitting basis             ... AVAILABLE
   # of basis functions in Aux-J            ...   1185
   # of shells in Aux-J                     ...    407
   Maximum angular momentum in Aux-J        ...      4
Auxiliary J/K fitting basis                 ... NOT available
Auxiliary Correlation fitting basis         ... NOT available
Auxiliary 'external' fitting basis          ... NOT available

Checking pre-screening integrals            ... done (  0.0 sec) Dimension = 170
Check shell pair data                       ... done (  0.0 sec)
Shell pair information
Shell pair cut-off parameter TPreSel        ...   1.0e-10
Total number of shell pairs                 ...     14535
Shell pairs after pre-screening             ...     10045
Total number of primitive shell pairs       ...     62501
Primitive shell pairs kept                  ...     25101
          la=0 lb=0:   3878 shell pairs
          la=1 lb=0:   3410 shell pairs
          la=1 lb=1:    796 shell pairs
          la=2 lb=0:   1263 shell pairs
          la=2 lb=1:    589 shell pairs
          la=2 lb=2:    109 shell pairs

Calculating one electron integrals          ... done (  0.0 sec)
Calculating RI/J V-Matrix + Cholesky decomp.... done (  0.1 sec)
Calculating Nuclear repulsion               ... done (  0.0 sec) ENN=   2778.740742997292 Eh

Diagonalization of the overlap matrix:
Smallest eigenvalue                        ... 3.286e-03
Time for diagonalization                   ...    0.010 sec
Threshold for overlap eigenvalues          ... 1.000e-07
Number of eigenvalues below threshold      ... 0
Time for construction of square roots      ...    0.021 sec
Total time needed                          ...    0.040 sec

-------------------
DFT GRID GENERATION
-------------------

General Integration Accuracy     IntAcc      ... 4.159
Radial Grid Type                 RadialGrid  ... OptM3 with GC (2021)
Angular Grid (max. ang.)         AngularGrid ... 3 (Lebedev-194)
Angular grid pruning method      GridPruning ... 4 (adaptive)
Weight generation scheme         WeightScheme... mBecke (2022)
Basis function cutoff            BFCut       ... 1.0000e-10
Integration weight cutoff        WCut        ... 1.0000e-14
Partially contracted basis set               ... off
Rotationally invariant grid construction     ... off
Angular grids for H and He will be reduced by one unit

Total number of grid points                  ...    97509
Total number of batches                      ...     1543
Average number of points per batch           ...       63
Average number of grid points per atom       ...     2378
Initializing property integral containers    ... done (  0.0 sec)

SHARK setup successfully completed in   1.5 seconds

Maximum memory used throughout the entire STARTUP-calculation: 51.6 MB
-------------------------------------------------------------------------------
                                 ORCA GUESS
                   Start orbitals & Density for SCF / CASSCF
-------------------------------------------------------------------------------

------------
SCF SETTINGS
------------
Hamiltonian:
 Density Functional     Method          .... DFT(GTOs)
 Exchange Functional    Exchange        .... PBE
   PBE kappa parameter   XKappa         ....  0.804000
   PBE mue parameter    XMuePBE         ....  0.219520
 Correlation Functional Correlation     .... PBE
   PBE beta parameter  CBetaPBE         ....  0.066725
 LDA part of GGA corr.  LDAOpt          .... PW91-LDA
 Gradients option       PostSCFGGA      .... off
   NL short-range parameter             ....  6.400000
 RI-approximation to the Coulomb term is turned on
   Number of AuxJ basis functions       .... 1185


General Settings:
 Integral files         IntName         .... sp
 Hartree-Fock type      HFTyp           .... RHF
 Total Charge           Charge          ....    0
 Multiplicity           Mult            ....    1
 Number of Electrons    NEL             ....  202
 Basis Dimension        Dim             ....  334
 Nuclear Repulsion      ENuc            ....   2778.7407429973 Eh

Convergence Acceleration:
 AO-DIIS                CNVDIIS         .... on
   Start iteration      DIISMaxIt       ....    12
   Startup error        DIISStart       ....  0.200000
   # of expansion vecs  DIISMaxEq       ....     5
   Bias factor          DIISBfac        ....   1.050
   Max. coefficient     DIISMaxC        ....  10.000
 MO-DIIS                CNVKDIIS        .... off
 Trust-Rad. Augm. Hess. CNVTRAH         .... auto
   Auto Start mean grad. ratio tolernc. ....  1.125000
   Auto Start start iteration           ....    50
   Auto Start num. interpolation iter.  ....    10
   Max. Number of Micro iterations      ....    24
   Max. Number of Macro iterations      .... Maxiter - #DIIS iter
   Number of Davidson start vectors     ....     2
   Converg. threshold    (grad. norm)   ....   1.000e-04
   Grad. Scal. Fac. for Micro threshold ....   0.100
   Minimum threshold for Micro iter.    ....   1.000e-02
   NR start threshold (gradient norm)   ....   1.000e-04
   Initial trust radius                 ....   0.400
   Minimum AH scaling param. (alpha)    ....   1.000
   Maximum AH scaling param. (alpha)    .... 1000.000
   Quad. conv. algorithm                .... NR
   White noise on init. David. guess    .... on
   Maximum white noise                  ....   0.010
   Pseudo random numbers                .... off
   Inactive MOs                         .... canonical
   Orbital update algorithm             .... Taylor
   Preconditioner                       .... Diag
   Full preconditioner red. dimension   ....   250
 SOSCF                  CNVSOSCF        .... on
   Start iteration      SOSCFMaxIt      ....   150
   Startup grad/error   SOSCFStart      ....  0.003300
   Hessian update       SOSCFHessUp     .... L-BFGS
 Level Shifting         CNVShift        .... on
   Level shift para.    LevelShift      ....    0.2500
   Turn off err/grad.   ShiftErr        ....    0.0010
 Zerner damping         CNVZerner       .... off
 Static damping         CNVDamp         .... on
   Fraction old density DampFac         ....    0.7000
   Max. Damping (<1)    DampMax         ....    0.9800
   Min. Damping (>=0)   DampMin         ....    0.0000
   Turn off err/grad.   DampErr         ....    0.1000

SCF Procedure:
 Maximum # iterations   MaxIter         ....   125
 SCF integral mode      SCFMode         .... Direct
   Integral package                     .... SHARK and LIBINT hybrid scheme
 Reset frequency        DirectResetFreq ....    20
 Integral Threshold     Thresh          ....  1.000e-09 Eh
 Primitive CutOff       TCut            ....  1.000e-10 Eh

Convergence Tolerance:
 Convergence Check Mode ConvCheckMode   .... Total+1el-Energy
 Convergence forced     ConvForced      .... 0
 Energy Change          TolE            ....  1.000e-05 Eh
 1-El. energy change                    ....  1.000e-02 Eh
 Orbital Gradient       TolG            ....  1.000e-04
 Orbital Rotation angle TolX            ....  1.000e-04
 DIIS Error             TolErr          ....  5.000e-04

------------------------------
INITIAL GUESS: MODEL POTENTIAL
------------------------------
Loading Hartree-Fock densities                     ... done
Calculating cut-offs                               ... done
Initializing the effective Hamiltonian             ... done
Setting up the integral package (SHARK)            ... done
Starting the Coulomb interaction                   ... done (   0.6 sec)
Making the grid                                    ... done (   0.6 sec)
Mapping shells                                     ... done
Starting the XC term evaluation                    ... done (   0.4 sec)
  promolecular density results
     # of electrons  =    201.985416633
     EX              =   -229.992742859
     EC              =     -7.285254089
     EX+EC           =   -237.277996949
Transforming the Hamiltonian                       ... done (   0.0 sec)
Diagonalizing the Hamiltonian                      ... done (   0.0 sec)
Back transforming the eigenvectors                 ... done (   0.0 sec)
Now organizing SCF variables                       ... done
                      ------------------
                      INITIAL GUESS DONE (   1.6 sec)
                      ------------------
             **** ENERGY FILE WAS UPDATED (sp.en.tmp) ****
Finished Guess after   1.9 sec
Maximum memory used throughout the entire GUESS-calculation: 39.0 MB

-------------------------------------------------------------------------------------------
                                      ORCA LEAN-SCF
                              memory conserving SCF solver
-------------------------------------------------------------------------------------------

----------------------------------------D-I-I-S--------------------------------------------
Iteration    Energy (Eh)           Delta-E    RMSDP     MaxDP     DIISErr   Damp  Time(sec)
-------------------------------------------------------------------------------------------
               ***  Starting incremental Fock matrix formation  ***
    1    -2929.1890435676641573     0.00e+00  2.67e-03  1.35e-01  1.83e-01  0.700   2.2
    2    -2929.4125726192505681    -2.24e-01  1.74e-03  7.06e-02  7.44e-02  0.700   2.1
                               ***Turning on AO-DIIS***
    3    -2929.4842410601586380    -7.17e-02  6.89e-04  1.69e-02  2.15e-02  0.700   2.0
    4    -2929.5291717592181158    -4.49e-02  1.05e-03  3.31e-02  9.99e-03  0.000   1.9
    5    -2929.6335984252664275    -1.04e-01  3.09e-04  1.12e-02  7.92e-03  0.000   2.0
                              *** Initializing SOSCF ***
---------------------------------------S-O-S-C-F--------------------------------------
Iteration    Energy (Eh)           Delta-E    RMSDP     MaxDP     MaxGrad    Time(sec)
--------------------------------------------------------------------------------------
    6    -2929.6346558975892549    -1.06e-03  1.08e-04  3.11e-03  1.82e-03     1.9
               *** Restarting incremental Fock matrix formation ***
    7    -2929.6347864785129786    -1.31e-04  7.70e-05  2.06e-03  2.63e-04     2.2
    8    -2929.6347902821853495    -3.80e-06  3.15e-05  9.04e-04  2.04e-04     1.8
                 **** Energy Check signals convergence ****

               *****************************************************
               *                     SUCCESS                       *
               *           SCF CONVERGED AFTER   8 CYCLES          *
               *****************************************************

             **** ENERGY FILE WAS UPDATED (sp.en.tmp) ****

----------------
TOTAL SCF ENERGY
----------------

Total Energy       :      -2929.63479028218535 Eh          -79719.41550 eV

Components:
Nuclear Repulsion  :       2778.74074299729182 Eh           75613.37973 eV
Electronic Energy  :      -5708.37553327947717 Eh         -155332.79523 eV
One Electron Energy:      -9577.03148168512416 Eh         -260604.27548 eV
Two Electron Energy:       3868.65594840564745 Eh          105271.48025 eV

Virial components:
Potential Energy   :      -5848.94386165896140 Eh         -159157.85390 eV
Kinetic Energy     :       2919.30907137677605 Eh           79438.43840 eV
Virial Ratio       :          2.00353704203733

DFT components:
N(Alpha)           :      101.000393109192 electrons
N(Beta)            :      101.000393109192 electrons
N(Total)           :      202.000786218383 electrons
E(X)               :     -231.805438676309 Eh       
E(C)               :       -7.294567463418 Eh       
E(XC)              :     -239.100006139727 Eh       

---------------
SCF CONVERGENCE
---------------

  Last Energy change         ...    3.8037e-06  Tolerance :   1.0000e-05
  Last MAX-Density change    ...    9.0414e-04  Tolerance :   1.0000e-03
  Last RMS-Density change    ...    3.1465e-05  Tolerance :   1.0000e-04
  Last DIIS Error            ...    1.8164e-03  Tolerance :   5.0000e-04
  Last Orbital Gradient      ...    2.0387e-04  Tolerance :   1.0000e-04
  Last Orbital Rotation      ...    4.0807e-04  Tolerance :   1.0000e-04


----------------
ORBITAL ENERGIES
----------------

  NO   OCC          E(Eh)            E(eV) 
   0   2.0000     -88.038636     -2395.6531 
   1   2.0000     -88.037659     -2395.6265 
   2   2.0000     -87.986502     -2394.2344 
   3   2.0000     -87.971545     -2393.8274 
   4   2.0000     -76.424884     -2079.6268 
   5   2.0000     -76.416710     -2079.4044 
   6   2.0000     -18.788572      -511.2630 
   7   2.0000     -18.788087      -511.2498 
   8   2.0000     -18.785116      -511.1690 
   9   2.0000     -18.783429      -511.1231 
  10   2.0000      -9.954355      -270.8718 
  11   2.0000      -9.953203      -270.8404 
  12   2.0000      -9.953187      -270.8400 
  13   2.0000      -9.950140      -270.7571 
  14   2.0000      -9.940218      -270.4871 
  15   2.0000      -9.886429      -269.0234 
  16   2.0000      -9.882673      -268.9212 
  17   2.0000      -9.879731      -268.8411 
  18   2.0000      -9.877313      -268.7754 
  19   2.0000      -7.684162      -209.0967 
  20   2.0000      -7.683250      -209.0719 
  21   2.0000      -7.631226      -207.6562 
  22   2.0000      -7.616753      -207.2624 
  23   2.0000      -6.422109      -174.7545 
  24   2.0000      -6.414616      -174.5506 
  25   2.0000      -5.712109      -155.4344 
  26   2.0000      -5.711115      -155.4073 
  27   2.0000      -5.708512      -155.3365 
  28   2.0000      -5.707681      -155.3139 
  29   2.0000      -5.701118      -155.1353 
  30   2.0000      -5.700236      -155.1113 
  31   2.0000      -5.659914      -154.0141 
  32   2.0000      -5.652262      -153.8059 
  33   2.0000      -5.651147      -153.7755 
  34   2.0000      -5.645860      -153.6317 
  35   2.0000      -5.637345      -153.4000 
  36   2.0000      -5.636677      -153.3818 
  37   2.0000      -4.644841      -126.3926 
  38   2.0000      -4.643558      -126.3576 
  39   2.0000      -4.642784      -126.3366 
  40   2.0000      -4.637601      -126.1955 
  41   2.0000      -4.636206      -126.1576 
  42   2.0000      -4.634856      -126.1209 
  43   2.0000      -0.984397       -26.7868 
  44   2.0000      -0.978654       -26.6305 
  45   2.0000      -0.939558       -25.5667 
  46   2.0000      -0.938173       -25.5290 
  47   2.0000      -0.758009       -20.6265 
  48   2.0000      -0.718890       -19.5620 
  49   2.0000      -0.706518       -19.2253 
  50   2.0000      -0.687547       -18.7091 
  51   2.0000      -0.684960       -18.6387 
  52   2.0000      -0.669854       -18.2277 
  53   2.0000      -0.649238       -17.6667 
  54   2.0000      -0.631227       -17.1765 
  55   2.0000      -0.593627       -16.1534 
  56   2.0000      -0.580963       -15.8088 
  57   2.0000      -0.573729       -15.6120 
  58   2.0000      -0.572478       -15.5779 
  59   2.0000      -0.557945       -15.1825 
  60   2.0000      -0.500744       -13.6259 
  61   2.0000      -0.494356       -13.4521 
  62   2.0000      -0.472696       -12.8627 
  63   2.0000      -0.469434       -12.7740 
  64   2.0000      -0.450399       -12.2560 
  65   2.0000      -0.445265       -12.1163 
  66   2.0000      -0.436708       -11.8834 
  67   2.0000      -0.432797       -11.7770 
  68   2.0000      -0.422006       -11.4834 
  69   2.0000      -0.409777       -11.1506 
  70   2.0000      -0.406617       -11.0646 
  71   2.0000      -0.399419       -10.8687 
  72   2.0000      -0.394336       -10.7304 
  73   2.0000      -0.385063       -10.4781 
  74   2.0000      -0.376085       -10.2338 
  75   2.0000      -0.367499       -10.0002 
  76   2.0000      -0.362923        -9.8756 
  77   2.0000      -0.354561        -9.6481 
  78   2.0000      -0.351527        -9.5655 
  79   2.0000      -0.348870        -9.4932 
  80   2.0000      -0.342991        -9.3333 
  81   2.0000      -0.340032        -9.2527 
  82   2.0000      -0.335975        -9.1423 
  83   2.0000      -0.332591        -9.0503 
  84   2.0000      -0.331116        -9.0101 
  85   2.0000      -0.313884        -8.5412 
  86   2.0000      -0.308232        -8.3874 
  87   2.0000      -0.300653        -8.1812 
  88   2.0000      -0.296798        -8.0763 
  89   2.0000      -0.286309        -7.7909 
  90   2.0000      -0.273930        -7.4540 
  91   2.0000      -0.269025        -7.3205 
  92   2.0000      -0.266496        -7.2517 
  93   2.0000      -0.261278        -7.1097 
  94   2.0000      -0.257726        -7.0131 
  95   2.0000      -0.234873        -6.3912 
  96   2.0000      -0.220076        -5.9886 
  97   2.0000      -0.206434        -5.6174 
  98   2.0000      -0.202377        -5.5070 
  99   2.0000      -0.187897        -5.1129 
 100   2.0000      -0.179574        -4.8864 
 101   0.0000      -0.032180        -0.8757 
 102   0.0000      -0.026362        -0.7174 
 103   0.0000      -0.010906        -0.2968 
 104   0.0000       0.010466         0.2848 
 105   0.0000       0.016194         0.4407 
 106   0.0000       0.025732         0.7002 
 107   0.0000       0.034950         0.9510 
 108   0.0000       0.040660         1.1064 
 109   0.0000       0.044928         1.2225 
 110   0.0000       0.051587         1.4037 
 111   0.0000       0.057362         1.5609 
*Only the first 10 virtual orbitals were printed.

                    ********************************
                    * MULLIKEN POPULATION ANALYSIS *
                    ********************************

-----------------------
MULLIKEN ATOMIC CHARGES
-----------------------
   0 C :   -0.290157
   1 C :   -0.033224
   2 O :   -0.367183
   3 P :    0.609927
   4 S :   -0.303095
   5 O :   -0.387429
   6 C :   -0.016004
   7 C :   -0.310737
   8 S :   -0.105837
   9 C :   -0.354559
  10 S :   -0.073861
  11 P :    0.637297
  12 S :   -0.330109
  13 O :   -0.384611
  14 C :    0.003915
  15 C :   -0.292551
  16 O :   -0.354527
  17 C :    0.001831
  18 C :   -0.322791
  19 H :    0.109813
  20 H :    0.131066
  21 H :    0.122979
  22 H :    0.109742
  23 H :    0.109498
  24 H :    0.128814
  25 H :    0.100050
  26 H :    0.111526
  27 H :    0.107731
  28 H :    0.129546
  29 H :    0.204334
  30 H :    0.180786
  31 H :    0.106067
  32 H :    0.092374
  33 H :    0.125755
  34 H :    0.110487
  35 H :    0.107489
  36 H :    0.110760
  37 H :    0.106604
  38 H :    0.125223
  39 H :    0.135368
  40 H :    0.107693
Sum of atomic charges:   -0.0000000

--------------------------------
MULLIKEN REDUCED ORBITAL CHARGES
--------------------------------
  0 C s       :     3.094972  s :     3.094972
      pz      :     1.042444  p :     3.167338
      px      :     1.065714
      py      :     1.059180
      dz2     :     0.006724  d :     0.027847
      dxz     :     0.002820
      dyz     :     0.007660
      dx2y2   :     0.002493
      dxy     :     0.008149

  1 C s       :     3.092052  s :     3.092052
      pz      :     1.065566  p :     2.881677
      px      :     0.838993
      py      :     0.977118
      dz2     :     0.011002  d :     0.059494
      dxz     :     0.008882
      dyz     :     0.011304
      dx2y2   :     0.009078
      dxy     :     0.019229

  2 O s       :     3.768191  s :     3.768191
      pz      :     1.719035  p :     4.585728
      px      :     1.232803
      py      :     1.633889
      dz2     :     0.001892  d :     0.013264
      dxz     :     0.003072
      dyz     :     0.001929
      dx2y2   :     0.002530
      dxy     :     0.003841

  3 P s       :     5.185066  s :     5.185066
      pz      :     2.807432  p :     8.617794
      px      :     2.861896
      py      :     2.948466
      dz2     :     0.147487  d :     0.587213
      dxz     :     0.128002
      dyz     :     0.083701
      dx2y2   :     0.136539
      dxy     :     0.091485

  4 S s       :     5.913530  s :     5.913530
      pz      :     3.633840  p :    10.346314
      px      :     3.432333
      py      :     3.280141
      dz2     :     0.005661  d :     0.043252
      dxz     :     0.006641
      dyz     :     0.007217
      dx2y2   :     0.008842
      dxy     :     0.014891

  5 O s       :     3.762699  s :     3.762699
      pz      :     1.295263  p :     4.611662
      px      :     1.766368
      py      :     1.550031
      dz2     :     0.003999  d :     0.013068
      dxz     :     0.001949
      dyz     :     0.003369
      dx2y2   :     0.002187
      dxy     :     0.001563

  6 C s       :     3.088744  s :     3.088744
      pz      :     0.931909  p :     2.866995
      px      :     1.076182
      py      :     0.858904
      dz2     :     0.012277  d :     0.060264
      dxz     :     0.005691
      dyz     :     0.017370
      dx2y2   :     0.011246
      dxy     :     0.013680

  7 C s       :     3.098667  s :     3.098667
      pz      :     1.092428  p :     3.184015
      px      :     1.038080
      py      :     1.053507
      dz2     :     0.006057  d :     0.028056
      dxz     :     0.002133
      dyz     :     0.007791
      dx2y2   :     0.005131
      dxy     :     0.006944

  8 S s       :     5.864850  s :     5.864850
      pz      :     3.672716  p :    10.166059
      px      :     3.267293
      py      :     3.226050
      dz2     :     0.009773  d :     0.074928
      dxz     :     0.016574
      dyz     :     0.008669
      dx2y2   :     0.027956
      dxy     :     0.011956

  9 C s       :     3.219486  s :     3.219486
      pz      :     1.076173  p :     3.095763
      px      :     0.881115
      py      :     1.138476
      dz2     :     0.006898  d :     0.039309
      dxz     :     0.009495
      dyz     :     0.005216
      dx2y2   :     0.013435
      dxy     :     0.004265

 10 S s       :     5.876021  s :     5.876021
      pz      :     3.464632  p :    10.125350
      px      :     3.227806
      py      :     3.432912
      dz2     :     0.008425  d :     0.072490
      dxz     :     0.022006
      dyz     :     0.014932
      dx2y2   :     0.015560
      dxy     :     0.011567

 11 P s       :     5.192867  s :     5.192867
      pz      :     2.856090  p :     8.579869
      px      :     2.824687
      py      :     2.899091
      dz2     :     0.119838  d :     0.589968
      dxz     :     0.116967
      dyz     :     0.132266
      dx2y2   :     0.115440
      dxy     :     0.105457

 12 S s       :     5.917345  s :     5.917345
      pz      :     3.184696  p :    10.369188
      px      :     3.569416
      py      :     3.615076
      dz2     :     0.014693  d :     0.043575
      dxz     :     0.013953
      dyz     :     0.008316
      dx2y2   :     0.002967
      dxy     :     0.003647

 13 O s       :     3.763413  s :     3.763413
      pz      :     1.576946  p :     4.608394
      px      :     1.419123
      py      :     1.612325
      dz2     :     0.002542  d :     0.012804
      dxz     :     0.002239
      dyz     :     0.002502
      dx2y2   :     0.003176
      dxy     :     0.002345

 14 C s       :     3.068473  s :     3.068473
      pz      :     0.877529  p :     2.867637
      px      :     1.023208
      py      :     0.966900
      dz2     :     0.011982  d :     0.059975
      dxz     :     0.012455
      dyz     :     0.016479
      dx2y2   :     0.005252
      dxy     :     0.013808

 15 C s       :     3.096142  s :     3.096142
      pz      :     1.033810  p :     3.168617
      px      :     1.073084
      py      :     1.061723
      dz2     :     0.003054  d :     0.027792
      dxz     :     0.006020
      dyz     :     0.008284
      dx2y2   :     0.001503
      dxy     :     0.008929

 16 O s       :     3.751383  s :     3.751383
      pz      :     1.574806  p :     4.589864
      px      :     1.628541
      py      :     1.386517
      dz2     :     0.002985  d :     0.013280
      dxz     :     0.001988
      dyz     :     0.003570
      dx2y2   :     0.002054
      dxy     :     0.002683

 17 C s       :     3.077158  s :     3.077158
      pz      :     1.090951  p :     2.860668
      px      :     0.939340
      py      :     0.830377
      dz2     :     0.013552  d :     0.060343
      dxz     :     0.004315
      dyz     :     0.011787
      dx2y2   :     0.014009
      dxy     :     0.016680

 18 C s       :     3.111308  s :     3.111308
      pz      :     1.053385  p :     3.183600
      px      :     1.094297
      py      :     1.035918
      dz2     :     0.008705  d :     0.027883
      dxz     :     0.002011
      dyz     :     0.005954
      dx2y2   :     0.004530
      dxy     :     0.006683

 19 H s       :     0.890187  s :     0.890187

 20 H s       :     0.868934  s :     0.868934

 21 H s       :     0.877021  s :     0.877021

 22 H s       :     0.890258  s :     0.890258

 23 H s       :     0.890502  s :     0.890502

 24 H s       :     0.871186  s :     0.871186

 25 H s       :     0.899950  s :     0.899950

 26 H s       :     0.888474  s :     0.888474

 27 H s       :     0.892269  s :     0.892269

 28 H s       :     0.870454  s :     0.870454

 29 H s       :     0.795666  s :     0.795666

 30 H s       :     0.819214  s :     0.819214

 31 H s       :     0.893933  s :     0.893933

 32 H s       :     0.907626  s :     0.907626

 33 H s       :     0.874245  s :     0.874245

 34 H s       :     0.889513  s :     0.889513

 35 H s       :     0.892511  s :     0.892511

 36 H s       :     0.889240  s :     0.889240

 37 H s       :     0.893396  s :     0.893396

 38 H s       :     0.874777  s :     0.874777

 39 H s       :     0.864632  s :     0.864632

 40 H s       :     0.892307  s :     0.892307


------------------------
MULLIKEN OVERLAP CHARGES
------------------------
B(  0-C ,  1-C ) :   0.9033 B(  0-C ,  2-O ) :  -0.1057 B(  0-C , 19-H ) :   0.6922 
B(  0-C , 20-H ) :   0.7538 B(  0-C , 21-H ) :   0.7349 B(  0-C , 22-H ) :  -0.0534 
B(  0-C , 23-H ) :  -0.0607 B(  1-C ,  2-O ) :   0.5108 B(  1-C , 22-H ) :   0.7304 
B(  1-C , 23-H ) :   0.7024 B(  2-O ,  3-P ) :   0.6238 B(  2-O ,  4-S ) :  -0.0790 
B(  2-O ,  5-O ) :  -0.0534 B(  2-O ,  8-S ) :  -0.0678 B(  2-O , 22-H ) :  -0.0576 
B(  2-O , 23-H ) :  -0.0628 B(  3-P ,  4-S ) :   0.9717 B(  3-P ,  5-O ) :   0.5939 
B(  3-P ,  6-C ) :  -0.0741 B(  3-P ,  8-S ) :   0.5388 B(  4-S ,  5-O ) :  -0.0719 
B(  4-S ,  8-S ) :  -0.0605 B(  4-S , 24-H ) :   0.0560 B(  5-O ,  6-C ) :   0.5441 
B(  5-O ,  7-C ) :  -0.0905 B(  5-O ,  8-S ) :  -0.0941 B(  5-O , 24-H ) :  -0.0627 
B(  5-O , 25-H ) :  -0.0590 B(  6-C ,  7-C ) :   0.8863 B(  6-C , 24-H ) :   0.7204 
B(  6-C , 25-H ) :   0.7330 B(  7-C , 24-H ) :  -0.0729 B(  7-C , 25-H ) :  -0.0598 
B(  7-C , 26-H ) :   0.7031 B(  7-C , 27-H ) :   0.7185 B(  7-C , 28-H ) :   0.7211 
B(  8-S ,  9-C ) :   0.4439 B(  8-S , 10-S ) :  -0.1526 B(  8-S , 30-H ) :  -0.0693 
B(  9-C , 10-S ) :   0.4887 B(  9-C , 11-P ) :  -0.0547 B(  9-C , 12-S ) :  -0.0573 
B(  9-C , 29-H ) :   0.5947 B(  9-C , 30-H ) :   0.7265 B( 10-S , 11-P ) :   0.5221 
B( 10-S , 12-S ) :  -0.1005 B( 10-S , 13-O ) :  -0.0633 B( 10-S , 16-O ) :  -0.0696 
B( 10-S , 29-H ) :  -0.0509 B( 10-S , 30-H ) :  -0.0644 B( 11-P , 12-S ) :   0.9294 
B( 11-P , 13-O ) :   0.6196 B( 11-P , 14-C ) :  -0.0878 B( 11-P , 16-O ) :   0.6894 
B( 11-P , 17-C ) :  -0.0878 B( 12-S , 13-O ) :  -0.0814 B( 12-S , 16-O ) :  -0.0527 
B( 12-S , 29-H ) :   0.1246 B( 13-O , 14-C ) :   0.5527 B( 13-O , 15-C ) :  -0.1003 
B( 13-O , 16-O ) :  -0.0730 B( 13-O , 31-H ) :  -0.0576 B( 13-O , 32-H ) :  -0.0665 
B( 14-C , 15-C ) :   0.8955 B( 14-C , 31-H ) :   0.7370 B( 14-C , 32-H ) :   0.6767 
B( 15-C , 31-H ) :  -0.0598 B( 15-C , 32-H ) :  -0.0577 B( 15-C , 33-H ) :   0.7178 
B( 15-C , 34-H ) :   0.7333 B( 15-C , 35-H ) :   0.6916 B( 16-O , 17-C ) :   0.5550 
B( 16-O , 18-C ) :  -0.0966 B( 16-O , 36-H ) :  -0.0579 B( 16-O , 37-H ) :  -0.0583 
B( 17-C , 18-C ) :   0.9044 B( 17-C , 36-H ) :   0.7372 B( 17-C , 37-H ) :   0.7403 
B( 18-C , 37-H ) :  -0.0729 B( 18-C , 38-H ) :   0.7366 B( 18-C , 39-H ) :   0.7436 
B( 18-C , 40-H ) :   0.6870 B( 22-H , 23-H ) :  -0.0689 B( 24-H , 25-H ) :  -0.0624 
B( 27-H , 28-H ) :  -0.0530 B( 31-H , 32-H ) :  -0.0655 B( 36-H , 37-H ) :  -0.0712 



                     *******************************
                     * LOEWDIN POPULATION ANALYSIS *
                     *******************************

----------------------
LOEWDIN ATOMIC CHARGES
----------------------
   0 C :   -0.359705
   1 C :   -0.122071
   2 O :   -0.242079
   3 P :    0.559923
   4 S :   -0.304596
   5 O :   -0.253779
   6 C :   -0.125957
   7 C :   -0.366213
   8 S :    0.082192
   9 C :   -0.481699
  10 S :    0.085920
  11 P :    0.572597
  12 S :   -0.296286
  13 O :   -0.253239
  14 C :   -0.116042
  15 C :   -0.361580
  16 O :   -0.226432
  17 C :   -0.107769
  18 C :   -0.368410
  19 H :    0.130201
  20 H :    0.120229
  21 H :    0.130569
  22 H :    0.119690
  23 H :    0.108723
  24 H :    0.108775
  25 H :    0.116079
  26 H :    0.130634
  27 H :    0.120018
  28 H :    0.125808
  29 H :    0.123883
  30 H :    0.136858
  31 H :    0.117909
  32 H :    0.105159
  33 H :    0.124131
  34 H :    0.123766
  35 H :    0.128722
  36 H :    0.122990
  37 H :    0.110963
  38 H :    0.120228
  39 H :    0.131856
  40 H :    0.128033

-------------------------------
LOEWDIN REDUCED ORBITAL CHARGES
-------------------------------
  0 C s       :     2.952424  s :     2.952424
      pz      :     1.100573  p :     3.338218
      px      :     1.126215
      py      :     1.111429
      dz2     :     0.016238  d :     0.069063
      dxz     :     0.006660
      dyz     :     0.020479
      dx2y2   :     0.005587
      dxy     :     0.020099

  1 C s       :     2.930205  s :     2.930205
      pz      :     1.106821  p :     3.059312
      px      :     0.913373
      py      :     1.039119
      dz2     :     0.023994  d :     0.132553
      dxz     :     0.018640
      dyz     :     0.029264
      dx2y2   :     0.018050
      dxy     :     0.042605

  2 O s       :     3.509695  s :     3.509695
      pz      :     1.726914  p :     4.708358
      px      :     1.324823
      py      :     1.656621
      dz2     :     0.002885  d :     0.024026
      dxz     :     0.005993
      dyz     :     0.002304
      dx2y2   :     0.005390
      dxy     :     0.007453

  3 P s       :     5.054297  s :     5.054297
      pz      :     2.797387  p :     8.566838
      px      :     2.841441
      py      :     2.928010
      dz2     :     0.219523  d :     0.818942
      dxz     :     0.171713
      dyz     :     0.108681
      dx2y2   :     0.193541
      dxy     :     0.125484

  4 S s       :     5.764694  s :     5.764694
      pz      :     3.644193  p :    10.481565
      px      :     3.470850
      py      :     3.366522
      dz2     :     0.007358  d :     0.058337
      dxz     :     0.008527
      dyz     :     0.009744
      dx2y2   :     0.010074
      dxy     :     0.022634

  5 O s       :     3.506980  s :     3.506980
      pz      :     1.379888  p :     4.722764
      px      :     1.758793
      py      :     1.584083
      dz2     :     0.008778  d :     0.024036
      dxz     :     0.003251
      dyz     :     0.006595
      dx2y2   :     0.003289
      dxy     :     0.002122

  6 C s       :     2.928596  s :     2.928596
      pz      :     0.994888  p :     3.062627
      px      :     1.125734
      py      :     0.942004
      dz2     :     0.028637  d :     0.134735
      dxz     :     0.010493
      dyz     :     0.038079
      dx2y2   :     0.022721
      dxy     :     0.034805

  7 C s       :     2.952958  s :     2.952958
      pz      :     1.138695  p :     3.343790
      px      :     1.096152
      py      :     1.108942
      dz2     :     0.015540  d :     0.069465
      dxz     :     0.004475
      dyz     :     0.018668
      dx2y2   :     0.011662
      dxy     :     0.019119

  8 S s       :     5.629641  s :     5.629641
      pz      :     3.669300  p :    10.193433
      px      :     3.286500
      py      :     3.237633
      dz2     :     0.012250  d :     0.094734
      dxz     :     0.020869
      dyz     :     0.009753
      dx2y2   :     0.037024
      dxy     :     0.014838

  9 C s       :     3.064340  s :     3.064340
      pz      :     1.135184  p :     3.330712
      px      :     1.018981
      py      :     1.176546
      dz2     :     0.014486  d :     0.086647
      dxz     :     0.021958
      dyz     :     0.011518
      dx2y2   :     0.030508
      dxy     :     0.008177

 10 S s       :     5.644601  s :     5.644601
      pz      :     3.497631  p :    10.178023
      px      :     3.255693
      py      :     3.424699
      dz2     :     0.009484  d :     0.091456
      dxz     :     0.028111
      dyz     :     0.018522
      dx2y2   :     0.020282
      dxy     :     0.015057

 11 P s       :     5.054715  s :     5.054715
      pz      :     2.879964  p :     8.554110
      px      :     2.815688
      py      :     2.858458
      dz2     :     0.165746  d :     0.818578
      dxz     :     0.156761
      dyz     :     0.192180
      dx2y2   :     0.164856
      dxy     :     0.139034

 12 S s       :     5.761518  s :     5.761518
      pz      :     3.269155  p :    10.476776
      px      :     3.578438
      py      :     3.629183
      dz2     :     0.020061  d :     0.057993
      dxz     :     0.019780
      dyz     :     0.010520
      dx2y2   :     0.003427
      dxy     :     0.004205

 13 O s       :     3.502299  s :     3.502299
      pz      :     1.601914  p :     4.727437
      px      :     1.494194
      py      :     1.631330
      dz2     :     0.004810  d :     0.023502
      dxz     :     0.003628
      dyz     :     0.004485
      dx2y2   :     0.006596
      dxy     :     0.003983

 14 C s       :     2.928336  s :     2.928336
      pz      :     0.954735  p :     3.053667
      px      :     1.090839
      py      :     1.008092
      dz2     :     0.024581  d :     0.134039
      dxz     :     0.028023
      dyz     :     0.039210
      dx2y2   :     0.009648
      dxy     :     0.032578

 15 C s       :     2.953731  s :     2.953731
      pz      :     1.094708  p :     3.339046
      px      :     1.126028
      py      :     1.118310
      dz2     :     0.006965  d :     0.068803
      dxz     :     0.015407
      dyz     :     0.021414
      dx2y2   :     0.003157
      dxy     :     0.021860

 16 O s       :     3.493724  s :     3.493724
      pz      :     1.620982  p :     4.708690
      px      :     1.647838
      py      :     1.439870
      dz2     :     0.004967  d :     0.024018
      dxz     :     0.002562
      dyz     :     0.007387
      dx2y2   :     0.003906
      dxy     :     0.005196

 17 C s       :     2.926148  s :     2.926148
      pz      :     1.124587  p :     3.047574
      px      :     1.007516
      py      :     0.915472
      dz2     :     0.030365  d :     0.134047
      dxz     :     0.007508
      dyz     :     0.029317
      dx2y2   :     0.030720
      dxy     :     0.036138

 18 C s       :     2.953263  s :     2.953263
      pz      :     1.105995  p :     3.346143
      px      :     1.139364
      py      :     1.100784
      dz2     :     0.020451  d :     0.069004
      dxz     :     0.004360
      dyz     :     0.016914
      dx2y2   :     0.011505
      dxy     :     0.015774

 19 H s       :     0.869799  s :     0.869799

 20 H s       :     0.879771  s :     0.879771

 21 H s       :     0.869431  s :     0.869431

 22 H s       :     0.880310  s :     0.880310

 23 H s       :     0.891277  s :     0.891277

 24 H s       :     0.891225  s :     0.891225

 25 H s       :     0.883921  s :     0.883921

 26 H s       :     0.869366  s :     0.869366

 27 H s       :     0.879982  s :     0.879982

 28 H s       :     0.874192  s :     0.874192

 29 H s       :     0.876117  s :     0.876117

 30 H s       :     0.863142  s :     0.863142

 31 H s       :     0.882091  s :     0.882091

 32 H s       :     0.894841  s :     0.894841

 33 H s       :     0.875869  s :     0.875869

 34 H s       :     0.876234  s :     0.876234

 35 H s       :     0.871278  s :     0.871278

 36 H s       :     0.877010  s :     0.877010

 37 H s       :     0.889037  s :     0.889037

 38 H s       :     0.879772  s :     0.879772

 39 H s       :     0.868144  s :     0.868144

 40 H s       :     0.871967  s :     0.871967


---------------------------------
LOEWDIN BOND ORDERS (THRESH 0.050000)
---------------------------------
B(  0-C ,  1-C ) :   1.1584 B(  0-C ,  2-O ) :   0.0606 B(  0-C , 19-H ) :   0.9265 
B(  0-C , 20-H ) :   0.9283 B(  0-C , 21-H ) :   0.9349 B(  1-C ,  2-O ) :   1.0781 
B(  1-C ,  3-P ) :   0.0641 B(  1-C , 22-H ) :   0.9169 B(  1-C , 23-H ) :   0.9118 
B(  2-O ,  3-P ) :   1.2866 B(  2-O ,  4-S ) :   0.0772 B(  2-O ,  5-O ) :   0.0586 
B(  2-O ,  8-S ) :   0.0622 B(  3-P ,  4-S ) :   1.7842 B(  3-P ,  5-O ) :   1.2429 
B(  3-P ,  6-C ) :   0.0634 B(  3-P ,  8-S ) :   1.0666 B(  4-S ,  5-O ) :   0.0968 
B(  4-S ,  8-S ) :   0.1189 B(  5-O ,  6-C ) :   1.0899 B(  5-O ,  7-C ) :   0.0595 
B(  5-O ,  8-S ) :   0.0538 B(  6-C ,  7-C ) :   1.1558 B(  6-C , 24-H ) :   0.9012 
B(  6-C , 25-H ) :   0.9172 B(  7-C , 26-H ) :   0.9267 B(  7-C , 27-H ) :   0.9373 
B(  7-C , 28-H ) :   0.9286 B(  8-S ,  9-C ) :   1.1688 B(  8-S , 10-S ) :   0.0967 
B(  9-C , 10-S ) :   1.1686 B(  9-C , 29-H ) :   0.8875 B(  9-C , 30-H ) :   0.9251 
B( 10-S , 11-P ) :   1.0844 B( 10-S , 12-S ) :   0.1406 B( 10-S , 13-O ) :   0.0606 
B( 11-P , 12-S ) :   1.6845 B( 11-P , 13-O ) :   1.2513 B( 11-P , 14-C ) :   0.0650 
B( 11-P , 16-O ) :   1.3144 B( 11-P , 17-C ) :   0.0607 B( 12-S , 13-O ) :   0.0887 
B( 12-S , 16-O ) :   0.0821 B( 12-S , 29-H ) :   0.0812 B( 13-O , 14-C ) :   1.0855 
B( 13-O , 15-C ) :   0.0602 B( 13-O , 16-O ) :   0.0558 B( 14-C , 15-C ) :   1.1552 
B( 14-C , 31-H ) :   0.9186 B( 14-C , 32-H ) :   0.9095 B( 15-C , 33-H ) :   0.9285 
B( 15-C , 34-H ) :   0.9371 B( 15-C , 35-H ) :   0.9278 B( 16-O , 17-C ) :   1.0801 
B( 16-O , 18-C ) :   0.0568 B( 17-C , 18-C ) :   1.1593 B( 17-C , 36-H ) :   0.9171 
B( 17-C , 37-H ) :   0.9167 B( 18-C , 38-H ) :   0.9284 B( 18-C , 39-H ) :   0.9311 
B( 18-C , 40-H ) :   0.9252 

------------------------------------------
LOEWDIN REDUCED ORBITAL POPULATIONS PER MO
-------------------------------------------
THRESHOLD FOR PRINTING IS 0.1%%
                      0         1         2         3         4         5   
                 -88.03864 -88.03766 -87.98650 -87.97154 -76.42488 -76.41671
                   2.00000   2.00000   2.00000   2.00000   2.00000   2.00000
                  --------  --------  --------  --------  --------  --------
 3 P  s               0.0       0.0       0.0       0.0       0.0     100.0
 4 S  s               0.0       0.0       0.0     100.0       0.0       0.0
 8 S  s              99.9       0.1       0.0       0.0       0.0       0.0
10 S  s               0.1      99.9       0.0       0.0       0.0       0.0
11 P  s               0.0       0.0       0.0       0.0     100.0       0.0
12 S  s               0.0       0.0     100.0       0.0       0.0       0.0

                      6         7         8         9        10        11   
                 -18.78857 -18.78809 -18.78512 -18.78343  -9.95435  -9.95320
                   2.00000   2.00000   2.00000   2.00000   2.00000   2.00000
                  --------  --------  --------  --------  --------  --------
 1 C  s               0.0       0.0       0.0       0.0      99.7       0.0
 2 O  s               0.0      99.9       0.0       0.0       0.0       0.0
 5 O  s               0.0       0.0       0.0      99.9       0.0       0.0
 9 C  s               0.0       0.0       0.0       0.0       0.0      23.6
13 O  s              99.9       0.0       0.0       0.0       0.0       0.0
14 C  s               0.0       0.0       0.0       0.0       0.0      76.1
16 O  s               0.0       0.0      99.9       0.0       0.0       0.0

                     12        13        14        15        16        17   
                  -9.95319  -9.95014  -9.94022  -9.88643  -9.88267  -9.87973
                   2.00000   2.00000   2.00000   2.00000   2.00000   2.00000
                  --------  --------  --------  --------  --------  --------
 0 C  s               0.0       0.0       0.0      99.7       0.0       0.0
 6 C  s               0.0       0.0      99.7       0.0       0.0       0.0
 7 C  s               0.0       0.0       0.0       0.0       0.0      99.7
 9 C  s              76.2       0.0       0.0       0.0       0.0       0.0
14 C  s              23.5       0.0       0.0       0.0       0.0       0.0
15 C  s               0.0       0.0       0.0       0.0      99.7       0.0
17 C  s               0.0      99.7       0.0       0.0       0.0       0.0

                     18        19        20        21        22        23   
                  -9.87731  -7.68416  -7.68325  -7.63123  -7.61675  -6.42211
                   2.00000   2.00000   2.00000   2.00000   2.00000   2.00000
                  --------  --------  --------  --------  --------  --------
 4 S  s               0.0       0.0       0.0       0.0      99.9       0.0
 8 S  s               0.0      99.7       0.1       0.0       0.0       0.0
 9 C  px              0.0       0.1       0.1       0.0       0.0       0.0
10 S  s               0.0       0.1      99.7       0.0       0.0       0.0
11 P  s               0.0       0.0       0.0       0.0       0.0      99.3
12 S  s               0.0       0.0       0.0      99.9       0.0       0.0
13 O  px              0.0       0.0       0.0       0.0       0.0       0.2
16 O  pz              0.0       0.0       0.0       0.0       0.0       0.1
16 O  py              0.0       0.0       0.0       0.0       0.0       0.1
18 C  s              99.7       0.0       0.0       0.0       0.0       0.0

                     24        25        26        27        28        29   
                  -6.41462  -5.71211  -5.71112  -5.70851  -5.70768  -5.70112
                   2.00000   2.00000   2.00000   2.00000   2.00000   2.00000
                  --------  --------  --------  --------  --------  --------
 2 O  px              0.2       0.0       0.0       0.0       0.0       0.0
 3 P  s              99.3       0.0       0.0       0.0       0.0       0.0
 5 O  pz              0.2       0.0       0.0       0.0       0.0       0.0
 8 S  pz              0.0       2.3       0.0      25.8       0.0      71.8
 8 S  px              0.0      40.7       0.0      36.5       0.0      22.8
 8 S  py              0.0      56.9       0.0      37.7       0.0       5.4
10 S  pz              0.0       0.0       0.0       0.0      68.6       0.0
10 S  px              0.0       0.0      59.1       0.0      12.4       0.0
10 S  py              0.0       0.0      40.9       0.0      19.0       0.0

                     30        31        32        33        34        35   
                  -5.70024  -5.65991  -5.65226  -5.65115  -5.64586  -5.63735
                   2.00000   2.00000   2.00000   2.00000   2.00000   2.00000
                  --------  --------  --------  --------  --------  --------
 4 S  pz              0.0       0.0       0.0       0.0       9.2      19.5
 4 S  px              0.0       0.0       0.0       0.0      32.9      38.8
 4 S  py              0.0       0.0       0.0       0.0      57.9      41.7
10 S  pz             31.4       0.0       0.0       0.0       0.0       0.0
10 S  px             28.5       0.0       0.0       0.0       0.0       0.0
10 S  py             40.1       0.0       0.0       0.0       0.0       0.0
12 S  pz              0.0      78.8       0.2      21.0       0.0       0.0
12 S  px              0.0      14.9      22.2      62.9       0.0       0.0
12 S  py              0.0       6.2      77.7      16.1       0.0       0.0

                     36        37        38        39        40        41   
                  -5.63668  -4.64484  -4.64356  -4.64278  -4.63760  -4.63621
                   2.00000   2.00000   2.00000   2.00000   2.00000   2.00000
                  --------  --------  --------  --------  --------  --------
 3 P  pz              0.0       0.0       0.0       0.0      59.4      38.9
 3 P  px              0.0       0.0       0.0       0.0      30.3      30.5
 3 P  py              0.0       0.0       0.0       0.0      10.2      30.6
 4 S  pz             71.3       0.0       0.0       0.0       0.0       0.0
 4 S  px             28.3       0.0       0.0       0.0       0.0       0.0
 4 S  py              0.4       0.0       0.0       0.0       0.0       0.0
11 P  pz              0.0      30.1       2.7      67.1       0.0       0.0
11 P  px              0.0      48.6      39.7      11.6       0.0       0.0
11 P  py              0.0      21.2      57.5      21.3       0.0       0.0

                     42        43        44        45        46        47   
                  -4.63486  -0.98440  -0.97865  -0.93956  -0.93817  -0.75801
                   2.00000   2.00000   2.00000   2.00000   2.00000   2.00000
                  --------  --------  --------  --------  --------  --------
 0 C  s               0.0       0.0       0.2       0.0       0.3       0.1
 0 C  pz              0.0       0.0       0.2       0.0       0.2       0.0
 0 C  px              0.0       0.0       0.1       0.0       0.1       0.0
 0 C  py              0.0       0.0       0.2       0.0       0.2       0.0
 1 C  s               0.0       0.0       4.1       0.0       3.8       0.3
 1 C  pz              0.0       0.0       0.1       0.0       0.2       0.0
 1 C  px              0.0       0.0       3.3       0.0       2.2       0.0
 1 C  py              0.0       0.0       1.1       0.0       0.9       0.0
 1 C  dxy             0.0       0.0       0.2       0.0       0.2       0.0
 2 O  s               0.0       0.0      33.2       0.0      25.8       0.2
 2 O  pz              0.0       0.0       0.8       0.0       0.2       0.0
 2 O  px              0.0       0.0       0.3       0.0       0.1       0.4
 2 O  py              0.0       0.0       0.8       0.0       0.6       0.0
 3 P  s               0.0       0.0      13.9       0.0       0.1       2.4
 3 P  pz              1.6       0.0       0.8       0.0       8.1       0.2
 3 P  px             39.1       0.0       3.8       0.0       2.6       0.4
 3 P  py             59.2       0.0       0.0       0.0       0.2       1.5
 3 P  dz2             0.0       0.0       0.2       0.0       2.1       0.1
 3 P  dxz             0.0       0.0       0.2       0.0       0.5       0.0
 3 P  dx2y2           0.0       0.0       0.5       0.0       0.5       0.2
 4 S  s               0.0       0.0       0.3       0.0       0.0       0.4
 4 S  px              0.0       0.0       0.2       0.0       0.0       0.0
 4 S  py              0.0       0.0       0.2       0.0       0.0       0.1
 5 O  s               0.0       0.0      23.5       0.0      35.7       0.2
 5 O  pz              0.0       0.0       0.8       0.0       0.1       0.6
 5 O  py              0.0       0.0       0.6       0.0       1.1       0.2
 6 C  s               0.0       0.0       2.8       0.0       5.3       0.6
 6 C  pz              0.0       0.0       1.5       0.0       2.0       0.0
 6 C  py              0.0       0.0       1.6       0.0       2.7       0.0
 6 C  dyz             0.0       0.0       0.2       0.0       0.3       0.0
 6 C  dx2y2           0.0       0.0       0.1       0.0       0.1       0.0
 7 C  s               0.0       0.0       0.2       0.0       0.4       0.2
 7 C  px              0.0       0.0       0.1       0.0       0.3       0.0
 7 C  py              0.0       0.0       0.2       0.0       0.4       0.0
 8 S  s               0.0       0.0       0.4       0.0       0.0      18.7
 8 S  pz              0.0       0.0       0.0       0.0       0.0       0.7
 8 S  px              0.0       0.0       0.0       0.0       0.0       1.9
 8 S  py              0.0       0.0       0.4       0.0       0.0       0.1
 8 S  dxz             0.0       0.0       0.0       0.0       0.0       0.1
 9 C  s               0.0       0.0       0.0       0.0       0.0      26.2
 9 C  pz              0.0       0.0       0.0       0.0       0.0       1.7
 9 C  py              0.0       0.0       0.0       0.0       0.0       0.4
10 S  s               0.0       0.3       0.0       0.0       0.0      18.2
10 S  pz              0.0       0.1       0.0       0.0       0.0       1.4
10 S  px              0.0       0.1       0.0       0.0       0.0       1.2
10 S  py              0.0       0.3       0.0       0.0       0.0       0.0
10 S  dxz             0.0       0.0       0.0       0.0       0.0       0.1
11 P  s               0.0      14.1       0.0       0.0       0.0       2.9
11 P  pz              0.0       1.2       0.0       3.3       0.0       0.1
11 P  px              0.0       3.4       0.0       3.1       0.0       1.0
11 P  py              0.0       0.5       0.0       4.1       0.0       1.1
11 P  dz2             0.0       0.0       0.0       0.7       0.0       0.0
11 P  dxz             0.0       0.0       0.0       0.1       0.0       0.0
11 P  dyz             0.0       0.8       0.0       0.8       0.0       0.1
11 P  dx2y2           0.0       0.1       0.0       1.5       0.0       0.0
11 P  dxy             0.0       0.1       0.0       0.4       0.0       0.1
[...]
 1 C  dxz             0.0       0.6       0.1       0.0
 1 C  dyz             0.0       0.2       0.1       0.0
 1 C  dx2y2           0.0       1.4       0.1       0.0
 1 C  dxy             0.1       4.7       0.4       0.0
 2 O  s               0.0       0.2       0.1       0.0
 2 O  px              0.1       5.9       0.3       0.0
 2 O  py              0.0       0.4       0.1       0.0
 2 O  dz2             0.0       2.8       1.2       0.0
 2 O  dxz             0.2      20.6       0.7       0.1
 2 O  dyz             0.0       0.9       0.1       0.0
 2 O  dx2y2           0.0       0.6       0.1       0.1
 2 O  dxy             0.4      38.8       3.3       0.0
 3 P  s               0.0       0.2       0.6       0.0
 3 P  pz              0.0       1.0       0.8       0.1
 3 P  px              0.0       1.2       0.1       0.0
 3 P  dz2             0.0       0.8       0.4       0.0
 3 P  dxz             0.0       0.1       0.0       0.0
 3 P  dyz             0.0       0.0       0.2       0.0
 3 P  dx2y2           0.0       0.7       0.1       0.0
 5 O  s               0.0       0.1       1.2       0.0
 5 O  pz              0.0       0.7       4.2       0.1
 5 O  py              0.0       0.1       1.7       0.0
 5 O  dz2             0.1       5.7       4.1       0.3
 5 O  dxz             0.0       0.8       0.3       0.0
 5 O  dyz             0.3       1.5      44.4       0.8
 5 O  dx2y2           0.1       0.4      15.4       0.3
 5 O  dxy             0.0       0.0       0.5       0.0
 6 C  s               0.0       0.1       1.8       0.0
 6 C  pz              0.0       0.1       1.3       0.0
 6 C  py              0.0       0.1       2.0       0.0
 6 C  dz2             0.0       0.1       0.2       0.0
 6 C  dyz             0.1       0.3       7.8       0.2
 6 C  dx2y2           0.0       0.0       2.5       0.0
 6 C  dxy             0.0       0.0       0.3       0.0
 7 C  dxy             0.0       0.0       0.2       0.0
11 P  s               0.5       0.0       0.0       0.0
11 P  pz              0.1       0.0       0.0       0.8
11 P  px              0.8       0.0       0.0       0.6
11 P  py              0.1       0.0       0.0       1.1
11 P  dz2             0.5       0.0       0.0       0.2
11 P  dxz             0.1       0.0       0.0       0.5
11 P  dyz             0.0       0.0       0.0       0.4
11 P  dx2y2           0.1       0.0       0.0       0.4
11 P  dxy             0.0       0.0       0.0       0.4
13 O  s               0.2       0.1       0.1       0.4
13 O  pz              0.4       0.0       0.0       1.3
13 O  px              0.9       0.0       0.0       2.4
13 O  py              0.3       0.0       0.0       1.2
13 O  dz2             4.1       0.0       0.1      11.4
13 O  dxz             0.0       0.1       0.2       4.7
13 O  dyz             1.7       0.2       0.5      18.8
13 O  dx2y2           6.2       0.0       0.1      13.5
13 O  dxy             0.5       0.1       0.1       0.7
14 C  s               0.2       0.0       0.0       1.3
14 C  pz              0.1       0.0       0.0       1.2
14 C  px              0.0       0.0       0.0       0.3
14 C  py              0.1       0.0       0.0       0.7
14 C  dz2             0.0       0.0       0.0       0.4
14 C  dxz             0.4       0.0       0.0       1.5
14 C  dyz             0.2       0.0       0.1       3.7
14 C  dx2y2           0.0       0.0       0.0       0.2
14 C  dxy             0.3       0.0       0.0       1.1
16 O  s               3.8       0.1       0.0       0.3
16 O  pz              0.0       0.0       0.0       0.6
16 O  px              0.9       0.0       0.0       0.2
16 O  py              1.8       0.0       0.0       1.7
16 O  dz2            12.7       0.2       0.2       5.6
16 O  dyz             0.4       0.0       0.1      11.5
16 O  dx2y2           3.1       0.0       0.0       0.7
16 O  dxy            42.0       0.8       0.4       5.0
17 C  s               1.5       0.0       0.0       0.3
17 C  px              1.0       0.0       0.0       0.2
17 C  py              2.0       0.0       0.0       0.3
17 C  dz2             2.8       0.0       0.0       0.4
17 C  dx2y2           0.4       0.0       0.0       0.1
17 C  dxy             7.6       0.1       0.1       0.8
18 C  py              0.1       0.0       0.0       0.0
18 C  dyz             0.2       0.0       0.0       0.0
18 C  dx2y2           0.2       0.0       0.0       0.0


                      *****************************
                      * MAYER POPULATION ANALYSIS *
                      *****************************

  NA   - Mulliken gross atomic population
  ZA   - Total nuclear charge
  QA   - Mulliken gross atomic charge
  VA   - Mayer's total valence
  BVA  - Mayer's bonded valence
  FA   - Mayer's free valence

  ATOM       NA         ZA         QA         VA         BVA        FA
  0 C      6.2902     6.0000    -0.2902     3.9944     3.9944    -0.0000
  1 C      6.0332     6.0000    -0.0332     4.0186     4.0186    -0.0000
  2 O      8.3672     8.0000    -0.3672     2.1621     2.1621    -0.0000
  3 P     14.3901    15.0000     0.6099     4.9779     4.9779     0.0000
  4 S     16.3031    16.0000    -0.3031     2.0623     2.0623     0.0000
  5 O      8.3874     8.0000    -0.3874     2.1581     2.1581    -0.0000
  6 C      6.0160     6.0000    -0.0160     3.9962     3.9962    -0.0000
  7 C      6.3107     6.0000    -0.3107     3.9896     3.9896    -0.0000
  8 S     16.1058    16.0000    -0.1058     2.2608     2.2608    -0.0000
  9 C      6.3546     6.0000    -0.3546     3.8181     3.8181    -0.0000
 10 S     16.0739    16.0000    -0.0739     2.2615     2.2615    -0.0000
 11 P     14.3627    15.0000     0.6373     4.9641     4.9641    -0.0000
 12 S     16.3301    16.0000    -0.3301     2.0996     2.0996    -0.0000
 13 O      8.3846     8.0000    -0.3846     2.1629     2.1629    -0.0000
 14 C      5.9961     6.0000     0.0039     4.0020     4.0020     0.0000
 15 C      6.2926     6.0000    -0.2926     3.9866     3.9866     0.0000
 16 O      8.3545     8.0000    -0.3545     2.1993     2.1993     0.0000
 17 C      5.9982     6.0000     0.0018     4.0181     4.0181     0.0000
 18 C      6.3228     6.0000    -0.3228     3.9958     3.9958     0.0000
 19 H      0.8902     1.0000     0.1098     0.9555     0.9555    -0.0000
 20 H      0.8689     1.0000     0.1311     0.9689     0.9689     0.0000
 21 H      0.8770     1.0000     0.1230     0.9572     0.9572    -0.0000
 22 H      0.8903     1.0000     0.1097     0.9468     0.9468    -0.0000
 23 H      0.8905     1.0000     0.1095     0.9762     0.9762    -0.0000
 24 H      0.8712     1.0000     0.1288     0.9874     0.9874    -0.0000
 25 H      0.9000     1.0000     0.1000     0.9521     0.9521    -0.0000
 26 H      0.8885     1.0000     0.1115     0.9552     0.9552    -0.0000
 27 H      0.8923     1.0000     0.1077     0.9574     0.9574    -0.0000
 28 H      0.8705     1.0000     0.1295     0.9793     0.9793    -0.0000
 29 H      0.7957     1.0000     0.2043     0.9976     0.9976     0.0000
 30 H      0.8192     1.0000     0.1808     0.9321     0.9321    -0.0000
 31 H      0.8939     1.0000     0.1061     0.9488     0.9488    -0.0000
 32 H      0.9076     1.0000     0.0924     0.9890     0.9890    -0.0000
 33 H      0.8742     1.0000     0.1258     0.9899     0.9899     0.0000
 34 H      0.8895     1.0000     0.1105     0.9587     0.9587    -0.0000
 35 H      0.8925     1.0000     0.1075     0.9554     0.9554    -0.0000
 36 H      0.8892     1.0000     0.1108     0.9486     0.9486     0.0000
 37 H      0.8934     1.0000     0.1066     0.9611     0.9611     0.0000
 38 H      0.8748     1.0000     0.1252     0.9792     0.9792     0.0000
 39 H      0.8646     1.0000     0.1354     0.9699     0.9699     0.0000
 40 H      0.8923     1.0000     0.1077     0.9529     0.9529     0.0000

  Mayer bond orders larger than 0.100000
B(  0-C ,  1-C ) :   1.1674 B(  0-C , 19-H ) :   0.9393 B(  0-C , 20-H ) :   0.9371 
B(  0-C , 21-H ) :   0.9455 B(  1-C ,  2-O ) :   0.8982 B(  1-C , 22-H ) :   0.9319 
B(  1-C , 23-H ) :   0.9139 B(  2-O ,  3-P ) :   1.1084 B(  3-P ,  4-S ) :   1.6740 
B(  3-P ,  5-O ) :   1.0657 B(  3-P ,  8-S ) :   0.9629 B(  4-S ,  8-S ) :   0.1077 
B(  5-O ,  6-C ) :   0.9042 B(  6-C ,  7-C ) :   1.1588 B(  6-C , 24-H ) :   0.9045 
B(  6-C , 25-H ) :   0.9361 B(  7-C , 26-H ) :   0.9404 B(  7-C , 27-H ) :   0.9454 
B(  7-C , 28-H ) :   0.9357 B(  8-S ,  9-C ) :   0.9958 B(  9-C , 10-S ) :   1.0057 
B(  9-C , 29-H ) :   0.8435 B(  9-C , 30-H ) :   0.9125 B( 10-S , 11-P ) :   0.9739 
B( 10-S , 12-S ) :   0.1236 B( 11-P , 12-S ) :   1.5761 B( 11-P , 13-O ) :   1.0781 
B( 11-P , 16-O ) :   1.1516 B( 12-S , 29-H ) :   0.1083 B( 13-O , 14-C ) :   0.9042 
B( 14-C , 15-C ) :   1.1664 B( 14-C , 31-H ) :   0.9354 B( 14-C , 32-H ) :   0.9117 
B( 15-C , 33-H ) :   0.9353 B( 15-C , 34-H ) :   0.9480 B( 15-C , 35-H ) :   0.9405 
B( 16-O , 17-C ) :   0.9035 B( 17-C , 18-C ) :   1.1658 B( 17-C , 36-H ) :   0.9340 
B( 17-C , 37-H ) :   0.9289 B( 18-C , 38-H ) :   0.9359 B( 18-C , 39-H ) :   0.9412 
B( 18-C , 40-H ) :   0.9364 

-------
TIMINGS
-------

Total SCF time: 0 days 0 hours 0 min 16 sec 

Total time                  ....      16.659 sec
Sum of individual times     ....      16.173 sec  ( 97.1%)

SCF preparation             ....       0.217 sec  (  1.3%)
Fock matrix formation       ....      14.758 sec  ( 88.6%)
  Startup                   ....       0.069 sec  (  0.5% of F)
  Split-RI-J                ....       8.775 sec  ( 59.5% of F)
  XC integration            ....       5.408 sec  ( 36.6% of F)
    XC Preparation          ....       0.000 sec  (  0.0% of XC)
    Basis function eval.    ....       2.063 sec  ( 38.2% of XC)
    Density eval.           ....       1.018 sec  ( 18.8% of XC)
    XC-Functional eval.     ....       0.408 sec  (  7.5% of XC)
    XC-Potential eval.      ....       1.208 sec  ( 22.3% of XC)
Diagonalization             ....       0.000 sec  (  0.0%)
Density matrix formation    ....       0.260 sec  (  1.6%)
Total Energy calculation    ....       0.028 sec  (  0.2%)
Population analysis         ....       0.207 sec  (  1.2%)
Orbital Transformation      ....       0.085 sec  (  0.5%)
Orbital Orthonormalization  ....       0.000 sec  (  0.0%)
DIIS solution               ....       0.476 sec  (  2.9%)
  MO trafo                  ....       0.000 sec  (  0.0 % of DIIS)
  Orb grad                  ....       0.000 sec  (  0.0 % of DIIS)
  Energy W gradient         ....       0.000 sec  (  0.0 % of DIIS)
  DIIS error                ....       0.022 sec  (  4.5 % of DIIS)
  DIIS work                 ....       0.390 sec  ( 82.0 % of DIIS)
  Form Q                    ....       0.000 sec  (  0.0 % of DIIS)
  Form QpQm                 ....       0.000 sec  (  0.0 % of DIIS)
  Exp/Cayley                ....       0.000 sec  (  0.0 % of DIIS)
  Orb update                ....       0.000 sec  (  0.0 % of DIIS)
  Wake-sleep                ....       0.020 sec  (  4.2 % of DIIS)
SOSCF solution              ....       0.143 sec  (  0.9%)
  MO trafo                  ....       0.076 sec  ( 53.4 % of SOSCF)
  Orb grad                  ....       0.001 sec  (  1.0 % of SOSCF)
  Rot update                ....       0.027 sec  ( 18.9 % of SOSCF)
  Step                      ....       0.038 sec  ( 26.5 % of SOSCF)
Finished LeanSCF after  16.7 sec

Maximum memory used throughout the entire LEANSCF-calculation: 34.2 MB


-------------------------------------------------------------------------------
                          DFT DISPERSION CORRECTION                            
                                                                               
                                DFTD4 V3.4.0                                   
-------------------------------------------------------------------------------
The PBE functional is recognized
Active option DFTDOPT                   ...         5   

-------------------------   ----------------
Dispersion correction           -0.066381337
-------------------------   ----------------

------------------   -----------------
gCP correction             0.185024361
------------------   -----------------

-------------------------   --------------------
FINAL SINGLE POINT ENERGY     -2929.516147257758
-------------------------   --------------------


------------------------------------------------------------------------------
                              ORCA PROPERTY CALCULATIONS
------------------------------------------------------------------------------

GBWName                                 ... sp.gbw
Number of atoms                         ...     41
Number of basis functions               ...    334
Max core memory                         ...   1024 MB

Electric properties:
Dipole moment                           ... YES
Quadrupole moment                       ...  NO
Static polarizability (Dipole/Dipole)   ...  NO
Static polarizability (Dipole/Quad.)    ...  NO
Static polarizability (Quad./Quad.)     ...  NO
Static polarizability (Velocity)        ...  NO

Atomic electric properties:
Dipole moment                           ...  NO
Quadrupole moment                       ...  NO
Static polarizability                   ...  NO

Choice of electric origin               ... Center of mass
Position of electric origin             ...     0.000001     0.000002     0.000007

General magnetic properties:
Magnetizability                         ...  NO

EPR properties:
g-Tensor (aka g-matrix)                 ...  NO
Zero-Field splitting spin-orbit         ...  NO
Zero-field splitting spin-spin          ...  NO
Hyperfine couplings                     ...  NO (   0 nuclei)
Quadrupole couplings                    ...  NO (   0 nuclei)
Contact density                         ...  NO (   0 nuclei)

NMR properties:
Chemical shifts                         ...  NO (   0 nuclei)
Spin-rotation constants                 ...  NO (   0 nuclei)
Spin-spin couplings                     ...  NO (   0 nuclei,    0 pairs)

Choice of magnetic origin               ... GIAO
Position of magnetic origin             ...     0.000000     0.000000     0.000000

Properties with geometric perturbations:
SCF Hessian                             ...  NO
IR spectrum                             ...  NO
VCD spectrum                            ...  NO
X-ray spectroscopy properties:
SCF XES/XAS/RIXS spectra                ...  NO


-------------
DIPOLE MOMENT
-------------

Method             : SCF
Type of density    : Electron Density
Multiplicity       :   1
Irrep              :   0
Energy             : -2929.6347902821853495 Eh
Relativity type    : 
Basis              : AO
                                X                 Y                 Z
Electronic contribution:     -1.207124548      -8.401192060     -11.807885468
Nuclear contribution   :      1.160520517       7.924598167      12.634348002
                        -----------------------------------------
Total Dipole Moment    :     -0.046604032      -0.476593894       0.826462534
                        -----------------------------------------
Magnitude (a.u.)       :      0.955172233
Magnitude (Debye)      :      2.427854872



--------------------
Rotational spectrum 
--------------------
 
Rotational constants in cm-1:             0.013346             0.004981             0.004592 
Rotational constants in MHz :           400.105959           149.319625           137.659825 

Dipole components along the rotational axes: 
x,y,z [a.u.] :     0.154297    -0.158053     0.929282 
x,y,z [Debye]:     0.392192    -0.401738     2.362048 

 

Dipole moment calculation done in   0.0 sec 

Maximum memory used throughout the entire PROP-calculation: 23.6 MB

--------------------------------
SUGGESTED CITATIONS FOR THIS RUN
--------------------------------

Below you find a list of papers that are relevant to this ORCA run
We neither can nor want to force you to cite these papers, but we appreciate if you do
You receive ORCA, which is the product of decades of hard work by many enthusiastic individuals, for free
The only thing we kindly ask in return is that you cite our papers,
We deeply appreciate it, if you show your appreciation for ORCA by not just citing the generic ORCA reference.

Please note that relegating all ORCA citations to the supporting information does *not* help us.
SI sections are not indexed - citations you put there will not count into any citation statistics
But we need these citations in order to attract the funding resources that allow us to do what we are doing

Therefore, if you are a happy ORCA user, please consider citing a few of the papers listed below in the main body of your paper

In addition to the list printed below, the program has created the file sp.bibtex that contains the list in bibtex format
You can import this file easily into all common literature databanks and citation aid programs


List of essential papers. We consider these as the minimum necessary citations

  1. Neese,F.
     Software update: the ORCA program system, version 5.0
     WIRES Comput. Molec. Sci., 2022 12(1)e1606
     doi.org/10.1002/wcms.1606

List of papers to cite with high priority. The work reported in these papers was absolutely
necessary for this run to complete.
Our perspective: the developers of density functionals and basis sets usually get cited in chemistry papers
Good! But without the algorithms to do something with them, the functionals or basis sets would not do anything.
Hence, in our opinion, the algorithm design and method developments papers are equally worthy of getting cited

  1. Neese,F.
     An improvement of the resolution of the identity approximation for the formation of the Coulomb matrix
     J. Comp. Chem., 2003 24(14)1740-1747
     doi.org/10.1002/jcc.10318
  2. Neese,F.
     The SHARK Integral Generation and Digestion System
     J. Comp. Chem., 2022  1-16
     doi.org/10.1002/jcc.26942
  3. Caldeweyher,E.; Bannwarth,C.; Grimme,S.
     Extension of the D3 dispersion coefficient model
     J. Chem. Phys., 2017 147 034112-XXXX
     doi.org/10.1063/1.4993215
  4. Caldeweyher,E.; Ehlert,S.; Hansen,A.; Neugebauer,H.; Spicher,S.; Bannwarth,C.; Grimme,S.
     A generally applicable atomic-charge dependent London dispersion correction
     J. Chem. Phys., 2019 150 154122-XXXX
     doi.org/10.1063/1.5090222
  5. Caldeweyher,E.; Mewes,J.; Ehlert,S.; Grimme,S.
     Extension and evaluation of the D4 London-dispersion model for periodic systems
     Phys. Chem. Chem. Phys., 2020 22(16)8499-8512
     doi.org/10.1039/D0CP00502A

List of suggested additional citations. These are papers that are important in the 'surrounding' of 
of this run, or papers that preceded the highly important papers. If you like your results we are grateful for a citation.

  1. Neese,F.
     The ORCA program system
     WIRES Comput. Molec. Sci., 2012 2(1)73-78
     doi.org/10.1002/wcms.81
  2. Neese,F.
     Software update: the ORCA program system, version 4.0
     WIRES Comput. Molec. Sci., 2018 8(1)1-6
     doi.org/10.1002/wcms.1327
  3. Neese,F.; Wennmohs,F.; Becker,U.; Riplinger,C.
     The ORCA quantum chemistry program package
     J. Chem. Phys., 2020 152 Art. No. L224108
     doi.org/10.1063/5.0004608

List of optional additional citations

  1. Neese,F.
     Approximate second-order SCF convergence for spin unrestricted wavefunctions
     Chem. Phys. Lett., 2000 325(1-3)93-98
     doi.org/10.1016/s0009-2614(00)00662-x

Timings for individual modules:

Sum of individual times          ...       20.371 sec (=   0.340 min)
Startup calculation              ...        1.552 sec (=   0.026 min)   7.6 %
SCF iterations                   ...       18.701 sec (=   0.312 min)  91.8 %
Property calculations            ...        0.117 sec (=   0.002 min)   0.6 %
                             ****ORCA TERMINATED NORMALLY****
TOTAL RUN TIME: 0 days 0 hours 0 minutes 21 seconds 178 msec
