
                                 *****************
                                 * O   R   C   A *
                                 *****************

                                            #,                                       
                                            ###                                      
                                            ####                                     
                                            #####                                    
                                            ######                                   
                                           ########,                                 
                                     ,,################,,,,,                         
                               ,,#################################,,                 
                          ,,##########################################,,             
                       ,#########################################, ''#####,          
                    ,#############################################,,   '####,        
                  ,##################################################,,,,####,       
                ,###########''''           ''''###############################       
              ,#####''   ,,,,##########,,,,          '''####'''          '####       
            ,##' ,,,,###########################,,,                        '##       
           ' ,,###''''                  '''############,,,                           
         ,,##''                                '''############,,,,        ,,,,,,###''
      ,#''                                            '''#######################'''  
     '                                                          ''''####''''         
             ,#######,   #######,   ,#######,      ##                                
            ,#'     '#,  ##    ##  ,#'     '#,    #''#        ,####,   ,####,        
            ##       ##  ##   ,#'  ##            #'  '#       #'       #'  '#        
            ##       ##  #######   ##           ,######,      #####,   #    #        
            '#,     ,#'  ##    ##  '#,     ,#' ,#      #,     #,   #   #,  ,#        
             '#######'   ##     ##  '#######'  #'      '#     '####' # '####'        



                #########################################################
                #                        -***-                          #
                #          Department of theory and spectroscopy        #
                #                                                       #
                #                      Frank Neese                      #
                #                                                       #
                #     Directorship, Architecture, Infrastructure        #
                #                    SHARK, DRIVERS                     #
                #        Core code/Algorithms in most modules           #
                #                                                       #
                #        Max Planck Institute fuer Kohlenforschung      #
                #                Kaiser Wilhelm Platz 1                 #
                #                 D-45470 Muelheim/Ruhr                 #
                #                      Germany                          #
                #                                                       #
                #                  All rights reserved                  #
                #                        -***-                          #
                #########################################################


                         Program Version 6.0.0  -   RELEASE  -


 With contributions from (in alphabetic order):
   Daniel Aravena         : Magnetic Suceptibility
   Michael Atanasov       : Ab Initio Ligand Field Theory (pilot matlab implementation)
   Alexander A. Auer      : GIAO ZORA, VPT2 properties, NMR spectrum
   Ute Becker             : All parallelization in ORCA, NUMFREQ, NUMCALC
   Giovanni Bistoni       : ED, misc. LED, open-shell LED, HFLD
   Martin Brehm           : Molecular dynamics
   Dmytro Bykov           : pre 5.0 version of the SCF Hessian
   Marcos Casanova-Páez   : Triplet and SCS-CIS(D). UHF-(DLPNO)-IP/EA/STEOM-CCSD. UHF-CVS-IP/STEOM-CCSD
   Vijay G. Chilkuri      : MRCI spin determinant printing, contributions to CSF-ICE
   Pauline Colinet        : FMM embedding
   Dipayan Datta          : RHF DLPNO-CCSD density
   Achintya Kumar Dutta   : EOM-CC, STEOM-CC
   Nicolas Foglia         : Exact transition moments, OPA infrastructure, MCD improvements
   Dmitry Ganyushin       : Spin-Orbit,Spin-Spin,Magnetic field MRCI
   Miquel Garcia          : C-PCM and meta-GGA Hessian, CCSD/C-PCM, Gaussian charge scheme
   Tiago L. C. Gouveia    : GS-ROHF, GS-ROCIS
   Yang Guo               : DLPNO-NEVPT2, F12-NEVPT2, CIM, IAO-localization
   Andreas Hansen         : Spin unrestricted coupled pair/coupled cluster methods
   Ingolf Harden          : AUTO-CI MPn and infrastructure 
   Benjamin Helmich-Paris : MC-RPA, TRAH-(SCF,CASSCF), AVAS, COSX integrals, SCF dyn. polar.
   Lee Huntington         : MR-EOM, pCC
   Robert Izsak           : Overlap fitted RIJCOSX, COSX-SCS-MP3, EOM
   Riya Kayal             : Wick's Theorem for AUTO-CI, AUTO-CI UHF-CCSDT
   Emily Kempfer          : AUTO-CI, RHF CISDT and CCSDT
   Christian Kollmar      : KDIIS, OOCD, Brueckner-CCSD(T), CCSD density, CASPT2, CASPT2-K, improved NEVPT2
   Axel Koslowski         : Symmetry handling
   Simone Kossmann        : Meta GGA functionals, TD-DFT gradient, OOMP2, (MP2 Hessian; deprecated post 5.0)
   Lucas Lang             : DCDCAS
   Marvin Lechner         : AUTO-CI (C++ implementation), FIC-MRCC
   Spencer Leger          : CASSCF response
   Dagmar Lenk            : GEPOL surface, SMD, ORCA-2-JSON
   Dimitrios Liakos       : Extrapolation schemes; Compound Job, initial MDCI parallelization
   Dimitrios Manganas     : Further ROCIS development; embedding schemes. LFT, Crystal Embedding
   Dimitrios Pantazis     : SARC Basis sets
   Anastasios Papadopoulos: AUTO-CI, single reference methods and gradients
   Taras Petrenko         : pre 6.0 DFT Hessian and TD-DFT gradient, (ASA, deprecated), ECA, 1-Electron XAS/XES, NRVS
   Peter Pinski           : DLPNO-MP2, DLPNO-MP2 Gradient
   Christoph Reimann      : Effective Core Potentials
   Marius Retegan         : Local ZFS, SOC
   Christoph Riplinger    : Optimizer, TS searches, QM/MM, DLPNO-CCSD(T), (RO)-DLPNO pert. Triples
   Michael Roemelt        : Original ROCIS implementation
   Masaaki Saitow         : Open-shell DLPNO-CCSD energy and density
   Barbara Sandhoefer     : DKH picture change effects
   Kantharuban Sivalingam : CASSCF convergence/infrastructure, NEVPT2 and variants, FIC-MRCI
   Bernardo de Souza      : ESD, SOC TD-DFT
   Georgi Stoychev        : AutoAux, RI-MP2 NMR, DLPNO-MP2 response, X2C
   Van Anh Tran           : RI-MP2 g-tensors
   Willem Van den Heuvel  : Paramagnetic NMR
   Zikuan Wang            : NOTCH, Electric field optimization 
   Frank Wennmohs         : Technical directorship and infrastructure
   Hang Xu                : AUTO-CI-Response properties 


 We gratefully acknowledge several colleagues who have allowed us to
 interface, adapt or use parts of their codes:
   Stefan Grimme, W. Hujo, H. Kruse, P. Pracht,  : VdW corrections, initial TS optimization,
                  C. Bannwarth, S. Ehlert,         DFT functionals, gCP, sTDA/sTD-DF
                  L. Wittmann, M. Mueller
   Ed Valeev, F. Pavosevic, A. Kumar             : LibInt (2-el integral package), F12 methods
   Garnet Chan, S. Sharma, J. Yang, R. Olivares  : DMRG
   Ulf Ekstrom                                   : XCFun DFT Library
   Mihaly Kallay                                 : mrcc  (arbitrary order and MRCC methods)
   Frank Weinhold                                : gennbo (NPA and NBO analysis)
   Simon Mueller                                 : openCOSMO-RS
   Christopher J. Cramer and Donald G. Truhlar   : smd solvation model
   Lars Goerigk                                  : TD-DFT with DH, B97 family of functionals
   V. Asgeirsson, H. Jonsson                     : NEB implementation
   FAccTs GmbH                                   : IRC, NEB, NEB-TS, DLPNO-Multilevel, CI-OPT
                                                   MM, QMMM, 2- and 3-layer-ONIOM, Crystal-QMMM,
                                                   LR-CPCM, SF, NACMEs, symmetry and pop. for TD-DFT,
                                                   nearIR, NL-DFT gradient (VV10), updates on ESD,
                                                   ML-optimized integration grids, MBIS, APM,
                                                   GOAT, DOCKER, SOLVATOR, interface openCOSMO-RS
   S Lehtola, MJT Oliveira, MAL Marques          : LibXC Library
   Liviu Ungur et al                             : ANISO software


 Your calculation uses the libint2 library for the computation of 2-el integrals
 For citations please refer to: http://libint.valeyev.net

 Your ORCA version has been built with support for libXC version: 6.2.2
 For citations please refer to: https://libxc.gitlab.io

 This ORCA versions uses:
   CBLAS   interface :  Fast vector & matrix operations
   LAPACKE interface :  Fast linear algebra routines
   SCALAPACK package :  Parallel linear algebra routines
   Shared memory     :  Shared parallel matrices
   BLAS/LAPACK       :  OpenBLAS 0.3.27  USE64BITINT DYNAMIC_ARCH NO_AFFINITY SapphireRapids SINGLE_THREADED
        Core in use  :  SapphireRapids
   Copyright (c) 2011-2014, The OpenBLAS Project


Your calculation utilizes the geometrical counterpoise correction gCP
Please cite in your paper:
H.Kruse, S. Grimme J.Chem.Phys., 136, (2012), 154101 
   

Your calculation utilizes the atom-pairwise dispersion correction
based on EEQ partial charges (D4)


================================================================================

----- Orbital basis set information -----
Your calculation utilizes the basis: def2-SV(P)
   F. Weigend and R. Ahlrichs, Phys. Chem. Chem. Phys. 7, 3297 (2005).

----- AuxJ basis set information -----
Your calculation utilizes the auxiliary basis: def2/J
   F. Weigend, Phys. Chem. Chem. Phys. 8, 1057 (2006).

================================================================================
                                        WARNINGS
                       Please study these warnings very carefully!
================================================================================


================================================================================
                                       INPUT FILE
================================================================================
NAME = sp.inp
|  1> ! pbe def2-sv(p) def2/J RI DEFGRID1 loosescf d4 GCP(DFT/SV(P)) printgap
|  2> %output
|  3>     printlevel normal
|  4> end
|  5> * xyz 0 1
|  6> C 4.1030508009 -1.2829931626 -2.6803060402
|  7> C 4.2542835164 0.0521862343 -1.9814787849
|  8> O 3.671891888 0.0418120019 -0.6653447556
|  9> P 2.1038468791 -0.0667551113 -0.4304267858
| 10> S 1.0401794079 0.9428177485 -1.7416753561
| 11> O 1.9880130381 0.339267937 1.0948492997
| 12> C 2.4117428159 1.6299481135 1.5913031587
| 13> C 2.1534319563 1.6475442355 3.0823231443
| 14> S 1.6799959865 -2.1146245648 -0.2804769189
| 15> C -0.1027162505 -2.0374154839 -0.5964077989
| 16> S -1.0862080198 -1.63438705 0.8851232
| 17> P -1.8886071335 0.2844646749 0.5045112797
| 18> S -0.991062987 1.9397305858 1.0220664183
| 19> O -3.2581775493 0.2289163303 1.3045831455
| 20> C -4.2446273539 -0.8180857332 1.1417314862
| 21> C -4.2721984537 -1.7079474937 2.3681856459
| 22> O -2.2294645646 0.0990596163 -1.048112215
| 23> C -2.4707653385 1.2252720275 -1.9102048307
| 24> C -3.7990919419 1.8846837118 -1.6045219505
| 25> H 4.6641283039 -1.2661614586 -3.6090709083
| 26> H 4.4733245249 -2.084997422 -2.0469632461
| 27> H 3.0535111636 -1.4679659052 -2.9042283396
| 28> H 3.777956323 0.8482374476 -2.5627654505
| 29> H 5.3012792306 0.2988813397 -1.8006218611
| 30> H 3.472727418 1.7514211681 1.3608580552
| 31> H 1.8329606304 2.4056471337 1.0799264219
| 32> H 2.6693233674 0.8190380453 3.5588802718
| 33> H 2.5096892213 2.5861828272 3.4934331779
| 34> H 1.0862710036 1.5589591536 3.2694992845
| 35> H -0.4014301498 -3.0352766447 -0.9053734357
| 36> H -0.3011713033 -1.2980939162 -1.3729588239
| 37> H -5.1927547647 -0.2918690634 1.0161394765
| 38> H -4.0167715345 -1.3899159822 0.2386903741
| 39> H -3.3224059725 -2.2255049795 2.4827455449
| 40> H -4.4527948546 -1.10825778 3.2558766798
| 41> H -5.0673545545 -2.4385426757 2.259625579
| 42> H -1.6451948624 1.9354881875 -1.7974223138
| 43> H -2.4443464495 0.7996608336 -2.9144634399
| 44> H -3.9629412901 2.6985828428 -2.303606238
| 45> H -4.6082861625 1.1641955467 -1.6922966537
| 46> H -3.7855583049 2.2864027804 -0.591442203
| 47> *
| 48> 
| 49>                          ****END OF INPUT****
================================================================================

                       ****************************
                       * Single Point Calculation *
                       ****************************

---------------------------------
CARTESIAN COORDINATES (ANGSTROEM)
---------------------------------
  C      4.103051   -1.282993   -2.680306
  C      4.254284    0.052186   -1.981479
  O      3.671892    0.041812   -0.665345
  P      2.103847   -0.066755   -0.430427
  S      1.040179    0.942818   -1.741675
  O      1.988013    0.339268    1.094849
  C      2.411743    1.629948    1.591303
  C      2.153432    1.647544    3.082323
  S      1.679996   -2.114625   -0.280477
  C     -0.102716   -2.037415   -0.596408
  S     -1.086208   -1.634387    0.885123
  P     -1.888607    0.284465    0.504511
  S     -0.991063    1.939731    1.022066
  O     -3.258178    0.228916    1.304583
  C     -4.244627   -0.818086    1.141731
  C     -4.272198   -1.707947    2.368186
  O     -2.229465    0.099060   -1.048112
  C     -2.470765    1.225272   -1.910205
  C     -3.799092    1.884684   -1.604522
  H      4.664128   -1.266161   -3.609071
  H      4.473325   -2.084997   -2.046963
  H      3.053511   -1.467966   -2.904228
  H      3.777956    0.848237   -2.562765
  H      5.301279    0.298881   -1.800622
  H      3.472727    1.751421    1.360858
  H      1.832961    2.405647    1.079926
  H      2.669323    0.819038    3.558880
  H      2.509689    2.586183    3.493433
  H      1.086271    1.558959    3.269499
  H     -0.401430   -3.035277   -0.905373
  H     -0.301171   -1.298094   -1.372959
  H     -5.192755   -0.291869    1.016139
  H     -4.016772   -1.389916    0.238690
  H     -3.322406   -2.225505    2.482746
  H     -4.452795   -1.108258    3.255877
  H     -5.067355   -2.438543    2.259626
  H     -1.645195    1.935488   -1.797422
  H     -2.444346    0.799661   -2.914463
  H     -3.962941    2.698583   -2.303606
  H     -4.608286    1.164196   -1.692297
  H     -3.785558    2.286403   -0.591442

----------------------------
CARTESIAN COORDINATES (A.U.)
----------------------------
  NO LB      ZA    FRAG     MASS         X           Y           Z
   0 C     6.0000    0    12.011    7.753642   -2.424506   -5.065044
   1 C     6.0000    0    12.011    8.039431    0.098618   -3.744452
   2 O     8.0000    0    15.999    6.938870    0.079013   -1.257319
   3 P    15.0000    0    30.974    3.975694   -0.126149   -0.813389
   4 S    16.0000    0    32.060    1.965654    1.781667   -3.291289
   5 O     8.0000    0    15.999    3.756800    0.641123    2.068965
   6 C     6.0000    0    12.011    4.557533    3.080156    3.007127
   7 C     6.0000    0    12.011    4.069397    3.113407    5.824747
   8 S    16.0000    0    32.060    3.174732   -3.996061   -0.530025
   9 C     6.0000    0    12.011   -0.194106   -3.850157   -1.127047
  10 S    16.0000    0    32.060   -2.052636   -3.088544    1.672640
  11 P    15.0000    0    30.974   -3.568950    0.537560    0.953388
  12 S    16.0000    0    32.060   -1.872838    3.665560    1.931426
  13 O     8.0000    0    15.999   -6.157063    0.432589    2.465305
  14 C     6.0000    0    12.011   -8.021183   -1.545958    2.157560
  15 C     6.0000    0    12.011   -8.073285   -3.227553    4.475222
  16 O     8.0000    0    15.999   -4.213077    0.187196   -1.980645
  17 C     6.0000    0    12.011   -4.669070    2.315429   -3.609764
  18 C     6.0000    0    12.011   -7.179243    3.561536   -3.032107
  19 H     1.0000    0     1.008    8.813925   -2.392698   -6.820156
  20 H     1.0000    0     1.008    8.453358   -3.940074   -3.868200
  21 H     1.0000    0     1.008    5.770300   -2.774054   -5.488196
  22 H     1.0000    0     1.008    7.139303    1.602936   -4.842925
  23 H     1.0000    0     1.008   10.017966    0.564804   -3.402682
  24 H     1.0000    0     1.008    6.562504    3.309706    2.571649
  25 H     1.0000    0     1.008    3.463794    4.546014    2.040765
  26 H     1.0000    0     1.008    5.044290    1.547758    6.725309
  27 H     1.0000    0     1.008    4.742625    4.887177    6.601632
  28 H     1.0000    0     1.008    2.052755    2.946006    6.178458
  29 H     1.0000    0     1.008   -0.758593   -5.735842   -1.710908
  30 H     1.0000    0     1.008   -0.569131   -2.453042   -2.594516
  31 H     1.0000    0     1.008   -9.812884   -0.551553    1.920225
  32 H     1.0000    0     1.008   -7.590598   -2.626561    0.451059
  33 H     1.0000    0     1.008   -6.278437   -4.205595    4.691709
  34 H     1.0000    0     1.008   -8.414563   -2.094304    6.152715
  35 H     1.0000    0     1.008   -9.575912   -4.608178    4.270074
  36 H     1.0000    0     1.008   -3.108968    3.657543   -3.396636
  37 H     1.0000    0     1.008   -4.619145    1.511140   -5.507538
  38 H     1.0000    0     1.008   -7.488874    5.099583   -4.353185
  39 H     1.0000    0     1.008   -8.708399    2.200011   -3.197977
  40 H     1.0000    0     1.008   -7.153668    4.320675   -1.117664

--------------------------------
INTERNAL COORDINATES (ANGSTROEM)
--------------------------------
 C      0   0   0     0.000000000000     0.00000000     0.00000000
 C      1   0   0     1.514574160909     0.00000000     0.00000000
 O      2   1   0     1.439269403764   112.03472185     0.00000000
 P      3   2   1     1.589257191439   122.33749483   291.82864048
 S      4   3   2     1.967231217129   113.57141341   321.77081064
 O      4   3   2     1.582636828672   101.37015435   194.03136535
 C      6   4   3     1.446329380439   122.56847847    60.61443631
 C      7   6   4     1.513332323436   107.37108801   180.21792179
 S      4   3   2     2.096641085241   106.06660303    90.43787056
 C      9   4   3     1.812135889789    98.32513923   198.46197888
 S     10   9   4     1.823354622534   113.47741767   276.73438287
 P     11  10   9     2.114403394268   105.01214654   112.58145001
 S     12  11  10     1.952781107087   123.16954268   269.07310834
 O     12  11  10     1.587111758153   101.82772484   149.46102331
 C     14  12  11     1.447693752458   123.82116048   307.19674840
 C     15  14  12     1.515521007505   110.24360152   108.83246695
 O     12  11  10     1.600374500042    98.64594203    39.39324614
 C     17  12  11     1.438674437345   121.76125534   197.24467467
 C     18  17  12     1.514172169186   111.53534997   288.63238273
 H      1   2   3     1.085216775971   109.24359124   187.18901566
 H      1   2   3     1.086939077234   110.34016032   307.63339760
 H      1   2   3     1.088985565532   109.92862431    67.67315823
 H      2   1   3     1.094750801312   110.64555768   238.98069540
 H      2   1   3     1.090764744328   111.82218695   116.04762030
 H      7   6   4     1.092496670299   108.13988214   301.08046869
 H      7   6   4     1.094625029465   108.48870873    59.93217854
 H      8   7   6     1.086127594262   110.02034525    56.63512459
 H      8   7   6     1.084883912878   109.10891978   177.07652750
 H      8   7   6     1.087067027907   109.64934908   296.54040311
 H     10   9   4     1.086469813014   106.31526573   159.87661785
 H     10   9   4     1.090418398082   109.39573277    39.08262238
 H     15  14  12     1.091614823821   104.84110279   228.50568136
 H     15  14  12     1.092882133740   109.22614146   346.08642712
 H     16  15  14     1.087701925580   110.41008158   295.84897490
 H     16  15  14     1.086387676846   109.88649251    55.82767568
 H     16  15  14     1.085277767545   109.12627837   175.73562725
 H     18  17  12     1.094848620153   108.63884016    51.28230468
 H     18  17  12     1.091044545480   104.01225715   167.55826717
 H     19  18  17     1.085355815103   109.20654849   182.54073055
 H     19  18  17     1.087015584628   110.37103057   302.87937907
 H     19  18  17     1.089904557382   109.71080253    63.23538142

---------------------------
INTERNAL COORDINATES (A.U.)
---------------------------
 C      0   0   0     0.000000000000     0.00000000     0.00000000
 C      1   0   0     2.862130373632     0.00000000     0.00000000
 O      2   1   0     2.719825006045   112.03472185     0.00000000
 P      3   2   1     3.003260848184   122.33749483   291.82864048
 S      4   3   2     3.717528242475   113.57141341   321.77081064
 O      4   3   2     2.990750175648   101.37015435   194.03136535
 C      6   4   3     2.733166428473   122.56847847    60.61443631
 C      7   6   4     2.859783640904   107.37108801   180.21792179
 S      4   3   2     3.962077452232   106.06660303    90.43787056
 C      9   4   3     3.424440549150    98.32513923   198.46197888
 S     10   9   4     3.445640881608   113.47741767   276.73438287
 P     11  10   9     3.995643351800   105.01214654   112.58145001
 S     12  11  10     3.690221491890   123.16954268   269.07310834
 O     12  11  10     2.999206566835   101.82772484   149.46102331
 C     14  12  11     2.735744717934   123.82116048   307.19674840
 C     15  14  12     2.863919654389   110.24360152   108.83246695
 O     12  11  10     3.024269516791    98.64594203    39.39324614
 C     17  12  11     2.718700682455   121.76125534   197.24467467
 C     18  17  12     2.861370719368   111.53534997   288.63238273
 H      1   2   3     2.050762502522   109.24359124   187.18901566
 H      1   2   3     2.054017180230   110.34016032   307.63339760
 H      1   2   3     2.057884482649   109.92862431    67.67315823
 H      2   1   3     2.068779199370   110.64555768   238.98069540
 H      2   1   3     2.061246643316   111.82218695   116.04762030
 H      7   6   4     2.064519509086   108.13988214   301.08046869
 H      7   6   4     2.068541525025   108.48870873    59.93217854
 H      8   7   6     2.052483699650   110.02034525    56.63512459
 H      8   7   6     2.050133482435   109.10891978   177.07652750
 H      8   7   6     2.054258971960   109.64934908   296.54040311
 H     10   9   4     2.053130399370   106.31526573   159.87661785
 H     10   9   4     2.060592143765   109.39573277    39.08262238
 H     15  14  12     2.062853060751   104.84110279   228.50568136
 H     15  14  12     2.065247929425   109.22614146   346.08642712
 H     16  15  14     2.055458754685   110.41008158   295.84897490
 H     16  15  14     2.052975184505   109.88649251    55.82767568
 H     16  15  14     2.050877759893   109.12627837   175.73562725
 H     18  17  12     2.068964050191   108.63884016    51.28230468
 H     18  17  12     2.061775390865   104.01225715   167.55826717
 H     19  18  17     2.051025248403   109.20654849   182.54073055
 H     19  18  17     2.054161758251   110.37103057   302.87937907
 H     19  18  17     2.059621125565   109.71080253    63.23538142

---------------------
BASIS SET INFORMATION
---------------------
There are 5 groups of distinct atoms

 Group   1 Type C   : 7s4p1d contracted to 3s2p1d pattern {511/31/1}
 Group   2 Type O   : 7s4p1d contracted to 3s2p1d pattern {511/31/1}
 Group   3 Type P   : 10s7p1d contracted to 4s3p1d pattern {5311/511/1}
 Group   4 Type S   : 10s7p1d contracted to 4s3p1d pattern {5311/511/1}
 Group   5 Type H   : 4s contracted to 2s pattern {31}

Atom   0C    basis set group =>   1
Atom   1C    basis set group =>   1
Atom   2O    basis set group =>   2
Atom   3P    basis set group =>   3
Atom   4S    basis set group =>   4
Atom   5O    basis set group =>   2
Atom   6C    basis set group =>   1
Atom   7C    basis set group =>   1
Atom   8S    basis set group =>   4
Atom   9C    basis set group =>   1
Atom  10S    basis set group =>   4
Atom  11P    basis set group =>   3
Atom  12S    basis set group =>   4
Atom  13O    basis set group =>   2
Atom  14C    basis set group =>   1
Atom  15C    basis set group =>   1
Atom  16O    basis set group =>   2
Atom  17C    basis set group =>   1
Atom  18C    basis set group =>   1
Atom  19H    basis set group =>   5
Atom  20H    basis set group =>   5
Atom  21H    basis set group =>   5
Atom  22H    basis set group =>   5
Atom  23H    basis set group =>   5
Atom  24H    basis set group =>   5
Atom  25H    basis set group =>   5
Atom  26H    basis set group =>   5
Atom  27H    basis set group =>   5
Atom  28H    basis set group =>   5
Atom  29H    basis set group =>   5
Atom  30H    basis set group =>   5
Atom  31H    basis set group =>   5
Atom  32H    basis set group =>   5
Atom  33H    basis set group =>   5
Atom  34H    basis set group =>   5
Atom  35H    basis set group =>   5
Atom  36H    basis set group =>   5
Atom  37H    basis set group =>   5
Atom  38H    basis set group =>   5
Atom  39H    basis set group =>   5
Atom  40H    basis set group =>   5
---------------------------------
AUXILIARY/J BASIS SET INFORMATION
---------------------------------
There are 5 groups of distinct atoms

 Group   1 Type C   : 12s5p4d2f1g contracted to 6s4p3d1f1g pattern {711111/2111/211/2/1}
 Group   2 Type O   : 12s5p4d2f1g contracted to 6s4p3d1f1g pattern {711111/2111/211/2/1}
 Group   3 Type P   : 14s5p5d2f1g contracted to 8s4p3d1f1g pattern {71111111/2111/311/2/1}
 Group   4 Type S   : 14s5p5d2f1g contracted to 8s4p3d1f1g pattern {71111111/2111/311/2/1}
 Group   5 Type H   : 5s2p1d contracted to 3s1p1d pattern {311/2/1}

Atom   0C    basis set group =>   1
Atom   1C    basis set group =>   1
Atom   2O    basis set group =>   2
Atom   3P    basis set group =>   3
Atom   4S    basis set group =>   4
Atom   5O    basis set group =>   2
Atom   6C    basis set group =>   1
Atom   7C    basis set group =>   1
Atom   8S    basis set group =>   4
Atom   9C    basis set group =>   1
Atom  10S    basis set group =>   4
Atom  11P    basis set group =>   3
Atom  12S    basis set group =>   4
Atom  13O    basis set group =>   2
Atom  14C    basis set group =>   1
Atom  15C    basis set group =>   1
Atom  16O    basis set group =>   2
Atom  17C    basis set group =>   1
Atom  18C    basis set group =>   1
Atom  19H    basis set group =>   5
Atom  20H    basis set group =>   5
Atom  21H    basis set group =>   5
Atom  22H    basis set group =>   5
Atom  23H    basis set group =>   5
Atom  24H    basis set group =>   5
Atom  25H    basis set group =>   5
Atom  26H    basis set group =>   5
Atom  27H    basis set group =>   5
Atom  28H    basis set group =>   5
Atom  29H    basis set group =>   5
Atom  30H    basis set group =>   5
Atom  31H    basis set group =>   5
Atom  32H    basis set group =>   5
Atom  33H    basis set group =>   5
Atom  34H    basis set group =>   5
Atom  35H    basis set group =>   5
Atom  36H    basis set group =>   5
Atom  37H    basis set group =>   5
Atom  38H    basis set group =>   5
Atom  39H    basis set group =>   5
Atom  40H    basis set group =>   5
------------------------------------------------------------------------------
                             ORCA STARTUP CALCULATIONS
                           -- RI-GTO INTEGRALS CHOSEN --
------------------------------------------------------------------------------
------------------------------------------------------------------------------
                   ___                                                        
                  /   \      - P O W E R E D   B Y -                         
                 /     \                                                     
                 |  |  |   _    _      __       _____    __    __             
                 |  |  |  | |  | |    /  \     |  _  \  |  |  /  |          
                  \  \/   | |  | |   /    \    | | | |  |  | /  /          
                 / \  \   | |__| |  /  /\  \   | |_| |  |  |/  /          
                |  |  |   |  __  | /  /__\  \  |    /   |      \           
                |  |  |   | |  | | |   __   |  |    \   |  |\   \          
                \     /   | |  | | |  |  |  |  | |\  \  |  | \   \       
                 \___/    |_|  |_| |__|  |__|  |_| \__\ |__|  \__/        
                                                                              
                      - O R C A' S   B I G   F R I E N D -                    
                                      &                                       
                       - I N T E G R A L  F E E D E R -                       
                                                                              
 v1 FN, 2020, v2 2021, v3 2022-2024                                           
------------------------------------------------------------------------------


----------------------
SHARK INTEGRAL PACKAGE
----------------------

Number of atoms                             ...     41
Number of basis functions                   ...    334
Number of shells                            ...    170
Maximum angular momentum                    ...      2
Integral batch strategy                     ... SHARK/LIBINT Hybrid
RI-J (if used) integral strategy            ... SPLIT-RIJ (Revised 2003 algorithm where possible)
Printlevel                                  ...      1
Contraction scheme used                     ... SEGMENTED contraction
Prescreening option                         ... SCHWARTZ
   Thresh                                   ... 1.000e-09
   Tcut                                     ... 1.000e-10
   Tpresel                                  ... 1.000e-10 
Coulomb Range Separation                    ... NOT USED
Exchange Range Separation                   ... NOT USED
Multipole approximations                    ... NOT USED
Finite Nucleus Model                        ... NOT USED
CABS basis                                  ... NOT available
Auxiliary Coulomb fitting basis             ... AVAILABLE
   # of basis functions in Aux-J            ...   1185
   # of shells in Aux-J                     ...    407
   Maximum angular momentum in Aux-J        ...      4
Auxiliary J/K fitting basis                 ... NOT available
Auxiliary Correlation fitting basis         ... NOT available
Auxiliary 'external' fitting basis          ... NOT available

Checking pre-screening integrals            ... done (  0.0 sec) Dimension = 170
Check shell pair data                       ... done (  0.0 sec)
Shell pair information
Shell pair cut-off parameter TPreSel        ...   1.0e-10
Total number of shell pairs                 ...     14535
Shell pairs after pre-screening             ...     10274
Total number of primitive shell pairs       ...     62501
Primitive shell pairs kept                  ...     25411
          la=0 lb=0:   3952 shell pairs
          la=1 lb=0:   3488 shell pairs
          la=1 lb=1:    817 shell pairs
          la=2 lb=0:   1302 shell pairs
          la=2 lb=1:    603 shell pairs
          la=2 lb=2:    112 shell pairs

Calculating one electron integrals          ... done (  0.1 sec)
Calculating RI/J V-Matrix + Cholesky decomp.... done (  0.1 sec)
Calculating Nuclear repulsion               ... done (  0.0 sec) ENN=   2797.728690142436 Eh

Diagonalization of the overlap matrix:
Smallest eigenvalue                        ... 3.349e-03
Time for diagonalization                   ...    0.010 sec
Threshold for overlap eigenvalues          ... 1.000e-07
Number of eigenvalues below threshold      ... 0
Time for construction of square roots      ...    0.019 sec
Total time needed                          ...    0.043 sec

-------------------
DFT GRID GENERATION
-------------------

General Integration Accuracy     IntAcc      ... 4.159
Radial Grid Type                 RadialGrid  ... OptM3 with GC (2021)
Angular Grid (max. ang.)         AngularGrid ... 3 (Lebedev-194)
Angular grid pruning method      GridPruning ... 4 (adaptive)
Weight generation scheme         WeightScheme... mBecke (2022)
Basis function cutoff            BFCut       ... 1.0000e-10
Integration weight cutoff        WCut        ... 1.0000e-14
Partially contracted basis set               ... off
Rotationally invariant grid construction     ... off
Angular grids for H and He will be reduced by one unit

Total number of grid points                  ...    97460
Total number of batches                      ...     1544
Average number of points per batch           ...       63
Average number of grid points per atom       ...     2377
Initializing property integral containers    ... done (  0.0 sec)

SHARK setup successfully completed in   1.6 seconds

Maximum memory used throughout the entire STARTUP-calculation: 51.5 MB
-------------------------------------------------------------------------------
                                 ORCA GUESS
                   Start orbitals & Density for SCF / CASSCF
-------------------------------------------------------------------------------

------------
SCF SETTINGS
------------
Hamiltonian:
 Density Functional     Method          .... DFT(GTOs)
 Exchange Functional    Exchange        .... PBE
   PBE kappa parameter   XKappa         ....  0.804000
   PBE mue parameter    XMuePBE         ....  0.219520
 Correlation Functional Correlation     .... PBE
   PBE beta parameter  CBetaPBE         ....  0.066725
 LDA part of GGA corr.  LDAOpt          .... PW91-LDA
 Gradients option       PostSCFGGA      .... off
   NL short-range parameter             ....  6.400000
 RI-approximation to the Coulomb term is turned on
   Number of AuxJ basis functions       .... 1185


General Settings:
 Integral files         IntName         .... sp
 Hartree-Fock type      HFTyp           .... RHF
 Total Charge           Charge          ....    0
 Multiplicity           Mult            ....    1
 Number of Electrons    NEL             ....  202
 Basis Dimension        Dim             ....  334
 Nuclear Repulsion      ENuc            ....   2797.7286901424 Eh

Convergence Acceleration:
 AO-DIIS                CNVDIIS         .... on
   Start iteration      DIISMaxIt       ....    12
   Startup error        DIISStart       ....  0.200000
   # of expansion vecs  DIISMaxEq       ....     5
   Bias factor          DIISBfac        ....   1.050
   Max. coefficient     DIISMaxC        ....  10.000
 MO-DIIS                CNVKDIIS        .... off
 Trust-Rad. Augm. Hess. CNVTRAH         .... auto
   Auto Start mean grad. ratio tolernc. ....  1.125000
   Auto Start start iteration           ....    50
   Auto Start num. interpolation iter.  ....    10
   Max. Number of Micro iterations      ....    24
   Max. Number of Macro iterations      .... Maxiter - #DIIS iter
   Number of Davidson start vectors     ....     2
   Converg. threshold    (grad. norm)   ....   1.000e-04
   Grad. Scal. Fac. for Micro threshold ....   0.100
   Minimum threshold for Micro iter.    ....   1.000e-02
   NR start threshold (gradient norm)   ....   1.000e-04
   Initial trust radius                 ....   0.400
   Minimum AH scaling param. (alpha)    ....   1.000
   Maximum AH scaling param. (alpha)    .... 1000.000
   Quad. conv. algorithm                .... NR
   White noise on init. David. guess    .... on
   Maximum white noise                  ....   0.010
   Pseudo random numbers                .... off
   Inactive MOs                         .... canonical
   Orbital update algorithm             .... Taylor
   Preconditioner                       .... Diag
   Full preconditioner red. dimension   ....   250
 SOSCF                  CNVSOSCF        .... on
   Start iteration      SOSCFMaxIt      ....   150
   Startup grad/error   SOSCFStart      ....  0.003300
   Hessian update       SOSCFHessUp     .... L-BFGS
 Level Shifting         CNVShift        .... on
   Level shift para.    LevelShift      ....    0.2500
   Turn off err/grad.   ShiftErr        ....    0.0010
 Zerner damping         CNVZerner       .... off
 Static damping         CNVDamp         .... on
   Fraction old density DampFac         ....    0.7000
   Max. Damping (<1)    DampMax         ....    0.9800
   Min. Damping (>=0)   DampMin         ....    0.0000
   Turn off err/grad.   DampErr         ....    0.1000

SCF Procedure:
 Maximum # iterations   MaxIter         ....   125
 SCF integral mode      SCFMode         .... Direct
   Integral package                     .... SHARK and LIBINT hybrid scheme
 Reset frequency        DirectResetFreq ....    20
 Integral Threshold     Thresh          ....  1.000e-09 Eh
 Primitive CutOff       TCut            ....  1.000e-10 Eh

Convergence Tolerance:
 Convergence Check Mode ConvCheckMode   .... Total+1el-Energy
 Convergence forced     ConvForced      .... 0
 Energy Change          TolE            ....  1.000e-05 Eh
 1-El. energy change                    ....  1.000e-02 Eh
 Orbital Gradient       TolG            ....  1.000e-04
 Orbital Rotation angle TolX            ....  1.000e-04
 DIIS Error             TolErr          ....  5.000e-04

------------------------------
INITIAL GUESS: MODEL POTENTIAL
------------------------------
Loading Hartree-Fock densities                     ... done
Calculating cut-offs                               ... done
Initializing the effective Hamiltonian             ... done
Setting up the integral package (SHARK)            ... done
Starting the Coulomb interaction                   ... done (   0.6 sec)
Making the grid                                    ... done (   0.6 sec)
Mapping shells                                     ... done
Starting the XC term evaluation                    ... done (   0.3 sec)
  promolecular density results
     # of electrons  =    201.984501571
     EX              =   -229.994760511
     EC              =     -7.286634504
     EX+EC           =   -237.281395015
Transforming the Hamiltonian                       ... done (   0.0 sec)
Diagonalizing the Hamiltonian                      ... done (   0.0 sec)
Back transforming the eigenvectors                 ... done (   0.0 sec)
Now organizing SCF variables                       ... done
                      ------------------
                      INITIAL GUESS DONE (   1.6 sec)
                      ------------------
             **** ENERGY FILE WAS UPDATED (sp.en.tmp) ****
Finished Guess after   1.9 sec
Maximum memory used throughout the entire GUESS-calculation: 39.2 MB

-------------------------------------------------------------------------------------------
                                      ORCA LEAN-SCF
                              memory conserving SCF solver
-------------------------------------------------------------------------------------------

----------------------------------------D-I-I-S--------------------------------------------
Iteration    Energy (Eh)           Delta-E    RMSDP     MaxDP     DIISErr   Damp  Time(sec)
-------------------------------------------------------------------------------------------
               ***  Starting incremental Fock matrix formation  ***
    1    -2929.1874967181497595     0.00e+00  2.69e-03  1.40e-01  1.81e-01  0.700   3.3
    2    -2929.4127702997698179    -2.25e-01  1.76e-03  7.13e-02  7.61e-02  0.700   2.1
                               ***Turning on AO-DIIS***
    3    -2929.4844276542694388    -7.17e-02  6.93e-04  1.64e-02  2.17e-02  0.700   2.0
    4    -2929.5294255636695198    -4.50e-02  1.04e-03  3.32e-02  9.76e-03  0.000   2.0
    5    -2929.6343971667388359    -1.05e-01  3.16e-04  1.12e-02  8.65e-03  0.000   2.0
                              *** Initializing SOSCF ***
---------------------------------------S-O-S-C-F--------------------------------------
Iteration    Energy (Eh)           Delta-E    RMSDP     MaxDP     MaxGrad    Time(sec)
--------------------------------------------------------------------------------------
    6    -2929.6354935917393050    -1.10e-03  1.12e-04  3.09e-03  2.39e-03     1.9
               *** Restarting incremental Fock matrix formation ***
    7    -2929.6356354193626430    -1.42e-04  7.57e-05  1.71e-03  2.80e-04     2.2
    8    -2929.6356402061433073    -4.79e-06  3.02e-05  9.16e-04  2.32e-04     1.7
                 **** Energy Check signals convergence ****

               *****************************************************
               *                     SUCCESS                       *
               *           SCF CONVERGED AFTER   8 CYCLES          *
               *****************************************************

             **** ENERGY FILE WAS UPDATED (sp.en.tmp) ****

----------------
TOTAL SCF ENERGY
----------------

Total Energy       :      -2929.63564020614331 Eh          -79719.43863 eV

Components:
Nuclear Repulsion  :       2797.72869014243634 Eh           76130.06804 eV
Electronic Energy  :      -5727.36433034857873 Eh         -155849.50666 eV
One Electron Energy:      -9614.86557364602413 Eh         -261633.79346 eV
Two Electron Energy:       3887.50124329744494 Eh          105784.28680 eV

Virial components:
Potential Energy   :      -5848.95951316703940 Eh         -159158.27980 eV
Kinetic Energy     :       2919.32387296089655 Eh           79438.84118 eV
Virial Ratio       :          2.00353224503138

DFT components:
N(Alpha)           :      100.999965276976 electrons
N(Beta)            :      100.999965276976 electrons
N(Total)           :      201.999930553953 electrons
E(X)               :     -231.804955388749 Eh       
E(C)               :       -7.295428062316 Eh       
E(XC)              :     -239.100383451065 Eh       

---------------
SCF CONVERGENCE
---------------

  Last Energy change         ...    4.7868e-06  Tolerance :   1.0000e-05
  Last MAX-Density change    ...    9.1647e-04  Tolerance :   1.0000e-03
  Last RMS-Density change    ...    3.0217e-05  Tolerance :   1.0000e-04
  Last DIIS Error            ...    2.3926e-03  Tolerance :   5.0000e-04
  Last Orbital Gradient      ...    2.3214e-04  Tolerance :   1.0000e-04
  Last Orbital Rotation      ...    3.9560e-04  Tolerance :   1.0000e-04


----------------
ORBITAL ENERGIES
----------------

  NO   OCC          E(Eh)            E(eV) 
   0   2.0000     -88.043231     -2395.7781 
   1   2.0000     -88.040067     -2395.6920 
   2   2.0000     -87.984064     -2394.1681 
   3   2.0000     -87.974086     -2393.8966 
   4   2.0000     -76.422881     -2079.5723 
   5   2.0000     -76.420396     -2079.5047 
   6   2.0000     -18.792881      -511.3803 
   7   2.0000     -18.789738      -511.2948 
   8   2.0000     -18.788339      -511.2567 
   9   2.0000     -18.781028      -511.0577 
  10   2.0000      -9.957938      -270.9693 
  11   2.0000      -9.953563      -270.8502 
  12   2.0000      -9.951743      -270.8007 
  13   2.0000      -9.944888      -270.6142 
  14   2.0000      -9.939802      -270.4758 
  15   2.0000      -9.885393      -268.9952 
  16   2.0000      -9.884162      -268.9617 
  17   2.0000      -9.881547      -268.8906 
  18   2.0000      -9.871764      -268.6244 
  19   2.0000      -7.689004      -209.2284 
  20   2.0000      -7.685466      -209.1322 
  21   2.0000      -7.628816      -207.5906 
  22   2.0000      -7.619330      -207.3325 
  23   2.0000      -6.420737      -174.7171 
  24   2.0000      -6.418073      -174.6447 
  25   2.0000      -5.716898      -155.5647 
  26   2.0000      -5.713656      -155.4765 
  27   2.0000      -5.713460      -155.4711 
  28   2.0000      -5.709606      -155.3663 
  29   2.0000      -5.705857      -155.2643 
  30   2.0000      -5.702405      -155.1703 
  31   2.0000      -5.657467      -153.9475 
  32   2.0000      -5.649722      -153.7368 
  33   2.0000      -5.648958      -153.7160 
  34   2.0000      -5.648429      -153.7016 
  35   2.0000      -5.639919      -153.4700 
  36   2.0000      -5.639223      -153.4510 
  37   2.0000      -4.643398      -126.3533 
  38   2.0000      -4.642254      -126.3221 
  39   2.0000      -4.641286      -126.2958 
  40   2.0000      -4.641094      -126.2906 
  41   2.0000      -4.639800      -126.2554 
  42   2.0000      -4.638201      -126.2119 
  43   2.0000      -0.983536       -26.7634 
  44   2.0000      -0.980940       -26.6927 
  45   2.0000      -0.941293       -25.6139 
  46   2.0000      -0.938670       -25.5425 
  47   2.0000      -0.762321       -20.7438 
  48   2.0000      -0.719354       -19.5746 
  49   2.0000      -0.706436       -19.2231 
  50   2.0000      -0.689386       -18.7591 
  51   2.0000      -0.683572       -18.6009 
  52   2.0000      -0.669921       -18.2295 
  53   2.0000      -0.648399       -17.6438 
  54   2.0000      -0.631415       -17.1817 
  55   2.0000      -0.596804       -16.2399 
  56   2.0000      -0.582627       -15.8541 
  57   2.0000      -0.573062       -15.5938 
  58   2.0000      -0.568171       -15.4607 
  59   2.0000      -0.553723       -15.0676 
  60   2.0000      -0.500351       -13.6152 
  61   2.0000      -0.495464       -13.4823 
  62   2.0000      -0.475773       -12.9464 
  63   2.0000      -0.469605       -12.7786 
  64   2.0000      -0.453530       -12.3412 
  65   2.0000      -0.445218       -12.1150 
  66   2.0000      -0.439115       -11.9489 
  67   2.0000      -0.429495       -11.6872 
  68   2.0000      -0.421389       -11.4666 
  69   2.0000      -0.420117       -11.4320 
  70   2.0000      -0.409644       -11.1470 
  71   2.0000      -0.398833       -10.8528 
  72   2.0000      -0.385332       -10.4854 
  73   2.0000      -0.382682       -10.4133 
  74   2.0000      -0.380074       -10.3423 
  75   2.0000      -0.369447       -10.0532 
  76   2.0000      -0.362988        -9.8774 
  77   2.0000      -0.354927        -9.6581 
  78   2.0000      -0.350769        -9.5449 
  79   2.0000      -0.347346        -9.4518 
  80   2.0000      -0.345037        -9.3889 
  81   2.0000      -0.342563        -9.3216 
  82   2.0000      -0.335232        -9.1221 
  83   2.0000      -0.331531        -9.0214 
  84   2.0000      -0.324342        -8.8258 
  85   2.0000      -0.312877        -8.5138 
  86   2.0000      -0.309347        -8.4178 
  87   2.0000      -0.300293        -8.1714 
  88   2.0000      -0.294985        -8.0270 
  89   2.0000      -0.286106        -7.7853 
  90   2.0000      -0.275481        -7.4962 
  91   2.0000      -0.270679        -7.3655 
  92   2.0000      -0.267853        -7.2887 
  93   2.0000      -0.261463        -7.1148 
  94   2.0000      -0.258018        -7.0210 
  95   2.0000      -0.238388        -6.4869 
  96   2.0000      -0.220352        -5.9961 
  97   2.0000      -0.212349        -5.7783 
  98   2.0000      -0.204421        -5.5626 
  99   2.0000      -0.191002        -5.1974 
 100   2.0000      -0.176567        -4.8046 
 101   0.0000      -0.038498        -1.0476 
 102   0.0000      -0.027623        -0.7517 
 103   0.0000      -0.019030        -0.5178 
 104   0.0000       0.007178         0.1953 
 105   0.0000       0.020333         0.5533 
 106   0.0000       0.029276         0.7966 
 107   0.0000       0.034264         0.9324 
 108   0.0000       0.043098         1.1728 
 109   0.0000       0.047993         1.3059 
 110   0.0000       0.051880         1.4117 
 111   0.0000       0.052698         1.4340 
*Only the first 10 virtual orbitals were printed.

                    ********************************
                    * MULLIKEN POPULATION ANALYSIS *
                    ********************************

-----------------------
MULLIKEN ATOMIC CHARGES
-----------------------
   0 C :   -0.314389
   1 C :   -0.004145
   2 O :   -0.380191
   3 P :    0.627603
   4 S :   -0.336223
   5 O :   -0.359504
   6 C :   -0.005483
   7 C :   -0.282145
   8 S :   -0.075044
   9 C :   -0.363549
  10 S :   -0.094801
  11 P :    0.617336
  12 S :   -0.302056
  13 O :   -0.368063
  14 C :   -0.024763
  15 C :   -0.286393
  16 O :   -0.389670
  17 C :   -0.014224
  18 C :   -0.311016
  19 H :    0.113053
  20 H :    0.117630
  21 H :    0.122848
  22 H :    0.112128
  23 H :    0.104280
  24 H :    0.098181
  25 H :    0.114472
  26 H :    0.110269
  27 H :    0.103747
  28 H :    0.128193
  29 H :    0.182486
  30 H :    0.209029
  31 H :    0.108432
  32 H :    0.103207
  33 H :    0.125454
  34 H :    0.120767
  35 H :    0.108201
  36 H :    0.130348
  37 H :    0.101082
  38 H :    0.112976
  39 H :    0.108085
  40 H :    0.131853
Sum of atomic charges:    0.0000000

--------------------------------
MULLIKEN REDUCED ORBITAL CHARGES
--------------------------------
  0 C s       :     3.106074  s :     3.106074
      pz      :     1.058940  p :     3.180286
      px      :     1.094256
      py      :     1.027090
      dz2     :     0.004292  d :     0.028028
      dxz     :     0.005568
      dyz     :     0.006343
      dx2y2   :     0.007740
      dxy     :     0.004085

  1 C s       :     3.075440  s :     3.075440
      pz      :     0.773952  p :     2.868437
      px      :     1.019146
      py      :     1.075339
      dz2     :     0.016694  d :     0.060268
      dxz     :     0.012403
      dyz     :     0.014596
      dx2y2   :     0.009515
      dxy     :     0.007061

  2 O s       :     3.758889  s :     3.758889
      pz      :     1.456249  p :     4.608217
      px      :     1.381952
      py      :     1.770017
      dz2     :     0.004180  d :     0.013085
      dxz     :     0.002417
      dyz     :     0.001554
      dx2y2   :     0.002919
      dxy     :     0.002015

  3 P s       :     5.197353  s :     5.197353
      pz      :     2.839681  p :     8.584005
      px      :     2.815829
      py      :     2.928495
      dz2     :     0.156950  d :     0.591040
      dxz     :     0.116160
      dyz     :     0.095215
      dx2y2   :     0.131355
      dxy     :     0.091359

  4 S s       :     5.919389  s :     5.919389
      pz      :     3.404499  p :    10.373459
      px      :     3.504180
      py      :     3.464780
      dz2     :     0.007301  d :     0.043375
      dxz     :     0.011665
      dyz     :     0.010610
      dx2y2   :     0.005516
      dxy     :     0.008283

  5 O s       :     3.762741  s :     3.762741
      pz      :     1.401488  p :     4.583548
      px      :     1.735552
      py      :     1.446508
      dz2     :     0.004675  d :     0.013215
      dxz     :     0.002065
      dyz     :     0.002283
      dx2y2   :     0.002191
      dxy     :     0.002002

  6 C s       :     3.067452  s :     3.067452
      pz      :     1.040527  p :     2.878332
      px      :     1.038036
      py      :     0.799768
      dz2     :     0.010762  d :     0.059699
      dxz     :     0.007643
      dyz     :     0.014846
      dx2y2   :     0.015117
      dxy     :     0.011331

  7 C s       :     3.088238  s :     3.088238
      pz      :     1.005885  p :     3.166165
      px      :     1.107742
      py      :     1.052538
      dz2     :     0.006659  d :     0.027743
      dxz     :     0.004986
      dyz     :     0.005569
      dx2y2   :     0.006512
      dxy     :     0.004016

  8 S s       :     5.873415  s :     5.873415
      pz      :     3.802742  p :    10.126380
      px      :     3.075185
      py      :     3.248453
      dz2     :     0.010900  d :     0.075249
      dxz     :     0.009667
      dyz     :     0.005937
      dx2y2   :     0.033705
      dxy     :     0.015040

  9 C s       :     3.224468  s :     3.224468
      pz      :     1.039634  p :     3.099435
      px      :     0.904619
      py      :     1.155182
      dz2     :     0.006649  d :     0.039646
      dxz     :     0.009891
      dyz     :     0.007105
      dx2y2   :     0.011375
      dxy     :     0.004627

 10 S s       :     5.868428  s :     5.868428
      pz      :     3.355932  p :    10.154522
      px      :     3.525650
      py      :     3.272940
      dz2     :     0.017607  d :     0.071850
      dxz     :     0.016742
      dyz     :     0.011509
      dx2y2   :     0.014888
      dxy     :     0.011105

 11 P s       :     5.189134  s :     5.189134
      pz      :     2.792712  p :     8.610235
      px      :     2.861390
      py      :     2.956133
      dz2     :     0.143980  d :     0.583295
      dxz     :     0.129714
      dyz     :     0.084769
      dx2y2   :     0.122682
      dxy     :     0.102151

 12 S s       :     5.908288  s :     5.908288
      pz      :     3.635580  p :    10.351097
      px      :     3.572293
      py      :     3.143224
      dz2     :     0.005583  d :     0.042671
      dxz     :     0.003851
      dyz     :     0.008852
      dx2y2   :     0.011163
      dxy     :     0.013223

 13 O s       :     3.768642  s :     3.768642
      pz      :     1.693515  p :     4.586223
      px      :     1.324619
      py      :     1.568089
      dz2     :     0.002108  d :     0.013198
      dxz     :     0.003019
      dyz     :     0.002033
      dx2y2   :     0.002987
      dxy     :     0.003051

 14 C s       :     3.085804  s :     3.085804
      pz      :     1.074815  p :     2.879475
      px      :     0.911849
      py      :     0.892810
      dz2     :     0.011634  d :     0.059484
      dxz     :     0.006485
      dyz     :     0.012523
      dx2y2   :     0.010552
      dxy     :     0.018288

 15 C s       :     3.093623  s :     3.093623
      pz      :     1.037291  p :     3.164948
      px      :     1.079049
      py      :     1.048607
      dz2     :     0.007509  d :     0.027822
      dxz     :     0.002177
      dyz     :     0.007363
      dx2y2   :     0.002253
      dxy     :     0.008519

 16 O s       :     3.762104  s :     3.762104
      pz      :     1.322181  p :     4.614549
      px      :     1.747735
      py      :     1.544633
      dz2     :     0.003863  d :     0.013018
      dxz     :     0.002001
      dyz     :     0.003287
      dx2y2   :     0.002218
      dxy     :     0.001649

 17 C s       :     3.088486  s :     3.088486
      pz      :     0.939828  p :     2.865455
      px      :     1.058214
      py      :     0.867413
      dz2     :     0.013110  d :     0.060283
      dxz     :     0.005837
      dyz     :     0.015751
      dx2y2   :     0.010238
      dxy     :     0.015347

 18 C s       :     3.100291  s :     3.100291
      pz      :     1.094799  p :     3.182737
      px      :     1.027224
      py      :     1.060713
      dz2     :     0.006643  d :     0.027988
      dxz     :     0.002122
      dyz     :     0.007086
      dx2y2   :     0.004453
      dxy     :     0.007685

 19 H s       :     0.886947  s :     0.886947

 20 H s       :     0.882370  s :     0.882370

 21 H s       :     0.877152  s :     0.877152

 22 H s       :     0.887872  s :     0.887872

 23 H s       :     0.895720  s :     0.895720

 24 H s       :     0.901819  s :     0.901819

 25 H s       :     0.885528  s :     0.885528

 26 H s       :     0.889731  s :     0.889731

 27 H s       :     0.896253  s :     0.896253

 28 H s       :     0.871807  s :     0.871807

 29 H s       :     0.817514  s :     0.817514

 30 H s       :     0.790971  s :     0.790971

 31 H s       :     0.891568  s :     0.891568

 32 H s       :     0.896793  s :     0.896793

 33 H s       :     0.874546  s :     0.874546

 34 H s       :     0.879233  s :     0.879233

 35 H s       :     0.891799  s :     0.891799

 36 H s       :     0.869652  s :     0.869652

 37 H s       :     0.898918  s :     0.898918

 38 H s       :     0.887024  s :     0.887024

 39 H s       :     0.891915  s :     0.891915

 40 H s       :     0.868147  s :     0.868147


------------------------
MULLIKEN OVERLAP CHARGES
------------------------
B(  0-C ,  1-C ) :   0.9305 B(  0-C ,  2-O ) :  -0.0906 B(  0-C , 19-H ) :   0.6909 
B(  0-C , 20-H ) :   0.7294 B(  0-C , 21-H ) :   0.7179 B(  0-C , 22-H ) :  -0.0670 
B(  1-C ,  2-O ) :   0.5591 B(  1-C ,  3-P ) :  -0.0764 B(  1-C , 22-H ) :   0.7168 
B(  1-C , 23-H ) :   0.7229 B(  2-O ,  3-P ) :   0.6354 B(  2-O ,  4-S ) :  -0.0803 
B(  2-O ,  5-O ) :  -0.0659 B(  2-O ,  8-S ) :  -0.0553 B(  2-O , 22-H ) :  -0.0682 
B(  2-O , 23-H ) :  -0.0584 B(  3-P ,  4-S ) :   0.9493 B(  3-P ,  5-O ) :   0.6724 
B(  3-P ,  6-C ) :  -0.0660 B(  3-P ,  8-S ) :   0.4989 B(  3-P ,  9-C ) :  -0.0641 
B(  4-S ,  5-O ) :  -0.0614 B(  4-S ,  8-S ) :  -0.0958 B(  4-S , 22-H ) :   0.0662 
B(  4-S , 30-H ) :   0.0912 B(  5-O ,  6-C ) :   0.5313 B(  5-O ,  7-C ) :  -0.1100 
B(  5-O ,  8-S ) :  -0.0783 B(  5-O , 24-H ) :  -0.0626 B(  5-O , 25-H ) :  -0.0652 
B(  6-C ,  7-C ) :   0.8877 B(  6-C , 24-H ) :   0.7298 B(  6-C , 25-H ) :   0.7135 
B(  7-C , 24-H ) :  -0.0519 B(  7-C , 26-H ) :   0.7301 B(  7-C , 27-H ) :   0.6960 
B(  7-C , 28-H ) :   0.7320 B(  8-S ,  9-C ) :   0.4930 B(  8-S , 10-S ) :  -0.1542 
B(  8-S , 29-H ) :  -0.0674 B(  8-S , 30-H ) :  -0.0543 B(  9-C , 10-S ) :   0.4356 
B(  9-C , 29-H ) :   0.7239 B(  9-C , 30-H ) :   0.6237 B( 10-S , 11-P ) :   0.5386 
B( 10-S , 12-S ) :  -0.0563 B( 10-S , 13-O ) :  -0.0716 B( 10-S , 16-O ) :  -0.0969 
B( 10-S , 29-H ) :  -0.0656 B( 11-P , 12-S ) :   0.9539 B( 11-P , 13-O ) :   0.6243 
B( 11-P , 16-O ) :   0.6047 B( 11-P , 17-C ) :  -0.0787 B( 12-S , 13-O ) :  -0.0893 
B( 12-S , 16-O ) :  -0.0694 B( 12-S , 36-H ) :   0.0529 B( 13-O , 14-C ) :   0.5158 
B( 13-O , 15-C ) :  -0.1050 B( 13-O , 16-O ) :  -0.0526 B( 13-O , 31-H ) :  -0.0576 
B( 13-O , 32-H ) :  -0.0640 B( 14-C , 15-C ) :   0.8983 B( 14-C , 31-H ) :   0.7298 
B( 14-C , 32-H ) :   0.6960 B( 15-C , 31-H ) :  -0.0556 B( 15-C , 32-H ) :  -0.0586 
B( 15-C , 33-H ) :   0.7471 B( 15-C , 34-H ) :   0.7337 B( 15-C , 35-H ) :   0.6923 
B( 16-O , 17-C ) :   0.5391 B( 16-O , 18-C ) :  -0.0894 B( 16-O , 36-H ) :  -0.0627 
B( 16-O , 37-H ) :  -0.0597 B( 17-C , 18-C ) :   0.8954 B( 17-C , 36-H ) :   0.7277 
B( 17-C , 37-H ) :   0.7309 B( 18-C , 36-H ) :  -0.0732 B( 18-C , 37-H ) :  -0.0589 
B( 18-C , 38-H ) :   0.7054 B( 18-C , 39-H ) :   0.7196 B( 18-C , 40-H ) :   0.7221 
B( 20-H , 21-H ) :  -0.0541 B( 22-H , 23-H ) :  -0.0634 B( 24-H , 25-H ) :  -0.0850 
B( 31-H , 32-H ) :  -0.0709 B( 36-H , 37-H ) :  -0.0618 B( 39-H , 40-H ) :  -0.0520 



                     *******************************
                     * LOEWDIN POPULATION ANALYSIS *
                     *******************************

----------------------
LOEWDIN ATOMIC CHARGES
----------------------
   0 C :   -0.369785
   1 C :   -0.120005
   2 O :   -0.244155
   3 P :    0.571281
   4 S :   -0.311647
   5 O :   -0.236935
   6 C :   -0.116602
   7 C :   -0.352770
   8 S :    0.094288
   9 C :   -0.478159
  10 S :    0.082735
  11 P :    0.562930
  12 S :   -0.293810
  13 O :   -0.243120
  14 C :   -0.122873
  15 C :   -0.359238
  16 O :   -0.251597
  17 C :   -0.123345
  18 C :   -0.366041
  19 H :    0.131101
  20 H :    0.124376
  21 H :    0.119775
  22 H :    0.110526
  23 H :    0.118219
  24 H :    0.107172
  25 H :    0.109715
  26 H :    0.124544
  27 H :    0.127672
  28 H :    0.127937
  29 H :    0.138014
  30 H :    0.129698
  31 H :    0.118896
  32 H :    0.105955
  33 H :    0.120450
  34 H :    0.129451
  35 H :    0.129238
  36 H :    0.111122
  37 H :    0.116500
  38 H :    0.131473
  39 H :    0.120486
  40 H :    0.126529

-------------------------------
LOEWDIN REDUCED ORBITAL CHARGES
-------------------------------
  0 C s       :     2.953988  s :     2.953988
      pz      :     1.116380  p :     3.346528
      px      :     1.141696
      py      :     1.088452
      dz2     :     0.010155  d :     0.069269
      dxz     :     0.013139
      dyz     :     0.017119
      dx2y2   :     0.020029
      dxy     :     0.008827

  1 C s       :     2.928032  s :     2.928032
      pz      :     0.866058  p :     3.057105
      px      :     1.072529
      py      :     1.118517
      dz2     :     0.035899  d :     0.134868
      dxz     :     0.026022
      dyz     :     0.035380
      dx2y2   :     0.023307
      dxy     :     0.014261

  2 O s       :     3.499205  s :     3.499205
      pz      :     1.496800  p :     4.720964
      px      :     1.461936
      py      :     1.762228
      dz2     :     0.008132  d :     0.023985
      dxz     :     0.004459
      dyz     :     0.002449
      dx2y2   :     0.006051
      dxy     :     0.002894

  3 P s       :     5.052870  s :     5.052870
      pz      :     2.832729  p :     8.554086
      px      :     2.808291
      py      :     2.913066
      dz2     :     0.228779  d :     0.821763
      dxz     :     0.152388
      dyz     :     0.127728
      dx2y2   :     0.192770
      dxy     :     0.120097

  4 S s       :     5.765596  s :     5.765596
      pz      :     3.453705  p :    10.488114
      px      :     3.523499
      py      :     3.510910
      dz2     :     0.008236  d :     0.057937
      dxz     :     0.016660
      dyz     :     0.015362
      dx2y2   :     0.006061
      dxy     :     0.011619

  5 O s       :     3.505365  s :     3.505365
      pz      :     1.473639  p :     4.707635
      px      :     1.740774
      py      :     1.493222
      dz2     :     0.009551  d :     0.023935
      dxz     :     0.002793
      dyz     :     0.004419
      dx2y2   :     0.003836
      dxy     :     0.003336

  6 C s       :     2.930199  s :     2.930199
      pz      :     1.073566  p :     3.054282
      px      :     1.104061
      py      :     0.876655
      dz2     :     0.028453  d :     0.132121
      dxz     :     0.014935
      dyz     :     0.030131
      dx2y2   :     0.033672
      dxy     :     0.024930

  7 C s       :     2.950223  s :     2.950223
      pz      :     1.067624  p :     3.333674
      px      :     1.145697
      py      :     1.120353
      dz2     :     0.019101  d :     0.068873
      dxz     :     0.010787
      dyz     :     0.013577
      dx2y2   :     0.015835
      dxy     :     0.009573

  8 S s       :     5.637841  s :     5.637841
      pz      :     3.785082  p :    10.172889
      px      :     3.121502
      py      :     3.266305
      dz2     :     0.014390  d :     0.094981
      dxz     :     0.011206
      dyz     :     0.006689
      dx2y2   :     0.045124
      dxy     :     0.017573

  9 C s       :     3.062408  s :     3.062408
      pz      :     1.109254  p :     3.328524
      px      :     1.030779
      py      :     1.188491
      dz2     :     0.014344  d :     0.087227
      dxz     :     0.021537
      dyz     :     0.016099
      dx2y2   :     0.025859
      dxy     :     0.009387

 10 S s       :     5.636079  s :     5.636079
      pz      :     3.385708  p :    10.190684
      px      :     3.520907
      py      :     3.284069
      dz2     :     0.021239  d :     0.090502
      dxz     :     0.022555
      dyz     :     0.013034
      dx2y2   :     0.018829
      dxy     :     0.014845

 11 P s       :     5.058239  s :     5.058239
      pz      :     2.781963  p :     8.565703
      px      :     2.845984
      py      :     2.937755
      dz2     :     0.211681  d :     0.813128
      dxz     :     0.181924
      dyz     :     0.108804
      dx2y2   :     0.172915
      dxy     :     0.137804

 12 S s       :     5.758966  s :     5.758966
      pz      :     3.645217  p :    10.477286
      px      :     3.581186
      py      :     3.250884
      dz2     :     0.007649  d :     0.057558
      dxz     :     0.004648
      dyz     :     0.011606
      dx2y2   :     0.014795
      dxy     :     0.018860

 13 O s       :     3.510051  s :     3.510051
      pz      :     1.706648  p :     4.709044
      px      :     1.404974
      py      :     1.597421
      dz2     :     0.003082  d :     0.024026
      dxz     :     0.006134
      dyz     :     0.002690
      dx2y2   :     0.005995
      dxy     :     0.006126

 14 C s       :     2.930509  s :     2.930509
      pz      :     1.117076  p :     3.059679
      px      :     0.975257
      py      :     0.967346
      dz2     :     0.026120  d :     0.132685
      dxz     :     0.012216
      dyz     :     0.032212
      dx2y2   :     0.022356
      dxy     :     0.039781

 15 C s       :     2.952745  s :     2.952745
      pz      :     1.095924  p :     3.337491
      px      :     1.134549
      py      :     1.107018
      dz2     :     0.018332  d :     0.069002
      dxz     :     0.004560
      dyz     :     0.020160
      dx2y2   :     0.005474
      dxy     :     0.020477

 16 O s       :     3.505068  s :     3.505068
      pz      :     1.400338  p :     4.722590
      px      :     1.739046
      py      :     1.583206
      dz2     :     0.008212  d :     0.023939
      dxz     :     0.003640
      dyz     :     0.006402
      dx2y2   :     0.003345
      dxy     :     0.002340

 17 C s       :     2.928578  s :     2.928578
      pz      :     0.999464  p :     3.060063
      px      :     1.112670
      py      :     0.947929
      dz2     :     0.030470  d :     0.134704
      dxz     :     0.010821
      dyz     :     0.034820
      dx2y2   :     0.021889
      dxy     :     0.036705

 18 C s       :     2.952974  s :     2.952974
      pz      :     1.139924  p :     3.343718
      px      :     1.087420
      py      :     1.116374
      dz2     :     0.016727  d :     0.069349
      dxz     :     0.004785
      dyz     :     0.016990
      dx2y2   :     0.010784
      dxy     :     0.020063

 19 H s       :     0.868899  s :     0.868899

 20 H s       :     0.875624  s :     0.875624

 21 H s       :     0.880225  s :     0.880225

 22 H s       :     0.889474  s :     0.889474

 23 H s       :     0.881781  s :     0.881781

 24 H s       :     0.892828  s :     0.892828

 25 H s       :     0.890285  s :     0.890285

 26 H s       :     0.875456  s :     0.875456

 27 H s       :     0.872328  s :     0.872328

 28 H s       :     0.872063  s :     0.872063

 29 H s       :     0.861986  s :     0.861986

 30 H s       :     0.870302  s :     0.870302

 31 H s       :     0.881104  s :     0.881104

 32 H s       :     0.894045  s :     0.894045

 33 H s       :     0.879550  s :     0.879550

 34 H s       :     0.870549  s :     0.870549

 35 H s       :     0.870762  s :     0.870762

 36 H s       :     0.888878  s :     0.888878

 37 H s       :     0.883500  s :     0.883500

 38 H s       :     0.868527  s :     0.868527

 39 H s       :     0.879514  s :     0.879514

 40 H s       :     0.873471  s :     0.873471


---------------------------------
LOEWDIN BOND ORDERS (THRESH 0.050000)
---------------------------------
B(  0-C ,  1-C ) :   1.1575 B(  0-C ,  2-O ) :   0.0586 B(  0-C , 19-H ) :   0.9252 
B(  0-C , 20-H ) :   0.9356 B(  0-C , 21-H ) :   0.9276 B(  1-C ,  2-O ) :   1.0913 
B(  1-C ,  3-P ) :   0.0639 B(  1-C , 22-H ) :   0.9067 B(  1-C , 23-H ) :   0.9170 
B(  2-O ,  3-P ) :   1.2704 B(  2-O ,  4-S ) :   0.0917 B(  2-O ,  5-O ) :   0.0544 
B(  2-O ,  8-S ) :   0.0547 B(  3-P ,  4-S ) :   1.7044 B(  3-P ,  5-O ) :   1.3099 
B(  3-P ,  6-C ) :   0.0641 B(  3-P ,  8-S ) :   1.0746 B(  4-S ,  5-O ) :   0.0900 
B(  4-S ,  8-S ) :   0.1340 B(  4-S , 30-H ) :   0.0545 B(  5-O ,  6-C ) :   1.0659 
B(  5-O ,  7-C ) :   0.0577 B(  5-O ,  8-S ) :   0.0503 B(  6-C ,  7-C ) :   1.1562 
B(  6-C , 24-H ) :   0.9174 B(  6-C , 25-H ) :   0.9090 B(  7-C , 26-H ) :   0.9368 
B(  7-C , 27-H ) :   0.9287 B(  7-C , 28-H ) :   0.9298 B(  8-S ,  9-C ) :   1.1766 
B(  8-S , 10-S ) :   0.0972 B(  9-C , 10-S ) :   1.1583 B(  9-C , 29-H ) :   0.9241 
B(  9-C , 30-H ) :   0.8989 B( 10-S , 11-P ) :   1.0649 B( 10-S , 12-S ) :   0.1161 
B( 10-S , 13-O ) :   0.0653 B( 10-S , 16-O ) :   0.0538 B( 11-P , 12-S ) :   1.7716 
B( 11-P , 13-O ) :   1.2808 B( 11-P , 14-C ) :   0.0636 B( 11-P , 16-O ) :   1.2409 
B( 11-P , 17-C ) :   0.0638 B( 12-S , 13-O ) :   0.0810 B( 12-S , 16-O ) :   0.0935 
B( 13-O , 14-C ) :   1.0786 B( 13-O , 15-C ) :   0.0604 B( 13-O , 16-O ) :   0.0578 
B( 14-C , 15-C ) :   1.1569 B( 14-C , 31-H ) :   0.9165 B( 14-C , 32-H ) :   0.9117 
B( 15-C , 33-H ) :   0.9296 B( 15-C , 34-H ) :   0.9353 B( 15-C , 35-H ) :   0.9273 
B( 16-O , 17-C ) :   1.0870 B( 16-O , 18-C ) :   0.0595 B( 17-C , 18-C ) :   1.1564 
B( 17-C , 36-H ) :   0.9029 B( 17-C , 37-H ) :   0.9170 B( 18-C , 38-H ) :   0.9262 
B( 18-C , 39-H ) :   0.9371 B( 18-C , 40-H ) :   0.9275 

------------------------------------------
LOEWDIN REDUCED ORBITAL POPULATIONS PER MO
-------------------------------------------
THRESHOLD FOR PRINTING IS 0.1%%
                      0         1         2         3         4         5   
                 -88.04323 -88.04007 -87.98406 -87.97409 -76.42288 -76.42040
                   2.00000   2.00000   2.00000   2.00000   2.00000   2.00000
                  --------  --------  --------  --------  --------  --------
 3 P  s               0.0       0.0       0.0       0.0     100.0       0.0
 4 S  s               0.0       0.0     100.0       0.0       0.0       0.0
 8 S  s             100.0       0.0       0.0       0.0       0.0       0.0
10 S  s               0.0     100.0       0.0       0.0       0.0       0.0
11 P  s               0.0       0.0       0.0       0.0       0.0     100.0
12 S  s               0.0       0.0       0.0     100.0       0.0       0.0

                      6         7         8         9        10        11   
                 -18.79288 -18.78974 -18.78834 -18.78103  -9.95794  -9.95356
                   2.00000   2.00000   2.00000   2.00000   2.00000   2.00000
                  --------  --------  --------  --------  --------  --------
 2 O  s              99.9       0.0       0.0       0.0       0.0       0.0
 5 O  s               0.0       0.0       0.0      99.9       0.0       0.0
 9 C  s               0.0       0.0       0.0       0.0      99.8       0.0
13 O  s               0.0       0.1      99.8       0.0       0.0       0.0
14 C  s               0.0       0.0       0.0       0.0       0.0      99.7
16 O  s               0.0      99.8       0.1       0.0       0.0       0.0

                     12        13        14        15        16        17   
                  -9.95174  -9.94489  -9.93980  -9.88539  -9.88416  -9.88155
                   2.00000   2.00000   2.00000   2.00000   2.00000   2.00000
                  --------  --------  --------  --------  --------  --------
 0 C  s               0.0       0.0       0.0       0.0      99.7       0.0
 1 C  s              99.7       0.0       0.0       0.0       0.0       0.0
 6 C  s               0.0       0.0      99.7       0.0       0.0       0.0
 7 C  pz              0.0       0.0       0.1       0.0       0.0       0.0
15 C  s               0.0       0.0       0.0      99.7       0.0       0.0
17 C  s               0.0      99.7       0.0       0.0       0.0       0.0
18 C  s               0.0       0.0       0.0       0.0       0.0      99.7

                     18        19        20        21        22        23   
                  -9.87176  -7.68900  -7.68547  -7.62882  -7.61933  -6.42074
                   2.00000   2.00000   2.00000   2.00000   2.00000   2.00000
                  --------  --------  --------  --------  --------  --------
 2 O  px              0.0       0.0       0.0       0.0       0.0       0.2
 3 P  s               0.0       0.0       0.0       0.0       0.0      99.3
 4 S  s               0.0       0.0       0.0      99.9       0.0       0.0
 5 O  pz              0.0       0.0       0.0       0.0       0.0       0.2
 6 C  pz              0.1       0.0       0.0       0.0       0.0       0.0
 7 C  s              99.7       0.0       0.0       0.0       0.0       0.0
 8 S  s               0.0      99.7       0.0       0.0       0.0       0.0
 9 C  pz              0.0       0.0       0.1       0.0       0.0       0.0
 9 C  px              0.0       0.2       0.0       0.0       0.0       0.0
10 S  s               0.0       0.0      99.7       0.0       0.0       0.0
12 S  s               0.0       0.0       0.0       0.0      99.9       0.0

                     24        25        26        27        28        29   
                  -6.41807  -5.71690  -5.71366  -5.71346  -5.70961  -5.70586
                   2.00000   2.00000   2.00000   2.00000   2.00000   2.00000
                  --------  --------  --------  --------  --------  --------
 8 S  pz              0.0       0.2       0.0       3.1       0.0      96.6
 8 S  px              0.0      59.7       0.0      38.0       0.0       2.3
 8 S  py              0.0      40.0       0.1      58.8       0.0       1.1
10 S  pz              0.0       0.0      15.9       0.0      63.5       0.0
10 S  px              0.0       0.0      30.8       0.0       3.4       0.0
10 S  py              0.0       0.0      53.2       0.1      33.1       0.0
11 P  s              99.3       0.0       0.0       0.0       0.0       0.0
13 O  px              0.2       0.0       0.0       0.0       0.0       0.0
16 O  pz              0.2       0.0       0.0       0.0       0.0       0.0

                     30        31        32        33        34        35   
                  -5.70241  -5.65747  -5.64972  -5.64896  -5.64843  -5.63992
                   2.00000   2.00000   2.00000   2.00000   2.00000   2.00000
                  --------  --------  --------  --------  --------  --------
 4 S  pz              0.0      44.2       7.2      48.6       0.0       0.0
 4 S  px              0.0      23.8      30.3      45.9       0.0       0.0
 4 S  py              0.0      31.9      62.5       5.5       0.0       0.0
10 S  pz             20.6       0.0       0.0       0.0       0.0       0.0
10 S  px             65.8       0.0       0.0       0.0       0.0       0.0
10 S  py             13.7       0.0       0.0       0.0       0.0       0.0
12 S  pz              0.0       0.0       0.0       0.0       7.1      49.7
12 S  px              0.0       0.0       0.0       0.0      14.7      30.1
12 S  py              0.0       0.0       0.0       0.0      78.2      20.2

                     36        37        38        39        40        41   
                  -5.63922  -4.64340  -4.64225  -4.64129  -4.64109  -4.63980
                   2.00000   2.00000   2.00000   2.00000   2.00000   2.00000
                  --------  --------  --------  --------  --------  --------
 3 P  pz              0.0      34.2      35.6      30.1       0.0       0.0
 3 P  px              0.0      65.6      17.0      17.3       0.0       0.0
 3 P  py              0.0       0.0      47.3      52.6       0.0       0.0
11 P  pz              0.0       0.0       0.0       0.0      80.6      18.4
11 P  px              0.0       0.0       0.0       0.0      17.6      60.9
11 P  py              0.0       0.0       0.0       0.0       1.6      20.6
12 S  pz             43.2       0.0       0.0       0.0       0.0       0.0
12 S  px             55.2       0.0       0.0       0.0       0.0       0.0
12 S  py              1.6       0.0       0.0       0.0       0.0       0.0

                     42        43        44        45        46        47   
                  -4.63820  -0.98354  -0.98094  -0.94129  -0.93867  -0.76232
                   2.00000   2.00000   2.00000   2.00000   2.00000   2.00000
                  --------  --------  --------  --------  --------  --------
 0 C  s               0.0       0.3       0.0       0.0       0.3       0.1
 0 C  pz              0.0       0.2       0.0       0.0       0.2       0.0
 0 C  py              0.0       0.3       0.0       0.0       0.3       0.0
 1 C  s               0.0       4.2       0.0       0.0       3.9       0.3
 1 C  pz              0.0       3.5       0.0       0.0       2.6       0.0
 1 C  px              0.0       1.0       0.0       0.0       0.6       0.0
 1 C  dz2             0.0       0.2       0.0       0.0       0.2       0.0
 1 C  dxz             0.0       0.2       0.0       0.0       0.2       0.0
 2 O  s               0.0      35.7       0.1       0.0      23.3       0.2
 2 O  pz              0.0       0.4       0.0       0.0       1.1       0.1
 2 O  px              0.0       1.4       0.0       0.0       0.1       0.4
 3 P  s               0.0      14.0       0.0       0.0       0.3       3.3
 3 P  pz              0.0       1.2       0.0       0.0       6.6       0.1
 3 P  px              0.0       3.6       0.0       0.0       3.8       0.7
 3 P  py              0.0       0.2       0.0       0.0       0.3       2.0
 3 P  dz2             0.0       0.1       0.0       0.0       2.2       0.1
 3 P  dxz             0.0       0.1       0.0       0.0       0.0       0.0
 3 P  dyz             0.0       0.1       0.0       0.0       0.3       0.0
 3 P  dx2y2           0.0       0.7       0.0       0.0       0.8       0.2
 4 S  s               0.0       0.3       0.0       0.0       0.0       0.7
 4 S  pz              0.0       0.2       0.0       0.0       0.0       0.1
 4 S  px              0.0       0.1       0.0       0.0       0.0       0.0
 4 S  py              0.0       0.1       0.0       0.0       0.0       0.1
 5 O  s               0.0      21.1       0.0       0.0      37.7       0.3
 5 O  pz              0.0       1.2       0.0       0.0       0.4       0.4
 5 O  px              0.0       0.2       0.0       0.0       0.1       0.0
 5 O  py              0.0       0.1       0.0       0.0       0.7       0.5
 6 C  s               0.0       2.4       0.0       0.0       5.1       0.7
 6 C  pz              0.0       0.5       0.0       0.0       0.6       0.0
 6 C  px              0.0       0.2       0.0       0.0       0.4       0.0
 6 C  py              0.0       2.2       0.0       0.0       3.7       0.1
 6 C  dyz             0.0       0.1       0.0       0.0       0.2       0.0
 6 C  dx2y2           0.0       0.1       0.0       0.0       0.2       0.0
 7 C  s               0.0       0.1       0.0       0.0       0.4       0.2
 7 C  pz              0.0       0.3       0.0       0.0       0.6       0.1
 8 S  s               0.0       0.3       0.0       0.0       0.0      21.3
 8 S  px              0.0       0.0       0.0       0.0       0.0       2.4
 8 S  py              0.0       0.4       0.0       0.0       0.0       0.6
 8 S  dz2             0.0       0.0       0.0       0.0       0.0       0.2
 9 C  s               0.0       0.0       0.0       0.0       0.0      26.6
 9 C  pz              0.0       0.0       0.0       0.0       0.0       1.6
 9 C  px              0.0       0.0       0.0       0.0       0.0       0.7
 9 C  py              0.0       0.0       0.0       0.0       0.0       0.1
10 S  s               0.0       0.0       0.4       0.0       0.0      16.0
10 S  pz              0.0       0.0       0.0       0.0       0.0       1.9
10 S  px              0.0       0.0       0.1       0.0       0.0       0.6
10 S  py              0.0       0.0       0.3       0.0       0.0       0.0
10 S  dxz             0.0       0.0       0.0       0.0       0.0       0.2
11 P  s               0.0       0.0      13.9       0.0       0.0       1.6
11 P  pz              0.8       0.0       0.7       9.1       0.0       0.0
11 P  px             21.4       0.0       3.8       1.8       0.0       0.6
11 P  py             77.7       0.0       0.1       0.0       0.0       1.0
11 P  dz2             0.0       0.0       0.5       1.3       0.0       0.1
11 P  dxz             0.0       0.0       0.1       1.4       0.0       0.0
11 P  dx2y2           0.0       0.0       0.4       0.4       0.0       0.1
[...]
 1 C  pz              0.8       0.1       0.0       1.2
 1 C  px              0.2       0.0       0.0       0.3
 1 C  dz2             1.2       0.1       0.0       1.9
 1 C  dxz             1.8       0.2       0.0       2.3
 1 C  dx2y2           0.1       0.0       0.0       0.1
 2 O  s               0.1       0.0       0.1       0.2
 2 O  pz              1.2       0.2       0.0       1.4
 2 O  px              1.3       0.3       0.0       2.0
 2 O  dz2            18.0       2.6       0.0      24.2
 2 O  dxz             2.6       0.0       0.2       6.4
 2 O  dx2y2           2.3       1.1       0.1       3.2
 2 O  dxy             0.1       0.0       0.0       0.2
 3 P  s               0.5       0.1       0.0       0.1
 3 P  pz              0.0       0.0       0.0       2.0
 3 P  px              0.6       0.2       0.0       0.8
 3 P  py              0.0       0.0       0.0       0.2
 3 P  dz2             0.1       0.1       0.0       1.0
 3 P  dxz             0.1       0.0       0.0       0.3
 3 P  dyz             0.1       0.0       0.0       0.4
 3 P  dx2y2           0.1       0.1       0.0       0.2
 5 O  s               2.2       0.8       0.1       0.2
 5 O  pz              0.5       0.1       0.0       2.8
 5 O  px              0.1       0.0       0.0       0.0
 5 O  py              1.3       0.4       0.0       1.7
 5 O  dz2             2.7       0.9       0.2      25.7
 5 O  dxz             0.6       0.4       0.1       2.3
 5 O  dyz            10.5       3.6       0.3       0.0
 5 O  dx2y2          12.3       4.4       0.5       5.6
 5 O  dxy             6.7       2.4       0.3       4.2
 6 C  s               0.9       0.3       0.0       0.5
 6 C  pz              0.4       0.1       0.0       0.4
 6 C  px              0.1       0.0       0.0       0.1
 6 C  py              1.3       0.5       0.0       0.7
 6 C  dz2             1.1       0.4       0.0       0.4
 6 C  dxz             0.3       0.1       0.0       0.3
 6 C  dyz             1.6       0.5       0.1       2.0
 6 C  dx2y2           2.4       0.8       0.1       1.0
 6 C  dxy             1.2       0.4       0.0       0.3
 7 C  dz2             0.2       0.1       0.0       0.2
 7 C  dyz             0.1       0.0       0.0       0.2
11 P  s               0.0       0.2       0.6       0.0
11 P  pz              0.3       0.9       0.6       0.1
11 P  px              0.1       0.6       0.3       0.0
11 P  dz2             0.1       0.4       0.3       0.0
11 P  dxz             0.1       0.2       0.1       0.0
11 P  dyz             0.0       0.1       0.2       0.0
11 P  dx2y2           0.1       0.3       0.2       0.0
13 O  s               0.1       0.3       0.1       0.0
13 O  pz              0.0       0.2       0.0       0.0
13 O  px              0.8       3.6       0.3       0.0
13 O  py              0.3       1.2       0.2       0.0
13 O  dz2             1.6       6.8       2.2       0.0
13 O  dxz             2.6      11.9       0.5       0.1
13 O  dyz             0.2       1.0       0.1       0.0
13 O  dx2y2           1.2       5.6       0.3       0.1
13 O  dxy             5.7      25.3       5.4       0.0
14 C  s               0.3       1.2       0.2       0.0
14 C  px              0.2       1.0       0.2       0.0
14 C  py              0.3       1.1       0.2       0.0
14 C  dz2             0.5       2.1       0.3       0.0
14 C  dxy             1.2       5.3       1.0       0.0
16 O  s               0.0       0.0       1.1       0.0
16 O  pz              0.3       0.5       3.7       0.1
16 O  px              0.0       0.1       0.2       0.0
16 O  py              0.1       0.1       1.6       0.0
16 O  dz2             1.0       3.1       4.5       0.3
16 O  dxz             0.1       0.8       0.6       0.0
16 O  dyz             2.2       2.0      39.6       0.5
16 O  dx2y2           0.8       0.7      13.7       0.2
16 O  dxy             0.2       0.2       2.9       0.0
17 C  s               0.1       0.1       1.7       0.0
17 C  pz              0.1       0.1       1.1       0.0
17 C  px              0.0       0.0       0.2       0.0
17 C  py              0.1       0.1       1.8       0.0
17 C  dz2             0.0       0.1       0.1       0.0
17 C  dxz             0.0       0.0       0.4       0.0
17 C  dyz             0.4       0.4       7.1       0.1
17 C  dx2y2           0.1       0.0       2.4       0.0
17 C  dxy             0.0       0.0       0.3       0.0
18 C  dxy             0.0       0.0       0.2       0.0


                      *****************************
                      * MAYER POPULATION ANALYSIS *
                      *****************************

  NA   - Mulliken gross atomic population
  ZA   - Total nuclear charge
  QA   - Mulliken gross atomic charge
  VA   - Mayer's total valence
  BVA  - Mayer's bonded valence
  FA   - Mayer's free valence

  ATOM       NA         ZA         QA         VA         BVA        FA
  0 C      6.3144     6.0000    -0.3144     3.9876     3.9876     0.0000
  1 C      6.0041     6.0000    -0.0041     4.0024     4.0024    -0.0000
  2 O      8.3802     8.0000    -0.3802     2.1805     2.1805     0.0000
  3 P     14.3724    15.0000     0.6276     4.9815     4.9815    -0.0000
  4 S     16.3362    16.0000    -0.3362     2.0948     2.0948     0.0000
  5 O      8.3595     8.0000    -0.3595     2.1814     2.1814     0.0000
  6 C      6.0055     6.0000    -0.0055     3.9789     3.9789     0.0000
  7 C      6.2821     6.0000    -0.2821     4.0015     4.0015     0.0000
  8 S     16.0750    16.0000    -0.0750     2.2574     2.2574     0.0000
  9 C      6.3635     6.0000    -0.3635     3.8324     3.8324     0.0000
 10 S     16.0948    16.0000    -0.0948     2.2530     2.2530     0.0000
 11 P     14.3827    15.0000     0.6173     4.9691     4.9691     0.0000
 12 S     16.3021    16.0000    -0.3021     2.0583     2.0583    -0.0000
 13 O      8.3681     8.0000    -0.3681     2.1615     2.1615     0.0000
 14 C      6.0248     6.0000    -0.0248     4.0165     4.0165     0.0000
 15 C      6.2864     6.0000    -0.2864     3.9924     3.9924     0.0000
 16 O      8.3897     8.0000    -0.3897     2.1658     2.1658     0.0000
 17 C      6.0142     6.0000    -0.0142     3.9939     3.9939    -0.0000
 18 C      6.3110     6.0000    -0.3110     3.9910     3.9910     0.0000
 19 H      0.8869     1.0000     0.1131     0.9549     0.9549     0.0000
 20 H      0.8824     1.0000     0.1176     0.9613     0.9613     0.0000
 21 H      0.8772     1.0000     0.1228     0.9866     0.9866     0.0000
 22 H      0.8879     1.0000     0.1121     0.9842     0.9842     0.0000
 23 H      0.8957     1.0000     0.1043     0.9495     0.9495     0.0000
 24 H      0.9018     1.0000     0.0982     0.9595     0.9595     0.0000
 25 H      0.8855     1.0000     0.1145     0.9739     0.9739     0.0000
 26 H      0.8897     1.0000     0.1103     0.9608     0.9608     0.0000
 27 H      0.8963     1.0000     0.1037     0.9550     0.9550     0.0000
 28 H      0.8718     1.0000     0.1282     0.9832     0.9832    -0.0000
 29 H      0.8175     1.0000     0.1825     0.9318     0.9318    -0.0000
 30 H      0.7910     1.0000     0.2090     0.9885     0.9885     0.0000
 31 H      0.8916     1.0000     0.1084     0.9470     0.9470     0.0000
 32 H      0.8968     1.0000     0.1032     0.9803     0.9803     0.0000
 33 H      0.8745     1.0000     0.1255     0.9735     0.9735     0.0000
 34 H      0.8792     1.0000     0.1208     0.9574     0.9574    -0.0000
 35 H      0.8918     1.0000     0.1082     0.9557     0.9557     0.0000
 36 H      0.8697     1.0000     0.1303     0.9809     0.9809    -0.0000
 37 H      0.8989     1.0000     0.1011     0.9513     0.9513     0.0000
 38 H      0.8870     1.0000     0.1130     0.9551     0.9551     0.0000
 39 H      0.8919     1.0000     0.1081     0.9574     0.9574     0.0000
 40 H      0.8681     1.0000     0.1319     0.9816     0.9816     0.0000

  Mayer bond orders larger than 0.100000
B(  0-C ,  1-C ) :   1.1658 B(  0-C , 19-H ) :   0.9380 B(  0-C , 20-H ) :   0.9451 
B(  0-C , 21-H ) :   0.9346 B(  1-C ,  2-O ) :   0.9079 B(  1-C , 22-H ) :   0.9137 
B(  1-C , 23-H ) :   0.9331 B(  2-O ,  3-P ) :   1.0970 B(  3-P ,  4-S ) :   1.6055 
B(  3-P ,  5-O ) :   1.1574 B(  3-P ,  8-S ) :   0.9598 B(  4-S ,  8-S ) :   0.1157 
B(  5-O ,  6-C ) :   0.8888 B(  6-C ,  7-C ) :   1.1697 B(  6-C , 24-H ) :   0.9279 
B(  6-C , 25-H ) :   0.9117 B(  7-C , 26-H ) :   0.9493 B(  7-C , 27-H ) :   0.9412 
B(  7-C , 28-H ) :   0.9415 B(  8-S ,  9-C ) :   1.0132 B(  9-C , 10-S ) :   0.9887 
B(  9-C , 29-H ) :   0.9109 B(  9-C , 30-H ) :   0.8558 B( 10-S , 11-P ) :   0.9651 
B( 10-S , 12-S ) :   0.1029 B( 11-P , 12-S ) :   1.6540 B( 11-P , 13-O ) :   1.1055 
B( 11-P , 16-O ) :   1.0675 B( 13-O , 14-C ) :   0.8986 B( 14-C , 15-C ) :   1.1666 
B( 14-C , 31-H ) :   0.9309 B( 14-C , 32-H ) :   0.9134 B( 15-C , 33-H ) :   0.9392 
B( 15-C , 34-H ) :   0.9459 B( 15-C , 35-H ) :   0.9401 B( 16-O , 17-C ) :   0.8986 
B( 17-C , 18-C ) :   1.1610 B( 17-C , 36-H ) :   0.9077 B( 17-C , 37-H ) :   0.9355 
B( 18-C , 38-H ) :   0.9401 B( 18-C , 39-H ) :   0.9455 B( 18-C , 40-H ) :   0.9344 


-------
TIMINGS
-------

Total SCF time: 0 days 0 hours 0 min 17 sec 

Total time                  ....      17.799 sec
Sum of individual times     ....      17.265 sec  ( 97.0%)

SCF preparation             ....       0.226 sec  (  1.3%)
Fock matrix formation       ....      15.906 sec  ( 89.4%)
  Startup                   ....       0.070 sec  (  0.4% of F)
  Split-RI-J                ....       9.924 sec  ( 62.4% of F)
  XC integration            ....       5.399 sec  ( 33.9% of F)
    XC Preparation          ....       0.000 sec  (  0.0% of XC)
    Basis function eval.    ....       2.072 sec  ( 38.4% of XC)
    Density eval.           ....       1.035 sec  ( 19.2% of XC)
    XC-Functional eval.     ....       0.406 sec  (  7.5% of XC)
    XC-Potential eval.      ....       1.191 sec  ( 22.1% of XC)
Diagonalization             ....       0.000 sec  (  0.0%)
Density matrix formation    ....       0.219 sec  (  1.2%)
Total Energy calculation    ....       0.037 sec  (  0.2%)
Population analysis         ....       0.206 sec  (  1.2%)
Orbital Transformation      ....       0.082 sec  (  0.5%)
Orbital Orthonormalization  ....       0.000 sec  (  0.0%)
DIIS solution               ....       0.473 sec  (  2.7%)
  MO trafo                  ....       0.000 sec  (  0.0 % of DIIS)
  Orb grad                  ....       0.000 sec  (  0.0 % of DIIS)
  Energy W gradient         ....       0.000 sec  (  0.0 % of DIIS)
  DIIS error                ....       0.022 sec  (  4.6 % of DIIS)
  DIIS work                 ....       0.386 sec  ( 81.6 % of DIIS)
  Form Q                    ....       0.000 sec  (  0.0 % of DIIS)
  Form QpQm                 ....       0.000 sec  (  0.0 % of DIIS)
  Exp/Cayley                ....       0.000 sec  (  0.0 % of DIIS)
  Orb update                ....       0.000 sec  (  0.0 % of DIIS)
  Wake-sleep                ....       0.023 sec  (  4.9 % of DIIS)
SOSCF solution              ....       0.116 sec  (  0.7%)
  MO trafo                  ....       0.070 sec  ( 59.9 % of SOSCF)
  Orb grad                  ....       0.001 sec  (  1.1 % of SOSCF)
  Rot update                ....       0.011 sec  (  9.7 % of SOSCF)
  Step                      ....       0.034 sec  ( 29.0 % of SOSCF)
Finished LeanSCF after  17.9 sec

Maximum memory used throughout the entire LEANSCF-calculation: 34.6 MB


-------------------------------------------------------------------------------
                          DFT DISPERSION CORRECTION                            
                                                                               
                                DFTD4 V3.4.0                                   
-------------------------------------------------------------------------------
The PBE functional is recognized
Active option DFTDOPT                   ...         5   

-------------------------   ----------------
Dispersion correction           -0.066747887
-------------------------   ----------------

------------------   -----------------
gCP correction             0.185501010
------------------   -----------------

-------------------------   --------------------
FINAL SINGLE POINT ENERGY     -2929.516887083809
-------------------------   --------------------


------------------------------------------------------------------------------
                              ORCA PROPERTY CALCULATIONS
------------------------------------------------------------------------------

GBWName                                 ... sp.gbw
Number of atoms                         ...     41
Number of basis functions               ...    334
Max core memory                         ...   1024 MB

Electric properties:
Dipole moment                           ... YES
Quadrupole moment                       ...  NO
Static polarizability (Dipole/Dipole)   ...  NO
Static polarizability (Dipole/Quad.)    ...  NO
Static polarizability (Quad./Quad.)     ...  NO
Static polarizability (Velocity)        ...  NO

Atomic electric properties:
Dipole moment                           ...  NO
Quadrupole moment                       ...  NO
Static polarizability                   ...  NO

Choice of electric origin               ... Center of mass
Position of electric origin             ...    -0.000003     0.000000    -0.000002

General magnetic properties:
Magnetizability                         ...  NO

EPR properties:
g-Tensor (aka g-matrix)                 ...  NO
Zero-Field splitting spin-orbit         ...  NO
Zero-field splitting spin-spin          ...  NO
Hyperfine couplings                     ...  NO (   0 nuclei)
Quadrupole couplings                    ...  NO (   0 nuclei)
Contact density                         ...  NO (   0 nuclei)

NMR properties:
Chemical shifts                         ...  NO (   0 nuclei)
Spin-rotation constants                 ...  NO (   0 nuclei)
Spin-spin couplings                     ...  NO (   0 nuclei,    0 pairs)

Choice of magnetic origin               ... GIAO
Position of magnetic origin             ...     0.000000     0.000000     0.000000

Properties with geometric perturbations:
SCF Hessian                             ...  NO
IR spectrum                             ...  NO
VCD spectrum                            ...  NO
X-ray spectroscopy properties:
SCF XES/XAS/RIXS spectra                ...  NO


-------------
DIPOLE MOMENT
-------------

Method             : SCF
Type of density    : Electron Density
Multiplicity       :   1
Irrep              :   0
Energy             : -2929.6356402061433073 Eh
Relativity type    : 
Basis              : AO
                                X                 Y                 Z
Electronic contribution:      5.959138576      -2.969662828       1.655284467
Nuclear contribution   :     -6.174998394       2.229748362      -2.384569341
                        -----------------------------------------
Total Dipole Moment    :     -0.215859818      -0.739914466      -0.729284874
                        -----------------------------------------
Magnitude (a.u.)       :      1.061096275
Magnitude (Debye)      :      2.697092390



--------------------
Rotational spectrum 
--------------------
 
Rotational constants in cm-1:             0.012087             0.005155             0.005114 
Rotational constants in MHz :           362.362965           154.551221           153.311243 

Dipole components along the rotational axes: 
x,y,z [a.u.] :    -0.015680    -1.027413    -0.264768 
x,y,z [Debye]:    -0.039855    -2.611476    -0.672986 

 

Dipole moment calculation done in   0.0 sec 

Maximum memory used throughout the entire PROP-calculation: 24.0 MB

--------------------------------
SUGGESTED CITATIONS FOR THIS RUN
--------------------------------

Below you find a list of papers that are relevant to this ORCA run
We neither can nor want to force you to cite these papers, but we appreciate if you do
You receive ORCA, which is the product of decades of hard work by many enthusiastic individuals, for free
The only thing we kindly ask in return is that you cite our papers,
We deeply appreciate it, if you show your appreciation for ORCA by not just citing the generic ORCA reference.

Please note that relegating all ORCA citations to the supporting information does *not* help us.
SI sections are not indexed - citations you put there will not count into any citation statistics
But we need these citations in order to attract the funding resources that allow us to do what we are doing

Therefore, if you are a happy ORCA user, please consider citing a few of the papers listed below in the main body of your paper

In addition to the list printed below, the program has created the file sp.bibtex that contains the list in bibtex format
You can import this file easily into all common literature databanks and citation aid programs


List of essential papers. We consider these as the minimum necessary citations

  1. Neese,F.
     Software update: the ORCA program system, version 5.0
     WIRES Comput. Molec. Sci., 2022 12(1)e1606
     doi.org/10.1002/wcms.1606

List of papers to cite with high priority. The work reported in these papers was absolutely
necessary for this run to complete.
Our perspective: the developers of density functionals and basis sets usually get cited in chemistry papers
Good! But without the algorithms to do something with them, the functionals or basis sets would not do anything.
Hence, in our opinion, the algorithm design and method developments papers are equally worthy of getting cited

  1. Neese,F.
     An improvement of the resolution of the identity approximation for the formation of the Coulomb matrix
     J. Comp. Chem., 2003 24(14)1740-1747
     doi.org/10.1002/jcc.10318
  2. Neese,F.
     The SHARK Integral Generation and Digestion System
     J. Comp. Chem., 2022  1-16
     doi.org/10.1002/jcc.26942
  3. Caldeweyher,E.; Bannwarth,C.; Grimme,S.
     Extension of the D3 dispersion coefficient model
     J. Chem. Phys., 2017 147 034112-XXXX
     doi.org/10.1063/1.4993215
  4. Caldeweyher,E.; Ehlert,S.; Hansen,A.; Neugebauer,H.; Spicher,S.; Bannwarth,C.; Grimme,S.
     A generally applicable atomic-charge dependent London dispersion correction
     J. Chem. Phys., 2019 150 154122-XXXX
     doi.org/10.1063/1.5090222
  5. Caldeweyher,E.; Mewes,J.; Ehlert,S.; Grimme,S.
     Extension and evaluation of the D4 London-dispersion model for periodic systems
     Phys. Chem. Chem. Phys., 2020 22(16)8499-8512
     doi.org/10.1039/D0CP00502A

List of suggested additional citations. These are papers that are important in the 'surrounding' of 
of this run, or papers that preceded the highly important papers. If you like your results we are grateful for a citation.

  1. Neese,F.
     The ORCA program system
     WIRES Comput. Molec. Sci., 2012 2(1)73-78
     doi.org/10.1002/wcms.81
  2. Neese,F.
     Software update: the ORCA program system, version 4.0
     WIRES Comput. Molec. Sci., 2018 8(1)1-6
     doi.org/10.1002/wcms.1327
  3. Neese,F.; Wennmohs,F.; Becker,U.; Riplinger,C.
     The ORCA quantum chemistry program package
     J. Chem. Phys., 2020 152 Art. No. L224108
     doi.org/10.1063/5.0004608

List of optional additional citations

  1. Neese,F.
     Approximate second-order SCF convergence for spin unrestricted wavefunctions
     Chem. Phys. Lett., 2000 325(1-3)93-98
     doi.org/10.1016/s0009-2614(00)00662-x

Timings for individual modules:

Sum of individual times          ...       21.523 sec (=   0.359 min)
Startup calculation              ...        1.595 sec (=   0.027 min)   7.4 %
SCF iterations                   ...       19.815 sec (=   0.330 min)  92.1 %
Property calculations            ...        0.113 sec (=   0.002 min)   0.5 %
                             ****ORCA TERMINATED NORMALLY****
TOTAL RUN TIME: 0 days 0 hours 0 minutes 22 seconds 349 msec
