41
 energy: -65.039365717882 gnorm: 0.053803122383 xtb: 6.7.1 (edcfbbe)
C            4.33914123279954        0.06201292783114       -2.77532110437393
C            4.93405964930129       -0.59285494412292       -1.55099528794863
O            3.92907442022894       -1.28965911303946       -0.73311631374681
P            2.87407964981831       -0.50117345244434        0.18828124777451
S            3.45050794942319        1.20311780394058        0.93452636346787
O            2.61788073621845       -1.71971836722424        1.20856306224744
C            1.38710094751875       -1.86426592942828        1.99410633756105
C            1.33763410017718       -0.93155018579309        3.18172080609184
S            1.14464852395873       -0.41002819394120       -1.06375343736018
C            0.36277194532368        1.17356545318099       -0.57280116212762
S           -0.95679804603216        1.11001449038762        0.69702151837604
P           -2.57884113941377        0.35282183066225       -0.46267629128103
S           -2.65426325152273        0.95846657768351       -2.30912340122964
O           -3.81490889620037        0.68829751506382        0.50658509898255
C           -4.67721729113795        1.87221571919933        0.33222851437487
C           -4.02611016146283        3.14399665391513        0.81961614538546
O           -2.51312203544234       -1.24810881182063       -0.38500010095807
C           -2.51740856031648       -1.98541544070756        0.89136881426174
C           -3.87902147342295       -2.59203251415917        1.13831537087690
H            5.16270649719355        0.43936938402465       -3.39148692422685
H            3.76582175613836       -0.65621586423518       -3.36865817851353
H            3.69573689084389        0.90659647954977       -2.51381566044750
H            5.45291297508006        0.12943838540596       -0.91346573760411
H            5.62785333682992       -1.39014441256990       -1.82368183197383
H            0.52849544807914       -1.71810098608259        1.32778759181657
H            1.41190920070933       -2.91084519854085        2.30934436619170
H            2.22461524153544       -1.04649365091402        3.81371473977715
H            1.25064271606464        0.11536263475335        2.87417026443954
H            0.45222213839016       -1.18810364813844        3.77346623125700
H           -0.05175018526308        1.61105687170389       -1.48555635412944
H            1.14062588099797        1.83585712368737       -0.17551751541205
H           -4.95472561864794        1.93471870172047       -0.72456250716981
H           -5.56279677837969        1.62448760387613        0.91969636008994
H           -4.77634199284960        3.94168170563746        0.78209911951560
H           -3.68400511332615        3.04399050603457        1.85416755954515
H           -3.18503270620419        3.44007905270355        0.18714678042287
H           -1.75218039805475       -2.75644439610342        0.76900336891579
H           -2.21638287875611       -1.31902967103250        1.70669828965651
H           -3.82099721177111       -3.20445755862485        2.04435510816488
H           -4.64143731589254       -1.82291130713327        1.28936134819068
H           -4.17685047605963       -3.23845659067695        0.30697883993886
41
 energy: -65.043849607332 gnorm: 0.029994642150 xtb: 6.7.1 (edcfbbe)
C            4.33549551518506        0.05865846783610       -2.76517768482881
C            4.91849683888790       -0.59371039263129       -1.53268189129743
O            3.91309830351399       -1.27634606695102       -0.72876710321210
P            2.84331023208854       -0.49320274178453        0.16644897428593
S            3.45128625880142        1.21127946176507        0.92461119029911
O            2.60019596595973       -1.70024961406380        1.19228580253422
C            1.38992397312213       -1.85478020840104        1.98288577127466
C            1.33587187443283       -0.92578473224177        3.17454975509620
S            1.08017652067055       -0.43752103733140       -1.04994336953412
C            0.36950171395676        1.17364063721813       -0.57033505794659
S           -0.91317848256134        1.05393271120137        0.71764280539951
P           -2.56443376427131        0.36246502952812       -0.44501456243626
S           -2.65675037751462        0.96493448018069       -2.29956502111200
O           -3.81745602735757        0.68951208184488        0.49744250252853
C           -4.66863122301896        1.86188705611926        0.32258219513931
C           -4.02220928261384        3.13552052571887        0.81319570944259
O           -2.49093721495350       -1.23092396430172       -0.36768705066367
C           -2.51331930154423       -1.97457071480086        0.89058383500261
C           -3.87297577742801       -2.58705816775733        1.13958916608302
H            5.15241572195446        0.43482886948352       -3.38005359884825
H            3.75988227168293       -0.65925214184294       -3.34686394730278
H            3.69075174349005        0.89475132153556       -2.49688445896317
H            5.42707774631869        0.13771567059754       -0.89805717964568
H            5.61047558066299       -1.39515075672679       -1.79801829542872
H            0.52996057080966       -1.70400316285325        1.32262430617704
H            1.42763949662834       -2.90042250526902        2.29673476733622
H            2.22613974103987       -1.04003588583227        3.79042499451456
H            1.25738030869757        0.11496020943788        2.86149373944816
H            0.46020490050101       -1.17597805498927        3.77212096084830
H           -0.07091462355226        1.59890136606490       -1.47381309527392
H            1.15581975881276        1.81671289467926       -0.16545818051506
H           -4.93161991762506        1.93127434859145       -0.73652883496059
H           -5.55448494490426        1.61258643070395        0.90875751322448
H           -4.76189863297943        3.93473056362576        0.77415721039078
H           -3.67795679361054        3.02597351366180        1.83984335910487
H           -3.17838244451341        3.41426028490672        0.18365546554553
H           -1.75107344407727       -2.74670513877819        0.76124033146132
H           -2.22362928854165       -1.30028000593167        1.70103647061208
H           -3.82317031503204       -3.19742092558650        2.04049260398134
H           -4.62658984083345       -1.81482530976853        1.27802326483466
H           -4.16524363381060       -3.21916721262880        0.30321807622350
41
 energy: -65.045642781148 gnorm: 0.012157116481 xtb: 6.7.1 (edcfbbe)
C            4.32415473223077        0.05289068112166       -2.75042095184379
C            4.89972887014759       -0.59755192104657       -1.51005303631004
O            3.89684241863009       -1.26891128867406       -0.72193002316947
P            2.81581351147271       -0.49659185351759        0.15097903390054
S            3.40832039099080        1.22839786250615        0.88270236660916
O            2.58164713027738       -1.68855903584315        1.18159593993817
C            1.38933477599837       -1.85106894495613        1.97170780805219
C            1.33873282811262       -0.91792074338482        3.16362964774757
S            1.04550093844418       -0.44181160514220       -1.05062817819327
C            0.34799671390627        1.16362989281047       -0.55947780997254
S           -0.90174780064636        1.05631790963988        0.75122928775902
P           -2.54265111014923        0.36141762252466       -0.43068554629517
S           -2.62665312824944        0.98400842376076       -2.27995316507330
O           -3.80833278567351        0.68655878502930        0.48599325557672
C           -4.65033866687681        1.84519319850960        0.31037374552981
C           -4.00608222026025        3.12118847103426        0.80503796049243
O           -2.46641608810676       -1.22270710328100       -0.35252153359485
C           -2.50107763645143       -1.96577848909981        0.89174857179563
C           -3.86601311642299       -2.57453421475610        1.13536579627714
H            5.13589857315546        0.42986599396789       -3.36332758128196
H            3.74804618993135       -0.66699042946998       -3.32352244247951
H            3.67687481684143        0.88230696366875       -2.47470708305032
H            5.39949291934646        0.14371354699992       -0.87939584963126
H            5.59494972283301       -1.39820549636263       -1.76848453834439
H            0.52237651569134       -1.69911227037731        1.32219224140202
H            1.43591101685432       -2.89440181920144        2.28857877073004
H            2.23397422252412       -1.03040469734266        3.76632188092552
H            1.26522854839544        0.11744733363676        2.84033104767347
H            0.47041876761879       -1.16042371297973        3.76640160164163
H           -0.10524312608003        1.59129329225044       -1.45260032694710
H            1.14914209324200        1.78894794838471       -0.16110925277964
H           -4.90468047086003        1.92474430785231       -0.75007687277485
H           -5.53975421191104        1.59885467960735        0.89253376877515
H           -4.73678096416504        3.92218839590369        0.76248007639256
H           -3.66297070638350        3.00360378897482        1.82762193629888
H           -3.15861317047435        3.38433576548413        0.17678735662872
H           -1.74530953802245       -2.74308310811554        0.76122918871120
H           -2.21894502906017       -1.29113441495827        1.70352041682672
H           -3.82347093035856       -3.18285138154269        2.03233502000163
H           -4.61157649089964       -1.79683079046331        1.26458885283765
H           -4.15347879911941       -3.19689435892344        0.29440005803697
41
 energy: -65.046108006464 gnorm: 0.006326689824 xtb: 6.7.1 (edcfbbe)
C            4.31006565687110        0.05082872573049       -2.74081573163699
C            4.88300140666745       -0.59771208177214       -1.49585478103487
O            3.87578387780689       -1.26119019639998       -0.71818787373423
P            2.79534054616416       -0.49197228961638        0.14613510741909
S            3.38296739329093        1.24047389760208        0.86461301468895
O            2.56401307230426       -1.67879131919291        1.17397080089454
C            1.38152507009629       -1.84861726704033        1.96722251366832
C            1.34071392968776       -0.90934258895846        3.15735421828594
S            1.02388684435578       -0.45495274038309       -1.05821625631135
C            0.34732940758475        1.15415803867795       -0.55131399125727
S           -0.89748661509347        1.05521545451445        0.75957482233525
P           -2.53457482521424        0.35726365709487       -0.42403857893574
S           -2.59421866303387        0.99412906794153       -2.26872630637034
O           -3.80838175684675        0.67721257604927        0.47772388520066
C           -4.64163570782514        1.83362652786229        0.30221390075699
C           -3.98775488097397        3.10648863487850        0.80021389880963
O           -2.44755827193155       -1.22061476212453       -0.34618535451812
C           -2.48731355851925       -1.96255909390083        0.89452534452381
C           -3.85999829682107       -2.56253818763899        1.12841569657661
H            5.12153085682394        0.42903689939737       -3.35256457143746
H            3.73499549855760       -0.67250730306836       -3.31165366284606
H            3.66021896846919        0.87866418750738       -2.46335425640416
H            5.38070253784237        0.14799673265046       -0.86774702473922
H            5.58281763199977       -1.39596872151508       -1.74932185260205
H            0.50484882830652       -1.70090779178539        1.32857650921572
H            1.43169137923388       -2.89062032622581        2.28772020221716
H            2.24238775778081       -1.02012286053283        3.75227395119472
H            1.26699524595383        0.12424137971283        2.82576265274059
H            0.47608682415989       -1.14638781740847        3.76710112712007
H           -0.11557634665837        1.58764964831056       -1.43669590922758
H            1.15783499112803        1.77597383525387       -0.16538446574485
H           -4.89279526081594        1.92217735453415       -0.75904542613816
H           -5.53725501933899        1.59545528190424        0.87858726117864
H           -4.71047307779212        3.91410334712528        0.75462161566519
H           -3.64785467141165        2.98418883153141        1.82399472395186
H           -3.13544055506430        3.36016910145947        0.17301284814503
H           -1.73685774476262       -2.74580080887337        0.76993283665464
H           -2.20734819362569       -1.29520872627578        1.71379343787178
H           -3.82588818467387       -3.17187513195863        2.02480462618185
H           -4.60073446842172       -1.77860026154352        1.25421256158033
H           -4.14534191978736       -3.18162571929431        0.28353992487997
41
 energy: -65.046271284692 gnorm: 0.005115827620 xtb: 6.7.1 (edcfbbe)
C            4.29880483145565        0.05067146429387       -2.73625310702573
C            4.87361555774235       -0.59633113732832       -1.49039937182438
O            3.86657794288087       -1.26260845349917       -0.71658172042559
P            2.78641524340362       -0.49681551066092        0.14523104826694
S            3.36924240922351        1.23892723235986        0.85856120703217
O            2.55373809312603       -1.68115536720954        1.17110111973354
C            1.37518006387857       -1.85048292957060        1.96925310660931
C            1.34056917417465       -0.90410670016157        3.15496746770940
S            1.01326474054853       -0.44851698690687       -1.05623591395204
C            0.33212985969426        1.15758194578281       -0.55060489205270
S           -0.89925604481746        1.05646587281536        0.77312076374661
P           -2.52507469613323        0.35352744659048       -0.42413153347293
S           -2.58192921728406        0.99004252956717       -2.26928310274159
O           -3.80407269068821        0.66712075171516        0.47010341224766
C           -4.63150738013842        1.82747543138047        0.29740660155388
C           -3.96854606278558        3.09541067634518        0.79919068672876
O           -2.42990433414637       -1.22131070715152       -0.34626560876441
C           -2.47744520551823       -1.96270609040123        0.89542373850135
C           -3.85593957574896       -2.55365680272181        1.12288397727043
H            5.10913973933806        0.43325775160002       -3.34826356549934
H            3.72637718075613       -0.67550955634062       -3.30783124831067
H            3.64476419655681        0.87639045274981       -2.45870138085796
H            5.36821380311379        0.15220715035471       -0.86228626927148
H            5.57941770879023       -1.38976448805171       -1.74214003122150
H            0.49292529861832       -1.70767272430237        1.33604131945335
H            1.42572582126616       -2.89131850063193        2.29401153665036
H            2.24646793762133       -1.01180424053876        3.74585690419331
H            1.26520159862928        0.12818843684211        2.81631036528737
H            0.47817398545586       -1.13608567085429        3.77145204074893
H           -0.13444991226989        1.59453412930616       -1.43320213511930
H            1.14726537884674        1.77976283787244       -0.17385591698978
H           -4.88315700773495        1.92261236282075       -0.76376112770799
H           -5.53125926017379        1.59584985672153        0.87037180831395
H           -4.68468213671503        3.91005811545488        0.75270343979505
H           -3.63180382414253        2.96912908057544        1.82469500036306
H           -3.11234887956453        3.34330107750215        0.17360483248861
H           -1.73108531328168       -2.75098777469287        0.77663920262807
H           -2.19570273579685       -1.30072173875033        1.71927212718873
H           -3.83087207391162       -3.16466443401922        2.01982390086007
H           -4.59227379228772       -1.76400355962408        1.24680716299505
H           -4.14165071550851       -3.17115404500332        0.27575559369026
41
 energy: -65.046370633923 gnorm: 0.003893026848 xtb: 6.7.1 (edcfbbe)
C            4.28983964336342        0.05169449612966       -2.73531574052542
C            4.86575211710974       -0.59313237878064       -1.48921245771271
O            3.85884891053104       -1.26346071296038       -0.71570038945051
P            2.78009263670151       -0.49867569601663        0.14720622784971
S            3.36464808914572        1.23519539365203        0.86281669480567
O            2.54469222181785       -1.68406145251178        1.17004119392873
C            1.36833993701181       -1.85073249912865        1.97444478266608
C            1.33821348152329       -0.89911188086234        3.15566485642417
S            1.00938548061901       -0.44552170970911       -1.05817807825837
C            0.33285312834192        1.16255383795277       -0.55108730032691
S           -0.90133452314004        1.06505901596205        0.76929753156436
P           -2.52288931460337        0.34764848405661       -0.42509994493662
S           -2.57666758976329        0.98283321843700       -2.27099561894945
O           -3.80637624865536        0.65604401348244        0.46395268400040
C           -4.62573574812019        1.82483922423132        0.29448797514581
C           -3.95306239745875        3.08630392716455        0.79937260917008
O           -2.41901531601126       -1.22605941004938       -0.34754056288392
C           -2.47218497954981       -1.96658175171418        0.89608598383592
C           -3.85423566932046       -2.54919975947619        1.12003387580729
H            5.09949988831925        0.43783045058075       -3.34716816047896
H            3.72067551756071       -0.67655162500353       -3.30833002043052
H            3.63222291888945        0.87548965115200       -2.45924394595983
H            5.35718878951352        0.15659502248034       -0.85970316713728
H            5.57538453188960       -1.38353392921337       -1.73968296494621
H            0.48386703776219       -1.71176947605280        1.34327396014251
H            1.42004118075502       -2.89070000526661        2.30262274533661
H            2.24651188787788       -1.00365072602083        3.74405064112921
H            1.26070302006860        0.13197417485317        2.81263267070796
H            0.47801484134272       -1.12780318192748        3.77744777804141
H           -0.13358735379053        1.60074886279316       -1.43353876187010
H            1.14853668814337        1.78595775572295       -0.17719646575103
H           -4.87732852178576        1.92375171986887       -0.76654614916472
H           -5.52764729048399        1.59860402420102        0.86613864945669
H           -4.66269389681995        3.90758696678496        0.75320808898036
H           -3.61901722632330        2.95648972271264        1.82585482258909
H           -3.09384039641061        3.32934886103392        0.17558525277990
H           -1.72857893752524       -2.75798150399547        0.77948903958603
H           -2.18692004922256       -1.30532073524256        1.71969561702728
H           -3.83610972987415       -3.16109890505276        2.01739393870278
H           -4.58640565850769       -1.75504383324403        1.24255241260843
H           -4.14143139444816       -3.16542046679417        0.27198113531489
41
 energy: -65.046452384772 gnorm: 0.002682473810 xtb: 6.7.1 (edcfbbe)
C            4.27865034350359        0.05306609127430       -2.73546011396099
C            4.85626717850779       -0.58791656047335       -1.48923959977320
O            3.85088509104976       -1.26425060333323       -0.71458802229782
P            2.77382956170321       -0.49995949276738        0.15116563208810
S            3.36291580705414        1.22953484780634        0.87401314605822
O            2.53362762431048       -1.68846820676199        1.16932585460613
C            1.35960425743518       -1.84972781942003        1.98170747313663
C            1.33393084209437       -0.89199490430824        3.15690009880166
S            1.00530111901035       -0.44177066512332       -1.05836190927067
C            0.33312398620732        1.16859768454967       -0.55186204060176
S           -0.90492774207378        1.07164974150256        0.76449217384061
P           -2.52078154431008        0.34112457692630       -0.43071400187059
S           -2.57558431428870        0.97046678697888       -2.27905513762819
O           -3.80836528155778        0.64293574339147        0.45421499515377
C           -4.61768471467518        1.82268929087946        0.29123399369156
C           -3.93281797730345        3.07490107106486        0.79991005685025
O           -2.40497428092315       -1.23175201535977       -0.34964962976635
C           -2.46708737416101       -1.97106227591647        0.89646433442963
C           -3.85253752755865       -2.54372404617532        1.11757906349722
H            5.08743656931546        0.44335359194123       -3.34622658028368
H            3.71467781648199       -0.67793428144094       -3.31014681583812
H            3.61630534216573        0.87380806559976       -2.46196763824177
H            5.34239253693941        0.16349286665320       -0.85769977403964
H            5.56971493590549       -1.37528466254343       -1.73814307230702
H            0.47400474797981       -1.71534299590552        1.35156868955191
H            1.41413560992442       -2.88810756504056        2.31500851526415
H            2.24439471724172       -0.99187758397340        3.74248251778645
H            1.25297248528102        0.13719802184283        2.80947716656087
H            0.47703512357422       -1.11830455858602        3.78416422213192
H           -0.12978393419155        1.60785079229491       -1.43585804229472
H            1.14829929469555        1.79123266466943       -0.17576637437851
H           -4.86947604822189        1.92548402329644       -0.76919535453403
H           -5.51993360608544        1.60124075926715        0.86378791163122
H           -4.63455993939834        3.90317948971555        0.75560007043132
H           -3.60126854649652        2.93972699318004        1.82649713564718
H           -3.07099997494783        3.31221815633467        0.17793990284321
H           -1.72789835508929       -2.76683140032066        0.78065137930192
H           -2.17735219889295       -1.30920484549575        1.71807198090740
H           -3.84155141512219       -3.15610916247613        2.01480720351201
H           -4.57946645890661       -1.74486999107017        1.23856099729515
H           -4.14220404970354       -3.15812043844800        0.26910103088731
41
 energy: -65.046477766829 gnorm: 0.002072450493 xtb: 6.7.1 (edcfbbe)
C            4.27145472871406        0.05334208798467       -2.73516205896087
C            4.85064605685222       -0.58475466103981       -1.48861014945560
O            3.84757898854863       -1.26454762013199       -0.71303884612343
P            2.76991202142096       -0.50097821384970        0.15353493716750
S            3.35943144191017        1.22711603383897        0.87995589271342
O            2.52778439510593       -1.69112880568408        1.16977629410945
C            1.35519771592812       -1.84834272887901        1.98572056002198
C            1.33090157648272       -0.88678376797635        3.15730493717090
S            1.00309925364813       -0.43868611177678       -1.05789459342398
C            0.33342381018347        1.17278623682414       -0.55249019991905
S           -0.90696687816015        1.07496131328547        0.76127284128718
P           -2.51911359116619        0.33719544545435       -0.43465599879526
S           -2.57258475038751        0.96353635434724       -2.28417782708718
O           -3.80924609698434        0.63603508415147        0.44717508600148
C           -4.61247207602957        1.82117622073382        0.28893293001319
C           -3.92021393783487        3.06773549061124        0.79973999750137
O           -2.39753420124180       -1.23521780868398       -0.35031685023564
C           -2.46504654597176       -1.97390501220159        0.89610005739325
C           -3.85236668099659       -2.54089609245903        1.11675098802408
H            5.07928902341506        0.44596921428937       -3.34520407729637
H            3.71063929802569       -0.67967101473195       -3.30987111252051
H            3.60610294923879        0.87169243746480       -2.46280245929107
H            5.33327881356097        0.16854685426139       -0.85697439854313
H            5.56604572327757       -1.37045632603092       -1.73674070146590
H            0.46924307494407       -1.71640785671389        1.35603002253117
H            1.41172795505230       -2.88522437443481        2.32290086008832
H            2.24271704829574       -0.98338580665705        3.74083665967803
H            1.24760967399160        0.14101535037333        2.80725200765262
H            0.47624751656856       -1.11268096491757        3.78723721772737
H           -0.12700257284539        1.61251439183414       -1.43741706353454
H            1.14857647502287        1.79292650617927       -0.17251146350330
H           -4.86465079590152        1.92720656196645       -0.77082923750272
H           -5.51404633681721        1.60205881900494        0.86319631544377
H           -4.61699514965651        3.89981104086748        0.75768058121508
H           -3.58876344789150        2.92822096639897        1.82544710313061
H           -3.05754931731178        3.30115850491974        0.17796792695229
H           -1.72932462011191       -2.77263435775514        0.77953734600549
H           -2.17302827563712       -1.31170557305762        1.71635978257306
H           -3.84383873537196       -3.15314428071248        2.01354700944335
H           -4.57609281117805       -1.73952368399636        1.23711958361787
H           -4.14382101221885       -3.15379266887178        0.26811153901445
41
 energy: -65.046486355760 gnorm: 0.001261419033 xtb: 6.7.1 (edcfbbe)
C            4.26761572898226        0.05323618075973       -2.73481791426383
C            4.84817369258700       -0.58303834226731       -1.48788468234056
O            3.84670371609389       -1.26373041346824       -0.71152692881455
P            2.76820633082148       -0.50014326769103        0.15508710636729
S            3.35896170228270        1.22664428434980        0.88366906569788
O            2.52575093876584       -1.69151449482176        1.17048347114910
C            1.35363612155193       -1.84689009661655        1.98710232742268
C            1.32923244331430       -0.88348447069265        3.15721962186786
S            1.00238657230002       -0.43853203754385       -1.05751937237037
C            0.33346118340819        1.17315147086906       -0.55210097906280
S           -0.90779196728633        1.07524009672964        0.76109504334622
P           -2.51739579807939        0.33559319027638       -0.43736630092266
S           -2.57013892022940        0.95993011678206       -2.28754560227187
O           -3.80878585831972        0.63378744093535        0.44266919289789
C           -4.60963260168705        1.82050207564990        0.28753349307611
C           -3.91389475307249        3.06456252315834        0.79924937472265
O           -2.39512010368764       -1.23677301967251       -0.35075225019500
C           -2.46489991496267       -1.97537138706850        0.89514768677198
C           -3.85314505706385       -2.53999197991719        1.11651369542418
H            5.07469173779807        0.44686423254461       -3.34482165988110
H            3.70816786186644       -0.68113180227165       -3.30882053329998
H            3.60079091401610        0.87028326975158       -2.46274119388116
H            5.32962362686798        0.17159889700434       -0.85724118851382
H            5.56430465295193       -1.36805155546839       -1.73583918503043
H            0.46753589415661       -1.71605294826697        1.35759255069017
H            1.41090173199411       -2.88283488935351        2.32651431093743
H            2.24183494986883       -0.97795354586390        3.73968682007717
H            1.24412845440226        0.14359057840617        2.80599640471994
H            0.47577055250208       -1.11007802819339        3.78818213357717
H           -0.12565189596349        1.61339959433857       -1.43728498091547
H            1.14857533929347        1.79189958875786       -0.16992693197666
H           -4.86291634394654        1.92885030280350       -0.77156472082776
H           -5.51042294440793        1.60218409520939        0.86329514389765
H           -4.60838719595230        3.89824653412539        0.75948931278235
H           -3.58114519288574        2.92227541680600        1.82396810840772
H           -3.05162463111939        3.29636088140259        0.17655853092089
H           -1.73135139526802       -2.77581847564000        0.77784684308312
H           -2.17180828816724       -1.31380908515926        1.71534351236864
H           -3.84461222717794       -3.15213021369987        2.01305498482892
H           -4.57542087364975       -1.73759712816466        1.23726587740395
H           -4.14605847642566       -3.15213640458966        0.26798125094779
41
 energy: -65.046491075688 gnorm: 0.000730536832 xtb: 6.7.1 (edcfbbe)
C            4.26374180039959        0.05248603795820       -2.73399480599429
C            4.84711333416205       -0.58168937573405       -1.48685901552869
O            3.84864469648977       -1.26324517024377       -0.70877171926719
P            2.76834456030640       -0.49964728030233        0.15726072726157
S            3.35667110428757        1.22791219555183        0.88573704119659
O            2.52602762341992       -1.69195499534163        1.17273418708384