      -----------------------------------------------------------      
     |                   =====================                   |     
     |                           x T B                           |     
     |                   =====================                   |     
     |                         S. Grimme                         |     
     |          Mulliken Center for Theoretical Chemistry        |     
     |                    University of Bonn                     |     
      -----------------------------------------------------------      

   * xtb version 6.7.1 (edcfbbe) compiled by 'albert@albert-system' on 2024-07-22

   xtb is free software: you can redistribute it and/or modify it under
   the terms of the GNU Lesser General Public License as published by
   the Free Software Foundation, either version 3 of the License, or
   (at your option) any later version.
   
   xtb is distributed in the hope that it will be useful,
   but WITHOUT ANY WARRANTY; without even the implied warranty of
   MERCHANTABILITY or FITNESS FOR A PARTICULAR PURPOSE.  See the
   GNU Lesser General Public License for more details.
   
   Cite this work as:
   * C. Bannwarth, E. Caldeweyher, S. Ehlert, A. Hansen, P. Pracht,
     J. Seibert, S. Spicher, S. Grimme, WIREs Comput. Mol. Sci., 2020, 11,
     e01493. DOI: 10.1002/wcms.1493
   
   for GFN2-xTB:
   * C. Bannwarth, S. Ehlert and S. Grimme., J. Chem. Theory Comput., 2019,
     15, 1652-1671. DOI: 10.1021/acs.jctc.8b01176
   for GFN1-xTB:
   * S. Grimme, C. Bannwarth, P. Shushkov, J. Chem. Theory Comput., 2017,
     13, 1989-2009. DOI: 10.1021/acs.jctc.7b00118
   for GFN0-xTB:
   * P. Pracht, E. Caldeweyher, S. Ehlert, S. Grimme, ChemRxiv, 2019, preprint.
     DOI: 10.26434/chemrxiv.8326202.v1
   for GFN-FF:
   * S. Spicher and S. Grimme, Angew. Chem. Int. Ed., 2020, 59, 15665-15673.
     DOI: 10.1002/anie.202004239
   
   for ALPB and GBSA implicit solvation:
   * S. Ehlert, M. Stahn, S. Spicher, S. Grimme, J. Chem. Theory Comput.,
     2021, 17, 4250-4261. DOI: 10.1021/acs.jctc.1c00471
   
   for ddCOSMO and CPCM-X implicit solvation:
   * M. Stahn, S. Ehlert, S. Grimme, J. Phys. Chem. A,
     2023, XX, XXXX-XXXX. DOI: 10.1021/acs.jpca.3c04382
   
   for DFT-D4:
   * E. Caldeweyher, C. Bannwarth and S. Grimme, J. Chem. Phys., 2017,
     147, 034112. DOI: 10.1063/1.4993215
   * E. Caldeweyher, S. Ehlert, A. Hansen, H. Neugebauer, S. Spicher,
     C. Bannwarth and S. Grimme, J. Chem. Phys., 2019, 150, 154122.
     DOI: 10.1063/1.5090222
   * E. Caldeweyher, J.-M. Mewes, S. Ehlert and S. Grimme, Phys. Chem. Chem. Phys.
     2020, 22, 8499-8512. DOI: 10.1039/D0CP00502A
   
   for sTDA-xTB:
   * S. Grimme and C. Bannwarth, J. Chem. Phys., 2016, 145, 054103.
     DOI: 10.1063/1.4959605
   
   in the mass-spec context:
   * V. Asgeirsson, C. Bauer and S. Grimme, Chem. Sci., 2017, 8, 4879.
     DOI: 10.1039/c7sc00601b
   * J. Koopman and S. Grimme, ACS Omega 2019, 4, 12, 15120-15133.
     DOI: 10.1021/acsomega.9b02011
   
   for metadynamics refer to:
   * S. Grimme, J. Chem. Theory Comput., 2019, 155, 2847-2862
     DOI: 10.1021/acs.jctc.9b00143
   
   for SPH calculations refer to:
   * S. Spicher and S. Grimme, J. Chem. Theory Comput., 2021, 17, 1701-1714
     DOI: 10.1021/acs.jctc.0c01306
   
   for ONIOM refer to:
   * C. Plett, A. Katbashev, S. Ehlert, S. Grimme, M. Bursch,
     Phys. Chem. Chem. Phys., 2023, 25, 17860-17868. DOI: 10.1039/D3CP02178E
   
   for DIPRO refer to:
   * J. Kohn, N. Gildemeister, S. Grimme, D. Fazzi, A. Hansen,
     J. Chem. Phys., 2023, just accepted.
   
   for PTB refer to:
   * S. Grimme, M. Mueller, A. Hansen, J. Chem. Phys., 2023, 158, 124111.
     DOI: 10.1063/5.0137838
   
   with help from (in alphabetical order)
   P. Atkinson, C. Bannwarth, F. Bohle, G. Brandenburg, E. Caldeweyher
   M. Checinski, S. Dohm, S. Ehlert, S. Ehrlich, I. Gerasimov, C. Hölzer
   A. Katbashev, J. Kohn, J. Koopman, C. Lavigne, S. Lehtola, F. März, M. Müller,
   F. Musil, H. Neugebauer, J. Pisarek, C. Plett, P. Pracht, F. Pultar,
   J. Seibert, P. Shushkov, S. Spicher, M. Stahn, M. Steiner, T. Strunk,
   J. Stückrath, T. Rose, and J. Unsleber
   
 * started run on 2025/04/09 at 05:20:44.227     
   ID    Z sym.   atoms
    1    6 C      1, 2, 7, 8, 10, 15, 16, 18, 19
    2    8 O      3, 6, 14, 17
    3   15 P      4, 12
    4   16 S      5, 9, 11, 13
    5    1 H      20-41

           -------------------------------------------------
          |                Calculation Setup                |
           -------------------------------------------------

          program call               : /srv/scratch/z5358697/.xtb/bin/xtb gas.coord --gfn2 --sp --chrg 0 --norestart --parallel 1
          hostname                   : k163
          coordinate file            : gas.coord
          omp threads                :                     1


           -------------------------------------------------
          |                 G F N 2 - x T B                 |
           -------------------------------------------------

        Reference                      10.1021/acs.jctc.8b01176
      * Hamiltonian:
        H0-scaling (s, p, d)           1.850000    2.230000    2.230000
        zeta-weighting                 0.500000
      * Dispersion:
        s8                             2.700000
        a1                             0.520000
        a2                             5.000000
        s9                             5.000000
      * Repulsion:
        kExp                           1.500000    1.000000
        rExp                           1.000000
      * Coulomb:
        alpha                          2.000000
        third order                    shell-resolved
        anisotropic                    true
        a3                             3.000000
        a5                             4.000000
        cn-shift                       1.200000
        cn-exp                         4.000000
        max-rad                        5.000000


          ...................................................
          :                      SETUP                      :
          :.................................................:
          :  # basis functions                 134          :
          :  # atomic orbitals                 128          :
          :  # shells                           66          :
          :  # electrons                       116          :
          :  max. iterations                   250          :
          :  Hamiltonian                  GFN2-xTB          :
          :  restarted?                      false          :
          :  GBSA solvation                  false          :
          :  PC potential                    false          :
          :  electronic temp.          300.0000000     K    :
          :  accuracy                    1.0000000          :
          :  -> integral cutoff          0.2500000E+02      :
          :  -> integral neglect         0.1000000E-07      :
          :  -> SCF convergence          0.1000000E-05 Eh   :
          :  -> wf. convergence          0.1000000E-03 e    :
          :  Broyden damping             0.4000000          :
          :  net charge                          0          :
          :  unpaired electrons                  0          :
          ...................................................

 iter      E             dE          RMSdq      gap      omega  full diag
   1    -65.3751029 -0.653751E+02  0.651E+00    4.32       0.0  T
   2    -65.5499468 -0.174844E+00  0.426E+00    3.05       1.0  T
   3    -65.5694148 -0.194680E-01  0.148E+00    2.93       1.0  T
   4    -65.5719485 -0.253371E-02  0.581E-01    2.68       1.0  T
   5    -65.5727417 -0.793158E-03  0.268E-01    2.80       1.0  T
   6    -65.5729392 -0.197540E-03  0.136E-01    2.77       1.0  T
   7    -65.5729974 -0.581355E-04  0.514E-02    2.78       1.0  T
   8    -65.5730086 -0.112562E-04  0.248E-02    2.79       1.0  T
   9    -65.5730103 -0.171737E-05  0.586E-03    2.79       2.7  T
  10    -65.5730105 -0.123665E-06  0.304E-03    2.79       5.1  T
  11    -65.5730105 -0.984330E-08  0.737E-04    2.79      21.2  T
  12    -65.5730105 -0.832273E-09  0.361E-04    2.79      43.3  T

   *** convergence criteria satisfied after 12 iterations ***

         #    Occupation            Energy/Eh            Energy/eV
      -------------------------------------------------------------
         1        2.0000           -0.7586099             -20.6428
       ...           ...                  ...                  ...
        52        2.0000           -0.4339606             -11.8087
        53        2.0000           -0.4097448             -11.1497
        54        2.0000           -0.4002508             -10.8914
        55        2.0000           -0.3718421             -10.1183
        56        2.0000           -0.3681422             -10.0177
        57        2.0000           -0.3662284              -9.9656
        58        2.0000           -0.3601804              -9.8010 (HOMO)
        59                         -0.2575994              -7.0096 (LUMO)
        60                         -0.2434818              -6.6255
        61                         -0.2053674              -5.5883
        62                         -0.1758646              -4.7855
        63                         -0.1602500              -4.3606
       ...                                ...                  ...
       128                          1.3071773              35.5701
      -------------------------------------------------------------
                  HL-Gap            0.1025810 Eh            2.7914 eV
             Fermi-level           -0.3088899 Eh           -8.4053 eV

 SCC (total)                   0 d,  0 h,  0 min,  0.057 sec
 SCC setup                      ...        0 min,  0.000 sec (  0.506%)
 Dispersion                     ...        0 min,  0.000 sec (  0.548%)
 classical contributions        ...        0 min,  0.000 sec (  0.106%)
 integral evaluation            ...        0 min,  0.009 sec ( 15.224%)
 iterations                     ...        0 min,  0.025 sec ( 44.640%)
 molecular gradient             ...        0 min,  0.022 sec ( 38.606%)
 printout                       ...        0 min,  0.000 sec (  0.341%)

         :::::::::::::::::::::::::::::::::::::::::::::::::::::
         ::                     SUMMARY                     ::
         :::::::::::::::::::::::::::::::::::::::::::::::::::::
         :: total energy             -65.011057821043 Eh    ::
         :: gradient norm              0.038366327112 Eh/a0 ::
         :: HOMO-LUMO gap              2.791371529476 eV    ::
         ::.................................................::
         :: SCC energy               -65.572071242250 Eh    ::
         :: -> isotropic ES            0.107054369928 Eh    ::
         :: -> anisotropic ES         -0.012482302163 Eh    ::
         :: -> anisotropic XC          0.030907029615 Eh    ::
         :: -> dispersion             -0.055156477920 Eh    ::
         :: repulsion energy           0.561013421207 Eh    ::
         :: add. restraining           0.000000000000 Eh    ::
         :: total charge               0.000000000000 e     ::
         :::::::::::::::::::::::::::::::::::::::::::::::::::::

           -------------------------------------------------
          |                Property Printout                |
           -------------------------------------------------

    * Orbital Energies and Occupations

         #    Occupation            Energy/Eh            Energy/eV
      -------------------------------------------------------------
         1        2.0000           -0.7586099             -20.6428
       ...           ...                  ...                  ...
        46        2.0000           -0.4643113             -12.6346
        47        2.0000           -0.4631224             -12.6022
        48        2.0000           -0.4614437             -12.5565
        49        2.0000           -0.4550384             -12.3822
        50        2.0000           -0.4452989             -12.1172
        51        2.0000           -0.4389152             -11.9435
        52        2.0000           -0.4339606             -11.8087
        53        2.0000           -0.4097448             -11.1497
        54        2.0000           -0.4002508             -10.8914
        55        2.0000           -0.3718421             -10.1183
        56        2.0000           -0.3681422             -10.0177
        57        2.0000           -0.3662284              -9.9656
        58        2.0000           -0.3601804              -9.8010 (HOMO)
        59                         -0.2575994              -7.0096 (LUMO)
        60                         -0.2434818              -6.6255
        61                         -0.2053674              -5.5883
        62                         -0.1758646              -4.7855
        63                         -0.1602500              -4.3606
        64                         -0.1556534              -4.2355
        65                         -0.1526673              -4.1543
        66                         -0.1397319              -3.8023
        67                         -0.1165885              -3.1725
        68                         -0.1126122              -3.0643
        69                         -0.0423797              -1.1532
       ...                                ...                  ...
       128                          1.3071773              35.5701
      -------------------------------------------------------------
                  HL-Gap            0.1025810 Eh            2.7914 eV
             Fermi-level           -0.3088899 Eh           -8.4053 eV

     #   Z          covCN         q      C6AA      α(0)
     1   6 C        3.752    -0.115    22.755     6.803
     2   6 C        3.875     0.086    19.107     6.215
     3   8 O        1.655    -0.251    18.179     5.756
     4  15 P        3.878     0.368   144.900    21.623
     5  16 S        0.926    -0.404   156.822    21.181
     6   8 O        1.655    -0.233    17.881     5.708
     7   6 C        3.875     0.088    19.088     6.212
     8   6 C        3.751    -0.113    22.716     6.797
     9  16 S        2.016    -0.152   147.463    20.438
    10   6 C        3.810     0.044    19.837     6.340
    11  16 S        2.014    -0.155   147.588    20.447
    12  15 P        3.781     0.381   144.395    21.586
    13  16 S        0.928    -0.395   156.384    21.152
    14   8 O        1.654    -0.236    17.931     5.716
    15   6 C        3.810     0.082    19.211     6.239
    16   6 C        3.751    -0.117    22.798     6.809
    17   8 O        1.655    -0.252    18.200     5.759
    18   6 C        3.831     0.082    19.205     6.235
    19   6 C        3.751    -0.118    22.831     6.814
    20   1 H        0.925     0.062     2.174     2.306
    21   1 H        0.925     0.062     2.173     2.305
    22   1 H        0.925     0.059     2.209     2.324
    23   1 H        0.924     0.047     2.357     2.401
    24   1 H        0.924     0.059     2.213     2.326
    25   1 H        0.924     0.074     2.047     2.238
    26   1 H        0.924     0.064     2.157     2.297
    27   1 H        0.925     0.061     2.188     2.313
    28   1 H        0.925     0.057     2.231     2.336
    29   1 H        0.925     0.057     2.229     2.335
    30   1 H        0.925     0.083     1.946     2.182
    31   1 H        0.924     0.091     1.867     2.137
    32   1 H        0.924     0.070     2.085     2.258
    33   1 H        0.924     0.057     2.231     2.336
    34   1 H        0.925     0.069     2.094     2.263
    35   1 H        0.925     0.057     2.231     2.336
    36   1 H        0.925     0.061     2.192     2.315
    37   1 H        0.924     0.056     2.244     2.343
    38   1 H        0.924     0.067     2.121     2.278
    39   1 H        0.925     0.068     2.106     2.269
    40   1 H        0.925     0.059     2.206     2.323
    41   1 H        0.925     0.069     2.098     2.265

 Mol. C6AA /au·bohr⁶  :      26546.323143
 Mol. C8AA /au·bohr⁸  :     863407.428210
 Mol. α(0) /au        :        258.314184


Wiberg/Mayer (AO) data.
largest (>0.10) Wiberg bond orders for each atom

 ---------------------------------------------------------------------------
     #   Z sym  total        # sym  WBO       # sym  WBO       # sym  WBO
 ---------------------------------------------------------------------------
     1   6 C    3.990 --     2 C    1.019    20 H    0.985    21 H    0.984
                            22 H    0.981
     2   6 C    3.914 --     1 C    1.019    23 H    0.973    24 H    0.967
                             3 O    0.908
     3   8 O    2.398 --     4 P    1.296     2 C    0.908
     4  15 P    5.301 --     5 S    1.542     6 O    1.324     3 O    1.296
                             9 S    1.001
     5  16 S    1.889 --     4 P    1.542     9 S    0.140
     6   8 O    2.417 --     4 P    1.324     7 C    0.893
     7   6 C    3.904 --     8 C    1.023    26 H    0.969    25 H    0.965
                             6 O    0.893
     8   6 C    3.992 --     7 C    1.023    29 H    0.984    28 H    0.980
                            27 H    0.975
     9  16 S    2.289 --     4 P    1.001    10 C    0.979     5 S    0.140
    10   6 C    3.956 --    11 S    0.994     9 S    0.979    30 H    0.968
                            31 H    0.942
    11  16 S    2.277 --    10 C    0.994    12 P    0.952    13 S    0.142
    12  15 P    5.283 --    13 S    1.548    14 O    1.344    17 O    1.309
                            11 S    0.952
    13  16 S    1.888 --    12 P    1.548    11 S    0.142
    14   8 O    2.425 --    12 P    1.344    15 C    0.887
    15   6 C    3.911 --    16 C    1.022    33 H    0.973    32 H    0.969
                            14 O    0.887
    16   6 C    3.990 --    15 C    1.022    34 H    0.980    35 H    0.979
                            36 H    0.978
    17   8 O    2.406 --    12 P    1.309    18 C    0.903
    18   6 C    3.910 --    19 C    1.022    37 H    0.970    38 H    0.969
                            17 O    0.903
    19   6 C    3.988 --    18 C    1.022    41 H    0.982    40 H    0.980
                            39 H    0.974
    20   1 H    0.996 --     1 C    0.985
    21   1 H    0.996 --     1 C    0.984
    22   1 H    0.995 --     1 C    0.981
    23   1 H    0.998 --     2 C    0.973
    24   1 H    0.997 --     2 C    0.967
    25   1 H    0.995 --     7 C    0.965
    26   1 H    0.995 --     7 C    0.969
    27   1 H    0.996 --     8 C    0.975
    28   1 H    0.996 --     8 C    0.980
    29   1 H    0.997 --     8 C    0.984
    30   1 H    0.993 --    10 C    0.968
    31   1 H    0.992 --    10 C    0.942
    32   1 H    0.995 --    15 C    0.969
    33   1 H    0.997 --    15 C    0.973
    34   1 H    0.995 --    16 C    0.980
    35   1 H    0.995 --    16 C    0.979
    36   1 H    0.996 --    16 C    0.978
    37   1 H    0.997 --    18 C    0.970
    38   1 H    0.995 --    18 C    0.969
    39   1 H    0.995 --    19 C    0.974
    40   1 H    0.996 --    19 C    0.980
    41   1 H    0.995 --    19 C    0.982
 ---------------------------------------------------------------------------

Topologies differ in total number of bonds
Writing topology from bond orders to xtbtopo.mol

molecular dipole:
                 x           y           z       tot (Debye)
 q only:       -0.439      -0.943       1.846
   full:       -0.432      -0.619       2.343       6.258
molecular quadrupole (traceless):
                xx          xy          yy          xz          yz          zz
 q only:       25.344       5.191      -8.613       2.400       6.128     -16.731
  q+dip:       25.564       2.565      -9.849       0.591       9.639     -15.715
   full:       26.815       2.945      -9.476       0.708       9.748     -17.339


           -------------------------------------------------
          | TOTAL ENERGY              -65.011057821043 Eh   |
          | GRADIENT NORM               0.038366327112 Eh/α |
          | HOMO-LUMO GAP               2.791371529476 eV   |
           -------------------------------------------------

------------------------------------------------------------------------
 * finished run on 2025/04/09 at 05:20:44.334     
------------------------------------------------------------------------
 total:
 * wall-time:     0 d,  0 h,  0 min,  0.106 sec
 *  cpu-time:     0 d,  0 h,  0 min,  0.069 sec
 * ratio c/w:     0.645 speedup
 SCF:
 * wall-time:     0 d,  0 h,  0 min,  0.057 sec
 *  cpu-time:     0 d,  0 h,  0 min,  0.056 sec
 * ratio c/w:     0.988 speedup

