41
 energy: -65.033210996573 gnorm: 0.052231108273 xtb: 6.7.1 (edcfbbe)
C            5.02691151427926       -2.61173002195783       -1.12065294704498
C            4.06031601440140       -1.51941534122363       -1.49879156853389
O            3.08338796207578       -1.40537085253495       -0.40790715413509
P            2.20640197912619       -0.06869587000037       -0.20252227848996
S            3.15728243196801        1.63140788761188       -0.16964813547619
O            1.37326582153535       -0.46362388812686        1.10370201264372
C            1.81297340360823       -0.14677975516871        2.46754431146264
C            0.57404122018901        0.10147963873426        3.29148480957836
S            0.77051007278807       -0.29183388612510       -1.74012097992823
C           -0.01112189294703        1.36575774521919       -1.74247175802226
S           -0.95520442148666        1.86600983838515       -0.25206650439575
P           -2.49537687717461        0.39984259557570       -0.26356093985252
S           -3.37868815444714        0.12812082109649       -1.97547678004842
O           -3.49389720983402        0.97037484669334        0.85445598341501
C           -3.19115149842796        0.95074473980243        2.30201249469282
C           -2.91216300084647        2.35097804323323        2.79028648751796
O           -1.78175101282644       -0.87726541925780        0.39722840397023
C           -1.96955606067355       -2.24475544310725       -0.12324896704237
C           -0.95019034226956       -3.12613565776607        0.55297668957126
H            4.50529248602329       -3.56207746679947       -0.97185039193664
H            5.75013667274005       -2.73759163492463       -1.93303102242303
H            5.57132106064792       -2.35221746614299       -0.20786289283171
H            3.51176673338375       -1.76134342787470       -2.41466870490806
H            4.56533293058870       -0.55610498102762       -1.62124984488216
H            2.38623957033671       -1.00583513615342        2.82904988083281
H            2.46222471400969        0.73395924355255        2.43550984649067
H            0.86589537907130        0.28937866955913        4.32949834132909
H            0.02990882098127        0.97509206093600        2.91796484347691
H           -0.08892342188956       -0.76931686404044        3.27062966052111
H           -0.67734152752225        1.37361750604686       -2.61148792109624
H            0.76248993707091        2.13013497003500       -1.87226207285631
H           -4.09140910450779        0.53673789071904        2.76278436631507
H           -2.35659415504275        0.27213700426752        2.49541097380008
H           -2.82777603093184        2.32897555652029        3.88231969137788
H           -1.97483557106907        2.74465383926749        2.38453622419735
H           -3.72952072958227        3.02843976551090        2.52132637808878
H           -2.99380959748478       -2.55535518686938        0.10226996733294
H           -1.82754534966894       -2.21938146003466       -1.20726713218017
H           -1.06627072034485       -3.10361998472752        1.64143250138975
H           -1.09709490056973       -4.15664777246608        0.21002926687978
H            0.06777145398793       -2.81781038152841        0.29433146466336
41
 energy: -65.037739166033 gnorm: 0.026478575100 xtb: 6.7.1 (edcfbbe)
C            5.02623048305125       -2.60571048812274       -1.11976097854855
C            4.05093811873063       -1.51090542493880       -1.48680170328367
O            3.07679710338675       -1.39262694388532       -0.40961952895594
P            2.17920481654977       -0.07488896489958       -0.21798031106243
S            3.16475500230105        1.62171694665233       -0.15955254023394
O            1.36605619449182       -0.46615015697300        1.09378890975051
C            1.80749428847164       -0.14487649260460        2.44653376860643
C            0.57832465281083        0.10493844462342        3.28931877481116
S            0.69645229332622       -0.31612000170093       -1.70291584731130
C           -0.00953370312922        1.36274593942401       -1.73456535173018
S           -0.87827734529370        1.81321214512981       -0.19630057309518
P           -2.46718008493114        0.40930695433837       -0.25684375640223
S           -3.35955720681367        0.11366799527904       -1.96870314139657
O           -3.47786991071478        0.95796868367856        0.85239060955342
C           -3.19166449877064        0.94944572166968        2.29063675455363
C           -2.91050978107292        2.34837905656816        2.78736836346887
O           -1.77653005562713       -0.87854350799955        0.39884998993925
C           -1.96421433488495       -2.23222753555279       -0.12284580912088
C           -0.94927724465955       -3.12540194195296        0.54987302155552
H            4.50117682261352       -3.54647842754736       -0.96791793235709
H            5.74472423008420       -2.73061092276327       -1.92808637087671
H            5.56248670445369       -2.35013045428713       -0.20835785307479
H            3.50210138275840       -1.75255920633934       -2.40068155234513
H            4.55059221663167       -0.54550806245361       -1.60813110747524
H            2.38005328831255       -1.00224068673954        2.80818384544536
H            2.45619553553150        0.73564636451144        2.40729762267331
H            0.87526115323736        0.29231056038058        4.31952524967337
H            0.03542765405886        0.97124207658537        2.91490706098021
H           -0.07768684508958       -0.76335138068327        3.26329234264706
H           -0.70145743388193        1.37539774018231       -2.57917133719655
H            0.78145940398043        2.10499520259838       -1.85703151309925
H           -4.09687584929865        0.53989700126952        2.74382435086175
H           -2.35282855373271        0.27639420790056        2.47562976869487
H           -2.82376073262603        2.32768581519122        3.87314462870176
H           -1.98376638548181        2.73756627241326        2.36665271799495
H           -3.72347532127192        3.01764233957661        2.51278907438067
H           -2.98856319435776       -2.53807857641475        0.10162237316586
H           -1.82656555168151       -2.20416822276001       -1.20641618559518
H           -1.06998134217630       -3.09774755828395        1.63098051014018
H           -1.09521126066727       -4.14790702914846        0.20524752691274
H            0.06230389064657       -2.80899271701317        0.30046273211355
41
 energy: -65.039530277541 gnorm: 0.010882753054 xtb: 6.7.1 (edcfbbe)
C            5.01713007399968       -2.59598284900913       -1.11447502173070
C            4.03508727045176       -1.49964270884857       -1.47729643527747
O            3.06398404765438       -1.38578638105787       -0.41260850249543
P            2.14587111677312       -0.09052133509402       -0.22523380328948
S            3.13004963776730        1.61047446902853       -0.19038229302932
O            1.35557517728591       -0.47640733534705        1.09205395091736
C            1.80429407852027       -0.14672885085821        2.42897363466650
C            0.58173145960694        0.10933409627036        3.28514818503889
S            0.66042745317237       -0.34305113669794       -1.70035080944585
C           -0.01005768902988        1.34259086240669       -1.69890029781149
S           -0.83095964189361        1.80438435484019       -0.14722389931158
P           -2.42697924471858        0.41356213522947       -0.24245545997591
S           -3.29225993463118        0.14476566556257       -1.97329001865376
O           -3.45457077023564        0.94428632191583        0.84919718020984
C           -3.18978028722902        0.94569780511645        2.27906647195150
C           -2.90692581809171        2.34731824459156        2.77627470235200
O           -1.77051048526456       -0.89084138312501        0.40859921265280
C           -1.96055591694664       -2.22578616142034       -0.12017482491672
C           -0.94664656924752       -3.12795216696242        0.54806256228247
H            4.48942651859539       -3.53136417738772       -0.96334075219348
H            5.73180548618184       -2.71522334520916       -1.92094584193980
H            5.54719306142688       -2.34150623740299       -0.20300684820472
H            3.49390796678048       -1.74056807336523       -2.39520628069372
H            4.53489660236310       -0.53349406206283       -1.59396860259044
H            2.37873382544888       -1.00021530657234        2.79385227508407
H            2.45174901599343        0.73442740300694        2.37704976754675
H            0.88905497049343        0.29789961245317        4.30734247282127
H            0.04040228463217        0.97167001620953        2.90909305468869
H           -0.06983733290471       -0.75788733098000        3.25934343630480
H           -0.72307125158160        1.37552954176215       -2.52285218248727
H            0.79453261438938        2.06447143113494       -1.83089132609177
H           -4.10227168227512        0.54567401148538        2.72442025367625
H           -2.35204728386091        0.27497242086452        2.47246087989046
H           -2.81687948465415        2.32684997496875        3.85701197655883
H           -1.98618482171201        2.73038898862677        2.34371651905549
H           -3.71879447662270        3.01054499128916        2.49820180771020
H           -2.98535523695388       -2.53183874455846        0.09987869144985
H           -1.82413203163674       -2.19303728583704       -1.20380004170681
H           -1.07463202223734       -3.09905380037856        1.62457145554536
H           -1.09016172981466       -4.14277736669345        0.19624773166511
H            0.06000964927099       -2.80024154298613        0.30647362324086
41
 energy: -65.040092633333 gnorm: 0.006648655216 xtb: 6.7.1 (edcfbbe)
C            5.00798518418565       -2.58931882729022       -1.10898963695773
C            4.02456439944110       -1.49290286278625       -1.47411326475517
O            3.05485351070858       -1.38926624682675       -0.41524982498170
P            2.12778088730063       -0.10734877682442       -0.22718591131108
S            3.09000532080704        1.60626055399586       -0.22114320136366
O            1.34733880775783       -0.48852751079773        1.09000252907072
C            1.80250172838373       -0.14987808737693        2.41747147795644
C            0.58408488875384        0.11338401845433        3.28033238485719
S            0.63638964161637       -0.35923814007683       -1.69587737646475
C           -0.00538639868788        1.33478162296582       -1.67687288842398
S           -0.79492727550450        1.78135346681794       -0.10853569284918
P           -2.40960121498566        0.41487064272187       -0.22865135096787
S           -3.23267098433759        0.18169644984046       -1.98561546348805
O           -3.44942326274095        0.93380582503381        0.84954539950677
C           -3.19318888119412        0.94245226052290        2.27554933950325
C           -2.90434101185578        2.34855899890198        2.76319868829417
O           -1.77121607180357       -0.89815255784080        0.41941513283009
C           -1.95718954466134       -2.22269684720290       -0.11796769677673
C           -0.94241917239402       -3.13024420845818        0.54615958568571
H            4.47859805423733       -3.52465867413369       -0.96073426219447
H            5.72335115946931       -2.70339348736369       -1.91499081868863
H            5.53400776298434       -2.33293675235487       -0.19509975181182
H            3.49253948753301       -1.73079975742833       -2.39879712256877
H            4.52611419351054       -0.52601067990573       -1.58489084320134
H            2.38010769752447       -0.99872347865508        2.78883273630056
H            2.44939792815769        0.73186422026460        2.35710153596556
H            0.90085104396422        0.30455222392444        4.29883795956913
H            0.04346334348644        0.97623753366139        2.90336763948954
H           -0.06837609693925       -0.75367573024390        3.26040304397235
H           -0.73729654665159        1.38973167979268       -2.48423796632923
H            0.81155958985609        2.04125589062826       -1.81998106897752
H           -4.11013595774570        0.55320575012445        2.72071454654469
H           -2.36037692834371        0.26979954393337        2.48673738390708
H           -2.80680932908785        2.33201452190077        3.84277971315004
H           -1.98484886407561        2.72554918220376        2.32139850053504
H           -3.71765919230621        3.01096583661376        2.48537717248723
H           -2.98137252793095       -2.53722279074174        0.09698295024488
H           -1.82033584720247       -2.18770081497708       -1.20244838452796
H           -1.07695717923178       -3.10822580107727        1.62257116629431
H           -1.08127851461298       -4.14188893010774        0.18459202664447
H            0.06356477188080       -2.79459449492387        0.31064821729407
41
 energy: -65.040225322626 gnorm: 0.004326860899 xtb: 6.7.1 (edcfbbe)
C            5.00268775451594       -2.58591856272896       -1.10693348962125
C            4.02022351310081       -1.49005608721923       -1.47488911601725
O            3.04592656328481       -1.39336819767228       -0.41966901314284
P            2.11808746279806       -0.11517621999819       -0.23019635249587
S            3.07731124524956        1.59966589833631       -0.22776155143259
O            1.34175350445533       -0.49503194394860        1.08751145844371
C            1.80212606554012       -0.15117750125506        2.41264504095928
C            0.58657142448470        0.11660631987658        3.27803370445266
S            0.62361630232808       -0.36773151617087       -1.69868967939765
C           -0.00706065650651        1.33104728645284       -1.65886474584319
S           -0.78091705484610        1.77922013633168       -0.08377947136662
P           -2.39825086553414        0.41545337962460       -0.22424737319193
S           -3.20957480666947        0.19511571274916       -1.98667120033755
O           -3.44626470782169        0.93116093655691        0.84483333503824
C           -3.19692455889629        0.94390160505977        2.27285963519184
C           -2.90161525520654        2.35149446322965        2.75337863029769
O           -1.77289774934997       -0.90355309776816        0.42506857766265
C           -1.95579976173808       -2.22586809925096       -0.11783275367529
C           -0.93928205506869       -3.13414473163406        0.54376473572257
H            4.47347271424129       -3.52292683302528       -0.96132631382131
H            5.72234602279739       -2.69924362496637       -1.91063839671449
H            5.52547446295639       -2.32882172604324       -0.19017570668737
H            3.49442992064697       -1.72440602784610       -2.40457942589020
H            4.52178827584048       -0.52208844157128       -1.58058500840008
H            2.38204861466915       -0.99754409749342        2.78748278951688
H            2.44866659100645        0.73078075745184        2.34762127405948
H            0.90745101110815        0.31030840045405        4.29591767411547
H            0.04584794911373        0.98051531453419        2.90066398867708
H           -0.06893600208385       -0.74962881085577        3.26414185428698
H           -0.74366786626603        1.40240564570853       -2.46073350977975
H            0.81631224375080        2.02983098805649       -1.80783079967272
H           -4.11798103129781        0.56267016156505        2.71746243110123
H           -2.37043508790958        0.26650083676337        2.49726944456856
H           -2.79850848376761        2.33989876905039        3.83370365311526
H           -1.98145187670687        2.72373005020427        2.30696986001582
H           -3.71480448271948        3.01636294872309        2.47676540123356
H           -2.97958507956347       -2.54658823436080        0.09374699988485
H           -1.81674485422810       -2.18764980347215       -1.20259077687710
H           -1.07668365179361       -3.12100492530061        1.62120488512353
H           -1.07304269795263       -4.14514569318545        0.17480500932656
H            0.06753554330380       -2.79466067005351        0.31278090503485
41
 energy: -65.040290890264 gnorm: 0.002777892615 xtb: 6.7.1 (edcfbbe)
C            5.00087363397939       -2.58524382985317       -1.10680578893814
C            4.01930366900303       -1.49036409921948       -1.47639394837071
O            3.04031258843198       -1.39967214332971       -0.42329389910583
P            2.11521462330201       -0.12154623746321       -0.23017774715598
S            3.07524335665580        1.59251947436149       -0.22845979623397
O            1.33919067357382       -0.50104753796702        1.08727445842842
C            1.80199937982419       -0.15241367841094        2.41198535543885
C            0.58847660849589        0.11934949302359        3.27772909048995
S            0.62052879950316       -0.36341136322829       -1.69983737994979
C           -0.00636305405375        1.33644512370543       -1.65324944240773
S           -0.78161734762656        1.77393825861052       -0.07805229960015
P           -2.39883441287245        0.41207221863247       -0.21808024444094
S           -3.20049995885260        0.20186090317939       -1.98580403564414
O           -3.45113816937860        0.92791591708237        0.84545722151859
C           -3.20277837156395        0.94735372728262        2.27477863572339
C           -2.89940445090190        2.35560455763516        2.74700085313506
O           -1.77861018509498       -0.90945096090249        0.43155984253556
C           -1.95468888636843       -2.23139128056147       -0.11753322978641
C           -0.93585627109663       -3.13884640279067        0.54101045401929
H            4.47226940762018       -3.52353008685875       -0.96370924896338
H            5.72457643893552       -2.69840421566064       -1.90780046573554
H            5.52054346634497       -2.32844522806228       -0.18764402764306
H            3.49703974867960       -1.72117504026446       -2.40912690827776
H            4.51906584944818       -0.52070785229846       -1.57657728517012
H            2.38300524363402       -0.99764223458774        2.78813256328764
H            2.44854074278073        0.72921327721284        2.34221691409896
H            0.91094466030999        0.31554731007513        4.29532144317777
H            0.04798940340803        0.98361030877886        2.89936971321814
H           -0.06970480252444       -0.74559848496012        3.26850551226347
H           -0.74192766212423        1.41540723975093       -2.45396368907226
H            0.81891565770758        2.03311193113704       -1.79990601453850
H           -4.12687816022119        0.57314539195509        2.71951777629568
H           -2.38157224057837        0.26502992617998        2.50448638770340
H           -2.79033846462146        2.34955404829229        3.82762167071853
H           -1.97915797182111        2.72250783266560        2.29517607402717
H           -3.71126869699197        3.02345688009426        2.47185439762596
H           -2.97762650205840       -2.55702802700793        0.09167969518111
H           -1.81412709330584       -2.18779774617209       -1.20217248256027
H           -1.07485393851987       -3.13436323560645        1.61889574486756
H           -1.06464247861516       -4.14903780777816        0.16558631054461
H            0.07110376681928       -2.79559156176322        0.31406442275929
41
 energy: -65.040340677059 gnorm: 0.002525202082 xtb: 6.7.1 (edcfbbe)
C            4.99969080918247       -2.58556256645179       -1.10730918615254
C            4.01890329007414       -1.49195591248266       -1.47868248971558
O            3.03325223442219       -1.40661341707301       -0.42895132841021
P            2.11422207920978       -0.12581726581303       -0.23012645037303
S            3.08081271503310        1.58468477832423       -0.22419648075157
O            1.33731041010011       -0.50592721490981        1.08705703596094
C            1.80166022884178       -0.15336782294416        2.41217229094676
C            0.59026607106789        0.12293625385983        3.27780969647406
S            0.61785985556619       -0.35740608451974       -1.70053963320292
C           -0.00801902428254        1.34265890622263       -1.64470552236241
S           -0.78235899884459        1.76818465683449       -0.06631359986288
P           -2.40168262951425        0.40734514859217       -0.21428813775658
S           -3.20012716214197        0.19909790601886       -1.98375618857826
O           -3.45628019225432        0.92513650388093        0.84529262058929
C           -3.20907491700435        0.95308529545928        2.27634165958770
C           -2.89594491961753        2.36129157227257        2.73959941655478
O           -1.78599809746826       -0.91577090943422        0.43705601834395
C           -1.95296404434222       -2.23829217961310       -0.11796765326061
C           -0.93116281996162       -3.14404356690695        0.53689941424399
H            4.47200444210238       -3.52502010323514       -0.96762542109471
H            5.72757338735461       -2.69792048579325       -1.90496642267272
H            5.51562960967378       -2.32985695206609       -0.18563558362722
H            3.50043024318121       -1.71936363994777       -2.41423825921066
H            4.51606829249215       -0.52032221168536       -1.57191776529788
H            2.38237746357010       -0.99848647779627        2.78864828488097
H            2.44903747172876        0.72705448709090        2.33749569947594
H            0.91393217256452        0.32159613264057        4.29480819935314
H            0.05054968492126        0.98725287543335        2.89816538913336
H           -0.07037750875348       -0.74031177724920        3.27285140016202
H           -0.74168147874405        1.42828674744299       -2.44584791267510
H            0.81828464701196        2.03904958806992       -1.78589909047374
H           -4.13735709928825        0.58834985774285        2.72060841870595
H           -2.39430478473765        0.26468721708988        2.51026849479335
H           -2.78117537324974        2.36077304644378        3.81994439897718
H           -1.97577126731108        2.72131703835296        2.28194272128507
H           -3.70527036222655        3.03287252841272        2.46577847691327
H           -2.97446175675803       -2.56898877258706        0.08939329107095
H           -1.81157896835248       -2.18820915635480       -1.20214667459771
H           -1.07172231380177       -3.14874862305832        1.61465989266194
H           -1.05448316548213       -4.15274019501069        0.15459264972971
H            0.07518037530385       -2.79600044034431        0.31436493369572
41
 energy: -65.040367312594 gnorm: 0.002402460668 xtb: 6.7.1 (edcfbbe)
C            4.99942567819452       -2.58656488937584       -1.10774433200268
C            4.01854844935251       -1.49388529526377       -1.48026962570960
O            3.02739224237751       -1.41179143367305       -0.43433023938778
P            2.11355137719434       -0.12805543695879       -0.23051724676839
S            3.08773860652366        1.57850569526509       -0.21872973079131
O            1.33661174859655       -0.50924335591755        1.08710075888124
C            1.80129957287906       -0.15416870400797        2.41230791813413
C            0.59118752221524        0.12610494226041        3.27774574169466
S            0.61493734571858       -0.35342899373871       -1.70014044668898
C           -0.00890910347349        1.34743108801287       -1.63730390069781
S           -0.78666767089598        1.76504614166819       -0.05942854113499
P           -2.40466262293972        0.40277076179857       -0.21033575078170
S           -3.20048605751888        0.19363859601448       -1.98130114355551
O           -3.46077447279942        0.92207394481667        0.84670471560588
C           -3.21471453268791        0.95807856698396        2.27838748529585
C           -2.89279243371614        2.36628090718672        2.73390297586404
O           -1.79305761723698       -0.92164534842846        0.44236085058438
C           -1.95155267334673       -2.24361303115235       -0.11865198641763
C           -0.92636838901918       -3.14742155799824        0.53269826444501
H            4.47244876407076       -3.52661928963570       -0.97127194508631
H            5.72968465917399       -2.69690819942943       -1.90311533408352
H            5.51216725279538       -2.33212199448967       -0.18428041247263
H            3.50342486450204       -1.72000275757453       -2.41764109319351
H            4.51356453014886       -0.52091630999304       -1.56849041202030
H            2.38031016987822       -0.99986057405630        2.78943729979517
H            2.45012057496067        0.72470241869565        2.33465718520627
H            0.91587472162658        0.32661014508164        4.29379191947105
H            0.05267786080841        0.99011123182424        2.89650987634561
H           -0.07067876661165       -0.73580982679644        3.27519616652971
H           -0.74100466769711        1.43641305920674       -2.43951176514500
H            0.81773997594915        2.04477904079902       -1.77223401559386
H           -4.14654014117484        0.60246632897130        2.72231675212880
H           -2.40484591142815        0.26535122988017        2.51519730906335
H           -2.77428032914066        2.36976769000665        3.81344465534260
H           -1.97277483350263        2.71954126663306        2.27137744835373
H           -3.69921341713993        3.04082650928558        2.45995675078396
H           -2.97144831620948       -2.57930572781623        0.08701730526004
H           -1.80987807157743       -2.18738172148524       -1.20223512082381
H           -1.06845933588718       -3.15894730193682        1.60981311662159
H           -1.04483983352901       -4.15412916920046        0.14447764047152
H            0.07849187983183       -2.79374388055433        0.31376750994050
41
 energy: -65.040379087530 gnorm: 0.001742718638 xtb: 6.7.1 (edcfbbe)
C            5.00002606508869       -2.58799447289297       -1.10773288933432
C            4.01845280435329       -1.49583918445821       -1.48088309509035
O            3.02499877746028       -1.41547141242449       -0.43730077409613
P            2.11363838249126       -0.13003080429697       -0.23031710027953
S            3.09014062796544        1.57509707437523       -0.21716217001729
O            1.33729625539816       -0.51196856526597        1.08794426978726
C            1.80125875524207       -0.15524214690548        2.41267540297857
C            0.59111232782302        0.12817267170534        3.27733612055106
S            0.61379476331453       -0.34955603213489       -1.69893375241705
C           -0.01156713840083        1.35017697768397       -1.63277676762122
S           -0.78909345544619        1.76310706500688       -0.05318655245397
P           -2.40656647386498        0.40001750287296       -0.20793895327095
S           -3.20091023116143        0.18869793652490       -1.97948028586177
O           -3.46339614659325        0.91991567676823        0.84806646791858
C           -3.21841474839987        0.96104459985364        2.27959427790286
C           -2.89073308768525        2.36945995079065        2.73041103392841
O           -1.79807736408986       -0.92507649295558        0.44603486719434
C           -1.95056867357342       -2.24573001746533       -0.11938839833595
C           -0.92243257438962       -3.14808981977374        0.52943700904130
H            4.47352565134523       -3.52840331575361       -0.97353535853196
H            5.73116026051316       -2.69595365874032       -1.90219271995061
H            5.51070500070320       -2.33430917934598       -0.18320566930921
H            3.50559868856882       -1.72232483937651       -2.41919939339316
H            4.51244621445175       -0.52236118794937       -1.56709693649679
H            2.37828829343058       -1.00144597008171        2.79137775156938
H            2.45153423207614        0.72236956971357        2.33399091965710
H            0.91631651199985        0.33011494545860        4.29261825032737
H            0.05385559210460        0.99187334367382        2.89430021130072
H           -0.07127042461413       -0.73301191782189        3.27588958703550
H           -0.74296231352832        1.44017544734527       -2.43584616503222
H            0.81512257640677        2.04829933634766       -1.76397717135343
H           -4.15237230209435        0.61192672864007        2.72355160630291
H           -2.41158449392896        0.26602046569501        2.51934424089747
H           -2.77084916026873        2.37526110359852        3.80936734435032
H           -1.97044013044326        2.71771660475826        2.26536420488441
H           -3.69482198052399        3.04595946549017        2.45525154225544
H           -2.96917588954440       -2.58577808836994        0.08484497144339
H           -1.80892287000719       -2.18534962267913       -1.20257331809405
H           -1.06569706055637       -3.16376019049274        1.60603115060696
H           -1.03709958992320       -4.15325610671413        0.13714056324971
H            0.08093292756609       -2.78951867549576        0.31279228122068
41
 energy: -65.040386549031 gnorm: 0.001077582087 xtb: 6.7.1 (edcfbbe)
C            5.00050034603482       -2.58949968761432       -1.10734391548893
C            4.01779245647048       -1.49769603821222       -1.48151652624955
O            3.02290651613635       -1.41744037691338       -0.44046601827595
P            2.11348281826173       -0.13007301667843       -0.23073963435071
S            3.09240189987459        1.57339565051913       -0.21533588458275
O            1.33879752752307       -0.51364385454051        1.08859731399562