
                                 *****************
                                 * O   R   C   A *
                                 *****************

                                            #,                                       
                                            ###                                      
                                            ####                                     
                                            #####                                    
                                            ######                                   
                                           ########,                                 
                                     ,,################,,,,,                         
                               ,,#################################,,                 
                          ,,##########################################,,             
                       ,#########################################, ''#####,          
                    ,#############################################,,   '####,        
                  ,##################################################,,,,####,       
                ,###########''''           ''''###############################       
              ,#####''   ,,,,##########,,,,          '''####'''          '####       
            ,##' ,,,,###########################,,,                        '##       
           ' ,,###''''                  '''############,,,                           
         ,,##''                                '''############,,,,        ,,,,,,###''
      ,#''                                            '''#######################'''  
     '                                                          ''''####''''         
             ,#######,   #######,   ,#######,      ##                                
            ,#'     '#,  ##    ##  ,#'     '#,    #''#        ,####,   ,####,        
            ##       ##  ##   ,#'  ##            #'  '#       #'       #'  '#        
            ##       ##  #######   ##           ,######,      #####,   #    #        
            '#,     ,#'  ##    ##  '#,     ,#' ,#      #,     #,   #   #,  ,#        
             '#######'   ##     ##  '#######'  #'      '#     '####' # '####'        



                #########################################################
                #                        -***-                          #
                #          Department of theory and spectroscopy        #
                #                                                       #
                #                      Frank Neese                      #
                #                                                       #
                #     Directorship, Architecture, Infrastructure        #
                #                    SHARK, DRIVERS                     #
                #        Core code/Algorithms in most modules           #
                #                                                       #
                #        Max Planck Institute fuer Kohlenforschung      #
                #                Kaiser Wilhelm Platz 1                 #
                #                 D-45470 Muelheim/Ruhr                 #
                #                      Germany                          #
                #                                                       #
                #                  All rights reserved                  #
                #                        -***-                          #
                #########################################################


                         Program Version 6.0.1  -  RELEASE   -


 With contributions from (in alphabetic order):
[Max-Planck-Institut fuer Kohlenforschung]                               
  Daniel Aravena         : Magnetic Suceptibility                        
  Michael Atanasov       : Ab Initio Ligand Field Theory (pilot matlab implementation)
  Alexander A. Auer      : GIAO ZORA, VPT2 properties, NMR spectrum      
  Ute Becker             : All parallelization in ORCA, NUMFREQ, NUMCALC 
  Giovanni Bistoni       : ED, misc. LED, open-shell LED, HFLD           
  Martin Brehm           : Molecular dynamics                            
  Dmytro Bykov           : pre 5.0 version of the SCF Hessian            
  Marcos Casanova-Páez   : Triplet and SCS-CIS(D). UHF-(DLPNO)-IP/EA/STEOM-CCSD. UHF-CVS-IP/STEOM-CCSD   
  Vijay G. Chilkuri      : MRCI spin determinant printing, contributions to CSF-ICE 
  Pauline Colinet        : FMM embedding                                 
  Dipayan Datta          : RHF DLPNO-CCSD density                        
  Achintya Kumar Dutta   : EOM-CC, STEOM-CC                              
  Nicolas Foglia         : Exact transition moments, OPA infrastructure, MCD improvements    
  Dmitry Ganyushin       : Spin-Orbit,Spin-Spin,Magnetic field MRCI      
  Miquel Garcia-Rates    : C-PCM and meta-GGA Hessian, CCSD/C-PCM, Gaussian charge scheme 
  Tiago L. C. Gouveia    : GS-ROHF, GS-ROCIS                             
  Yang Guo               : DLPNO-NEVPT2, F12-NEVPT2, CIM, IAO-localization        
  Andreas Hansen         : Spin unrestricted coupled pair/coupled cluster methods 
  Ingolf Harden          : AUTO-CI MPn and infrastructure                
  Benjamin Helmich-Paris : MC-RPA, TRAH-(SCF,CASSCF), AVAS, COSX integrals, SCF dyn. polar. 
  Lee Huntington         : MR-EOM, pCC                                   
  Robert Izsak           : Overlap fitted RIJCOSX, COSX-SCS-MP3, EOM     
  Riya Kayal             : Wick's Theorem for AUTO-CI, AUTO-CI UHF-CCSDT 
  Emily Kempfer          : AUTO-CI, RHF CISDT and CCSDT                  
  Christian Kollmar      : KDIIS, OOCD, Brueckner-CCSD(T), CCSD density, CASPT2, CASPT2-K, improved NEVPT2 
  Axel Koslowski         : Symmetry handling                             
  Simone Kossmann        : meta-GGA functionals, TD-DFT gradient, OOMP2, (MP2 Hessian; deprecated post 5.0) 
  Lucas Lang             : DCDCAS                                        
  Marvin Lechner         : AUTO-CI (C++ implementation), FIC-MRCC        
  Spencer Leger          : CASSCF response                               
  Dagmar Lenk            : GEPOL surface, SMD, ORCA-2-JSON               
  Dimitrios Liakos       : Extrapolation schemes; Compound Job, initial MDCI parallelization 
  Dimitrios Manganas     : Further ROCIS development; embedding schemes. LFT, Crystal Embedding 
  Dimitrios Pantazis     : SARC Basis sets                               
  Anastasios Papadopoulos: AUTO-CI, single reference methods and gradients 
  Taras Petrenko         : pre 6.0 DFT Hessian and TD-DFT gradient, (ASA, deprecated), ECA, 1-Electron XAS/XES, NRVS 
  Peter Pinski           : DLPNO-MP2, DLPNO-MP2 Gradient                 
  Christoph Reimann      : Effective Core Potentials                     
  Marius Retegan         : Local ZFS, SOC                                
  Christoph Riplinger    : Optimizer, TS searches, QM/MM, DLPNO-CCSD(T), (RO)-DLPNO pert. Triples 
  Michael Roemelt        : Original ROCIS implementation                 
  Masaaki Saitow         : Open-shell DLPNO-CCSD energy and density      
  Barbara Sandhoefer     : DKH picture change effects                    
  Kantharuban Sivalingam : CASSCF convergence/infrastructure, NEVPT2 and variants, FIC-MRCI 
  Bernardo de Souza      : ESD, SOC TD-DFT                               
  Georgi L. Stoychev     : AutoAux, RI-MP2 NMR, DLPNO-MP2 response, X2C  
  Van Anh Tran           : RI-MP2 g-tensors                              
  Willem Van den Heuvel  : Paramagnetic NMR                              
  Zikuan Wang            : NOTCH, Electric field optimization            
  Frank Wennmohs         : Technical directorship and infrastructure     
  Hang Xu                : AUTO-CI-Response properties                   
                                                                         
[FACCTs GmbH]                                                            
  Markus Bursch, Miquel Garcia-Rates, Christoph Riplinger, Bernardo de Souza, Georgi L. Stoychev 
                                                                 
  APM, Basis sets (HGBS, AHGBS, def-TZVP (Ac-Lr), def2-XVPD (La-Lu)), CI-OPT, improved COSX, DLPNO-Multilevel,           
  DOCKER, DRACO, updates on ESD, GOAT, IRC, LR-CPCM, MBIS, meta-GGA TD-DFT gradient, ML-optimized integration grids, 
  MM, NACMEs, nearIR, NEB, NEB-TS, NL-DFT gradient (VV10), 2- and 3-layer-ONIOM, interface openCOSMO-RS, QMMM,   
  Crystal-QMMM, SF, symmetry and pop. for TD-DFT, r2SCAN hybrids, SOLVATOR                                   
                                                                         
[Other institutions]                                                     
  V. Asgeirsson          : NEB                                           
  Christoph Bannwarth    : sTDA-DFT, sTD-DFT, PBEh-3c, B97-3c, D3        
  Sebastian Ehlert       : rSCAN, r2SCAN, r2SCAN-3c, D4, dhf basis sets  
  Marvin Friede          : D4 for Fr, Ra, Ac-Lr                          
  Lars Goerigk           : TD-DFT with DH, B97 family of functionals     
  Stefan Grimme          : VdW corrections, initial TS optimization, DFT functionals, gCP, sTDA/sTD-DF 
  Waldemar Hujo          : DFT-NL                                        
  H. Jonsson             : NEB                                           
  Holger Kruse           : gCP                                           
  Marcel Mueller         : wB97X-3c, vDZP basis set                      
  Hagen Neugebauer       : wr2SCAN                                       
  Tobias Risthaus        : range-separated hybrid DFT                    
  Lukas Wittmann         : regularized MP2, r2SCAN double-hybrids, wr2SCAN        
                                                                         
We gratefully acknowledge several colleagues who have allowed us to      
interface, adapt or use parts of their codes:                            
  Ed Valeev, F. Pavosevic, A. Kumar             : LibInt (2-el integral package), F12 methods 
  Garnet Chan, S. Sharma, J. Yang, R. Olivares  : DMRG                   
  Ulf Ekstrom                                   : XCFun DFT Library      
  Mihaly Kallay                                 : mrcc  (arbitrary order and MRCC methods)
  Frank Weinhold                                : gennbo (NPA and NBO analysis)           
  Simon Mueller                                 : openCOSMO-RS                            
  Christopher J. Cramer and Donald G. Truhlar   : smd solvation model                     
  S Lehtola, MJT Oliveira, MAL Marques          : LibXC Library                           
  Liviu Ungur et al                             : ANISO software                          


 Your calculation uses the libint2 library for the computation of 2-el integrals
 For citations please refer to: http://libint.valeyev.net

 Your ORCA version has been built with support for libXC version: 6.2.2
 For citations please refer to: https://libxc.gitlab.io

 This ORCA versions uses:
   CBLAS   interface :  Fast vector & matrix operations
   LAPACKE interface :  Fast linear algebra routines
   SCALAPACK package :  Parallel linear algebra routines
   Shared memory     :  Shared parallel matrices
   BLAS/LAPACK       :  OpenBLAS 0.3.27  USE64BITINT DYNAMIC_ARCH NO_AFFINITY Zen SINGLE_THREADED
        Core in use  :  Zen
   Copyright (c) 2011-2014, The OpenBLAS Project


Your calculation utilizes the geometrical counterpoise correction gCP
Please cite in your paper:
H.Kruse, S. Grimme J.Chem.Phys., 136, (2012), 154101 
   

Your calculation utilizes the atom-pairwise dispersion correction
based on EEQ partial charges (D4)


================================================================================

----- Orbital basis set information -----
Your calculation utilizes the basis: def2-mTZVPP
   Stefan Grimme, Andreas Hansen, Sebastian Ehlert, and Jan-Michael Mewes 
   J. Chem. Phys. 154, 064103 (2021). DOI: 10.1063/5.0040021

----- AuxJ basis set information -----
Your calculation utilizes the auxiliary basis: def2/J
   F. Weigend, Phys. Chem. Chem. Phys. 8, 1057 (2006).

================================================================================
                                        WARNINGS
                       Please study these warnings very carefully!
================================================================================

WARNING: Old DensityContainer found on disk!
         Will remove this file - 
         If you want to keep old densities, please start your calculation with a different basename. 



WARNING: SCAN, rSCAN, or r2SCAN functional requested.
  ===> : libXC variant has now been activated.



================================================================================
                                       INPUT FILE
================================================================================
NAME = sp_gas.inp
|  1> ! r2scan-3c def2/J RI DEFGRID2 scfconv6 printgap
|  2> %output
|  3>     printlevel normal
|  4> end
|  5> * xyz 0 1
|  6> C 2.1067153791 -3.1404535344 -2.8681213768
|  7> C 3.0758567089 -3.0439776655 -1.7004264643
|  8> O 2.9024079712 -1.7925127709 -1.0078934624
|  9> C 2.040950385 -1.7383916991 -0.0138602078
| 10> O 1.426781274 -2.6854224477 0.4244596122
| 11> C 1.8799067933 -0.31832182 0.4980151534
| 12> C 1.0761870138 0.4764693071 -0.5334764904
| 13> H 1.6794471452 0.6343118893 -1.4325692472
| 14> C 0.6134116046 1.8274168921 -0.0130380535
| 15> O -0.518534893 2.2349393751 -0.1778783669
| 16> O 1.5714784761 2.4640186649 0.6008851761
| 17> C 1.2795617782 3.7621627769 1.1618683661
| 18> C 1.4001280815 4.8509788558 0.1088556389
| 19> S -0.3940555431 -0.4249943588 -1.1292263646
| 20> P -1.7594080975 -0.0695155589 0.4606422784
| 21> S -1.1180248687 0.4312924451 2.2422007586
| 22> O -2.9222455894 0.8603032083 -0.0617173158
| 23> C -3.5775315004 0.6576529846 -1.3286066813
| 24> O -2.5317439527 -1.4805596233 0.4681111344
| 25> C -1.9373076921 -2.6459703305 1.0456129685
| 26> H 2.2612140049 -4.0805286448 -3.3869579806
| 27> H 1.081250905 -3.0967199258 -2.507509586
| 28> H 2.2671238154 -2.3179554432 -3.5590593803
| 29> H 4.1114310623 -3.0324028875 -2.0404640491
| 30> H 2.9155278439 -3.8606877054 -0.9912226247
| 31> H 2.8553042322 0.1501615306 0.6228931327
| 32> H 1.3547777123 -0.3476025246 1.4544882085
| 33> H 0.2727249141 3.7348126625 1.5883127759
| 34> H 2.0214336094 3.8815882205 1.9510387785
| 35> H 1.2455969956 5.8170924117 0.5775783413
| 36> H 2.3871887541 4.8258095139 -0.3442732899
| 37> H 0.6477491922 4.7109063678 -0.6639630491
| 38> H -4.3030998777 1.4635956396 -1.4002602958
| 39> H -4.0690205807 -0.3136759227 -1.3414685928
| 40> H -2.8488197347 0.7232483816 -2.1365805595
| 41> H -0.9790984266 -2.8701113946 0.5741614603
| 42> H -2.6462915498 -3.4511840813 0.8744582714
| 43> H -1.7810129169 -2.4909010507 2.1138705547
| 44> *
| 45> 
| 46>                          ****END OF INPUT****
================================================================================

                       ****************************
                       * Single Point Calculation *
                       ****************************

---------------------------------
CARTESIAN COORDINATES (ANGSTROEM)
---------------------------------
  C      2.106715   -3.140454   -2.868121
  C      3.075857   -3.043978   -1.700426
  O      2.902408   -1.792513   -1.007893
  C      2.040950   -1.738392   -0.013860
  O      1.426781   -2.685422    0.424460
  C      1.879907   -0.318322    0.498015
  C      1.076187    0.476469   -0.533476
  H      1.679447    0.634312   -1.432569
  C      0.613412    1.827417   -0.013038
  O     -0.518535    2.234939   -0.177878
  O      1.571478    2.464019    0.600885
  C      1.279562    3.762163    1.161868
  C      1.400128    4.850979    0.108856
  S     -0.394056   -0.424994   -1.129226
  P     -1.759408   -0.069516    0.460642
  S     -1.118025    0.431292    2.242201
  O     -2.922246    0.860303   -0.061717
  C     -3.577532    0.657653   -1.328607
  O     -2.531744   -1.480560    0.468111
  C     -1.937308   -2.645970    1.045613
  H      2.261214   -4.080529   -3.386958
  H      1.081251   -3.096720   -2.507510
  H      2.267124   -2.317955   -3.559059
  H      4.111431   -3.032403   -2.040464
  H      2.915528   -3.860688   -0.991223
  H      2.855304    0.150162    0.622893
  H      1.354778   -0.347603    1.454488
  H      0.272725    3.734813    1.588313
  H      2.021434    3.881588    1.951039
  H      1.245597    5.817092    0.577578
  H      2.387189    4.825810   -0.344273
  H      0.647749    4.710906   -0.663963
  H     -4.303100    1.463596   -1.400260
  H     -4.069021   -0.313676   -1.341469
  H     -2.848820    0.723248   -2.136581
  H     -0.979098   -2.870111    0.574161
  H     -2.646292   -3.451184    0.874458
  H     -1.781013   -2.490901    2.113871

----------------------------
CARTESIAN COORDINATES (A.U.)
----------------------------
  NO LB      ZA    FRAG     MASS         X           Y           Z
   0 C     6.0000    0    12.011    3.981115   -5.934597   -5.419964
   1 C     6.0000    0    12.011    5.812527   -5.752284   -3.213340
   2 O     8.0000    0    15.999    5.484756   -3.387358   -1.904643
   3 C     6.0000    0    12.011    3.856837   -3.285084   -0.026192
   4 O     8.0000    0    15.999    2.696226   -5.074713    0.802112
   5 C     6.0000    0    12.011    3.552509   -0.601541    0.941112
   6 C     6.0000    0    12.011    2.033699    0.900397   -1.008124
   7 H     1.0000    0     1.008    3.173695    1.198676   -2.707164
   8 C     6.0000    0    12.011    1.159180    3.453317   -0.024638
   9 O     8.0000    0    15.999   -0.979889    4.223423   -0.336141
  10 O     8.0000    0    15.999    2.969664    4.656320    1.135508
  11 C     6.0000    0    12.011    2.418021    7.109457    2.195613
  12 C     6.0000    0    12.011    2.645859    9.167022    0.205707
  13 S    16.0000    0    32.060   -0.744657   -0.803123   -2.133929
  14 P    15.0000    0    30.974   -3.324799   -0.131365    0.870488
  15 S    16.0000    0    32.060   -2.112761    0.815025    4.237145
  16 O     8.0000    0    15.999   -5.522244    1.625737   -0.116629
  17 C     6.0000    0    12.011   -6.760555    1.242784   -2.510703
  18 O     8.0000    0    15.999   -4.784303   -2.797852    0.884602
  19 C     6.0000    0    12.011   -3.660981   -5.000159    1.975922
  20 H     1.0000    0     1.008    4.273075   -7.711082   -6.400423
  21 H     1.0000    0     1.008    2.043268   -5.851953   -4.738506
  22 H     1.0000    0     1.008    4.284243   -4.380301   -6.725648
  23 H     1.0000    0     1.008    7.769479   -5.730411   -3.855918
  24 H     1.0000    0     1.008    5.509549   -7.295642   -1.873139
  25 H     1.0000    0     1.008    5.395743    0.283764    1.177097
  26 H     1.0000    0     1.008    2.560159   -0.656874    2.748584
  27 H     1.0000    0     1.008    0.515375    7.057773    3.001476
  28 H     1.0000    0     1.008    3.819956    7.335139    3.686929
  29 H     1.0000    0     1.008    2.353837   10.992712    1.091465
  30 H     1.0000    0     1.008    4.511133    9.119458   -0.650582
  31 H     1.0000    0     1.008    1.224069    8.902323   -1.254708
  32 H     1.0000    0     1.008   -8.131680    2.765795   -2.646108
  33 H     1.0000    0     1.008   -7.689335   -0.592762   -2.535008
  34 H     1.0000    0     1.008   -5.383489    1.366741   -4.037552
  35 H     1.0000    0     1.008   -1.850228   -5.423725    1.085008
  36 H     1.0000    0     1.008   -5.000766   -6.521793    1.652487
  37 H     1.0000    0     1.008   -3.365627   -4.707121    3.994636

--------------------------------
INTERNAL COORDINATES (ANGSTROEM)
--------------------------------
 C      0   0   0     0.000000000000     0.00000000     0.00000000
 C      1   0   0     1.520543954999     0.00000000     0.00000000
 O      2   1   0     1.440781317809   110.33487188     0.00000000
 C      3   2   1     1.316487893786   118.51681663    89.96418892
 O      4   3   2     1.210865475726   124.96483883     4.47821626
 C      4   3   2     1.518074400469   111.25206126   186.07664787
 C      6   4   3     1.530239664532   108.31786565    73.05628625
 H      7   6   4     1.094168566640   109.83069760   290.12293750
 C      7   6   4     1.519893622390   113.00192576   168.53393049
 O      9   7   6     1.214310411922   122.38732381   225.36731530
 O      9   7   6     1.303861832880   111.80634709    45.88687190
 C     11   9   7     1.443986022611   118.24928224   180.50562346
 C     12  11   9     1.519504027901   111.03390593   276.14550113
 S      7   6   4     1.824600731576   112.74938058    45.98559224
 P     14   7   6     2.125614047041   100.99625479    80.22426049
 S     15  14   7     1.958604534210   120.84808468   338.66341207
 O     15  14   7     1.577850917564   108.92426221   112.07179251
 C     17  15  14     1.440651034338   122.91883473    44.60472752
 O     15  14   7     1.608603061266    99.50759070   215.59652498
 C     19  15  14     1.430050681886   121.14159747    77.22467090
 H      1   2   3     1.084805263635   109.35981276   179.12624855
 H      1   2   3     1.087902054335   110.10123012   299.01848920
 H      1   2   3     1.086107407738   110.26448879    58.88318118
 H      2   1   3     1.090033841668   111.50813846   243.99479732
 H      2   1   3     1.093476437940   110.93020603   120.42316799
 H      6   4   3     1.089252644393   110.24231671   313.97237158
 H      6   4   3     1.091539562502   108.74801077   193.31055583
 H     12  11   9     1.093765667005   108.36581394    38.51395737
 H     12  11   9     1.089690869153   104.01930075   155.89001972
 H     13  12  11     1.084876136316   109.11131716   184.05214554
 H     13  12  11     1.086392237307   110.15346540   304.01802194
 H     13  12  11     1.087631840046   110.19639247    64.58880460
 H     18  17  15     1.086796795062   104.91196533   181.15712053
 H     18  17  15     1.088672030952   109.95247423    61.65722672
 H     18  17  15     1.090020816971   109.83383666   300.11725225
 H     20  19  15     1.091178600271   110.97383541   302.42796946
 H     20  19  15     1.086425894986   105.61191473   182.46960475
 H     20  19  15     1.090710231348   109.82948083    63.09036091

---------------------------
INTERNAL COORDINATES (A.U.)
---------------------------
 C      0   0   0     0.000000000000     0.00000000     0.00000000
 C      1   0   0     2.873411649538     0.00000000     0.00000000
 O      2   1   0     2.722682109529   110.33487188     0.00000000
 C      3   2   1     2.487801577878   118.51681663    89.96418892
 O      4   3   2     2.288204134142   124.96483883     4.47821626
 C      4   3   2     2.868744867803   111.25206126   186.07664787
 C      6   4   3     2.891733885228   108.31786565    73.05628625
 H      7   6   4     2.067678935294   109.83069760   290.12293750
 C      7   6   4     2.872182699010   113.00192576   168.53393049
 O      9   7   6     2.294714120101   122.38732381   225.36731530
 O      9   7   6     2.463941780615   111.80634709    45.88687190
 C     11   9   7     2.728738123945   118.24928224   180.50562346
 C     12  11   9     2.871446472123   111.03390593   276.14550113
 S      7   6   4     3.447995686431   112.74938058    45.98559224
 P     14   7   6     4.016828415324   100.99625479    80.22426049
 S     15  14   7     3.701226174314   120.84808468   338.66341207
 O     15  14   7     2.981706114353   108.92426221   112.07179251
 C     17  15  14     2.722435909448   122.91883473    44.60472752
 O     15  14   7     3.039819243981    99.50759070   215.59652498
 C     19  15  14     2.702404146391   121.14159747    77.22467090
 H      1   2   3     2.049984856907   109.35981276   179.12624855
 H      1   2   3     2.055836943223   110.10123012   299.01848920
 H      1   2   3     2.052445552649   110.26448879    58.88318118
 H      2   1   3     2.059865437459   111.50813846   243.99479732
 H      2   1   3     2.066371001602   110.93020603   120.42316799
 H      6   4   3     2.058389188551   110.24231671   313.97237158
 H      6   4   3     2.062710837468   108.74801077   193.31055583
 H     12  11   9     2.066917565324   108.36581394    38.51395737
 H     12  11   9     2.059217313333   104.01930075   155.89001972
 H     13  12  11     2.050118786864   109.11131716   184.05214554
 H     13  12  11     2.052983802528   110.15346540   304.01802194
 H     13  12  11     2.055326312219   110.19639247    64.58880460
 H     18  17  15     2.053748305891   104.91196533   181.15712053
 H     18  17  15     2.057291988160   109.95247423    61.65722672
 H     18  17  15     2.059840824349   109.83383666   300.11725225
 H     20  19  15     2.062028717708   110.97383541   302.42796946
 H     20  19  15     2.053047406324   105.61191473   182.46960475
 H     20  19  15     2.061143628713   109.82948083    63.09036091

---------------------
BASIS SET INFORMATION
---------------------
There are 5 groups of distinct atoms

 Group   1 Type C   : 11s6p1d contracted to 5s3p1d pattern {62111/411/1}
 Group   2 Type O   : 11s6p2d contracted to 5s3p2d pattern {62111/411/11}
 Group   3 Type H   : 4s1p contracted to 2s1p pattern {31/1}
 Group   4 Type S   : 14s9p2d contracted to 5s4p2d pattern {73211/6111/11}
 Group   5 Type P   : 14s9p2d contracted to 5s4p2d pattern {73211/6111/11}

Atom   0C    basis set group =>   1
Atom   1C    basis set group =>   1
Atom   2O    basis set group =>   2
Atom   3C    basis set group =>   1
Atom   4O    basis set group =>   2
Atom   5C    basis set group =>   1
Atom   6C    basis set group =>   1
Atom   7H    basis set group =>   3
Atom   8C    basis set group =>   1
Atom   9O    basis set group =>   2
Atom  10O    basis set group =>   2
Atom  11C    basis set group =>   1
Atom  12C    basis set group =>   1
Atom  13S    basis set group =>   4
Atom  14P    basis set group =>   5
Atom  15S    basis set group =>   4
Atom  16O    basis set group =>   2
Atom  17C    basis set group =>   1
Atom  18O    basis set group =>   2
Atom  19C    basis set group =>   1
Atom  20H    basis set group =>   3
Atom  21H    basis set group =>   3
Atom  22H    basis set group =>   3
Atom  23H    basis set group =>   3
Atom  24H    basis set group =>   3
Atom  25H    basis set group =>   3
Atom  26H    basis set group =>   3
Atom  27H    basis set group =>   3
Atom  28H    basis set group =>   3
Atom  29H    basis set group =>   3
Atom  30H    basis set group =>   3
Atom  31H    basis set group =>   3
Atom  32H    basis set group =>   3
Atom  33H    basis set group =>   3
Atom  34H    basis set group =>   3
Atom  35H    basis set group =>   3
Atom  36H    basis set group =>   3
Atom  37H    basis set group =>   3
---------------------------------
AUXILIARY/J BASIS SET INFORMATION
---------------------------------
There are 5 groups of distinct atoms

 Group   1 Type C   : 12s5p4d2f1g contracted to 6s4p3d1f1g pattern {711111/2111/211/2/1}
 Group   2 Type O   : 12s5p4d2f1g contracted to 6s4p3d1f1g pattern {711111/2111/211/2/1}
 Group   3 Type H   : 5s2p1d contracted to 3s1p1d pattern {311/2/1}
 Group   4 Type S   : 14s5p5d2f1g contracted to 8s4p3d1f1g pattern {71111111/2111/311/2/1}
 Group   5 Type P   : 14s5p5d2f1g contracted to 8s4p3d1f1g pattern {71111111/2111/311/2/1}

Atom   0C    basis set group =>   1
Atom   1C    basis set group =>   1
Atom   2O    basis set group =>   2
Atom   3C    basis set group =>   1
Atom   4O    basis set group =>   2
Atom   5C    basis set group =>   1
Atom   6C    basis set group =>   1
Atom   7H    basis set group =>   3
Atom   8C    basis set group =>   1
Atom   9O    basis set group =>   2
Atom  10O    basis set group =>   2
Atom  11C    basis set group =>   1
Atom  12C    basis set group =>   1
Atom  13S    basis set group =>   4
Atom  14P    basis set group =>   5
Atom  15S    basis set group =>   4
Atom  16O    basis set group =>   2
Atom  17C    basis set group =>   1
Atom  18O    basis set group =>   2
Atom  19C    basis set group =>   1
Atom  20H    basis set group =>   3
Atom  21H    basis set group =>   3
Atom  22H    basis set group =>   3
Atom  23H    basis set group =>   3
Atom  24H    basis set group =>   3
Atom  25H    basis set group =>   3
Atom  26H    basis set group =>   3
Atom  27H    basis set group =>   3
Atom  28H    basis set group =>   3
Atom  29H    basis set group =>   3
Atom  30H    basis set group =>   3
Atom  31H    basis set group =>   3
Atom  32H    basis set group =>   3
Atom  33H    basis set group =>   3
Atom  34H    basis set group =>   3
Atom  35H    basis set group =>   3
Atom  36H    basis set group =>   3
Atom  37H    basis set group =>   3

Checking for AutoStart:
The File: sp_gas.gbw exists
Trying to determine its content:
     ... Fine, the file contains calculation information
     ... Fine, the calculation information was read
     ... Fine, the file contains a basis set
     ... Fine, the basis set was read
     ... Fine, the file contains a geometry
     ... Fine, the geometry was read
     ... Fine, the file contains a set of orbitals
     ... Fine, the orbitals can be read
     => possible old guess file was deleted
     => GBW file was renamed to GES file
     => GES file is set as startup file
     => Guess is set to MORead
     ... now leaving AutoStart

------------------------------------------------------------------------------
                             ORCA STARTUP CALCULATIONS
                           -- RI-GTO INTEGRALS CHOSEN --
------------------------------------------------------------------------------
------------------------------------------------------------------------------
                   ___                                                        
                  /   \      - P O W E R E D   B Y -                         
                 /     \                                                     
                 |  |  |   _    _      __       _____    __    __             
                 |  |  |  | |  | |    /  \     |  _  \  |  |  /  |          
                  \  \/   | |  | |   /    \    | | | |  |  | /  /          
                 / \  \   | |__| |  /  /\  \   | |_| |  |  |/  /          
                |  |  |   |  __  | /  /__\  \  |    /   |      \           
                |  |  |   | |  | | |   __   |  |    \   |  |\   \          
                \     /   | |  | | |  |  |  |  | |\  \  |  | \   \       
                 \___/    |_|  |_| |__|  |__|  |_| \__\ |__|  \__/        
                                                                              
                      - O R C A' S   B I G   F R I E N D -                    
                                      &                                       
                       - I N T E G R A L  F E E D E R -                       
                                                                              
 v1 FN, 2020, v2 2021, v3 2022-2024                                           
------------------------------------------------------------------------------


----------------------
SHARK INTEGRAL PACKAGE
----------------------

Number of atoms                             ...     38
Number of basis functions                   ...    510
Number of shells                            ...    240
Maximum angular momentum                    ...      2
Integral batch strategy                     ... SHARK/LIBINT Hybrid
RI-J (if used) integral strategy            ... SPLIT-RIJ (Revised 2003 algorithm where possible)
Printlevel                                  ...      1
Contraction scheme used                     ... SEGMENTED contraction
Prescreening option                         ... SCHWARTZ
   Thresh                                   ... 1.000e-10
   Tcut                                     ... 1.000e-11
   Tpresel                                  ... 1.000e-11 
Coulomb Range Separation                    ... NOT USED
Exchange Range Separation                   ... NOT USED
Multipole approximations                    ... NOT USED
Finite Nucleus Model                        ... NOT USED
CABS basis                                  ... NOT available
Auxiliary Coulomb fitting basis             ... AVAILABLE
   # of basis functions in Aux-J            ...   1146
   # of shells in Aux-J                     ...    386
   Maximum angular momentum in Aux-J        ...      4
Auxiliary J/K fitting basis                 ... NOT available
Auxiliary Correlation fitting basis         ... NOT available
Auxiliary 'external' fitting basis          ... NOT available

Checking pre-screening integrals            ... done (  0.0 sec) Dimension = 240
Check shell pair data                       ... done (  0.0 sec)
Shell pair information
Shell pair cut-off parameter TPreSel        ...   1.0e-11
Total number of shell pairs                 ...     28920
Shell pairs after pre-screening             ...     20128
Total number of primitive shell pairs       ...    108409
Primitive shell pairs kept                  ...     46401
          la=0 lb=0:   5745 shell pairs
          la=1 lb=0:   7299 shell pairs
          la=1 lb=1:   2340 shell pairs
          la=2 lb=0:   2706 shell pairs
          la=2 lb=1:   1704 shell pairs
          la=2 lb=2:    334 shell pairs

Calculating one electron integrals          ... done (  0.1 sec)
Calculating RI/J V-Matrix + Cholesky decomp.... done (  0.1 sec)
Calculating Nuclear repulsion               ... done (  0.0 sec) ENN=   2185.352947564144 Eh

Diagonalization of the overlap matrix:
Smallest eigenvalue                        ... 3.873e-05
Time for diagonalization                   ...    0.031 sec
Threshold for overlap eigenvalues          ... 1.000e-07
Number of eigenvalues below threshold      ... 0
Time for construction of square roots      ...    0.018 sec
Total time needed                          ...    0.050 sec

-------------------
DFT GRID GENERATION
-------------------

General Integration Accuracy     IntAcc      ... 4.388
Radial Grid Type                 RadialGrid  ... OptM3 with GC (2021)
Angular Grid (max. ang.)         AngularGrid ... 4 (Lebedev-302)
Angular grid pruning method      GridPruning ... 4 (adaptive)
Weight generation scheme         WeightScheme... mBecke (2022)
Basis function cutoff            BFCut       ... 1.0000e-10
Integration weight cutoff        WCut        ... 1.0000e-14
Partially contracted basis set               ... off
Rotationally invariant grid construction     ... off
Angular grids for H and He will be reduced by one unit
Diffuse basis detected: some atoms will have their outermost
                        angular grid increased by 1.

Total number of grid points                  ...   180125
Total number of batches                      ...     2831
Average number of points per batch           ...       63
Average number of grid points per atom       ...     4740
Initializing property integral containers    ... done (  0.0 sec)

SHARK setup successfully completed in   2.6 seconds

Maximum memory used throughout the entire STARTUP-calculation: 98.3 MB
-------------------------------------------------------------------------------
                                 ORCA GUESS
                   Start orbitals & Density for SCF / CASSCF
-------------------------------------------------------------------------------

------------
SCF SETTINGS
------------
Hamiltonian:
 Density Functional     Method          .... DFT(GTOs)
  Functional kind                       .... Exchange
  Functional name                       .... Re-regularized SCAN exchange by Furness et al
  Functional family                     .... MGGA
  Functional refs                              
    [ 0] J. W. Furness, A. D. Kaplan, J. Ning, J. P. Perdew, and J. Sun.,  J. Phys. Chem. Lett. 11, 8208-8215 (2020), doi: 10.1021/acs.jpclett.0c02405
    [ 1] J. W. Furness, A. D. Kaplan, J. Ning, J. P. Perdew, and J. Sun.,  J. Phys. Chem. Lett. 11, 9248-9248 (2020), doi: 10.1021/acs.jpclett.0c03077
  Functional external parameters        .... 6
    Parameter  0 _c1        =  6.670000e-01 : c1 parameter        
    Parameter  1 _c2        =  8.000000e-01 : c2 parameter        
    Parameter  2 _d         =  1.240000e+00 : d parameter         
    Parameter  3 _k1        =  6.500000e-02 : k1 parameter        
    Parameter  4 _eta       =  1.000000e-03 : eta parameter       
    Parameter  5 _dp2       =  3.610000e-01 : dp2 parameter       
  Functional kind                       .... Correlation
  Functional name                       .... Re-regularized SCAN correlation by Furness et al
  Functional family                     .... MGGA
  Functional refs                              
    [ 0] J. W. Furness, A. D. Kaplan, J. Ning, J. P. Perdew, and J. Sun.,  J. Phys. Chem. Lett. 11, 8208-8215 (2020), doi: 10.1021/acs.jpclett.0c02405
    [ 1] J. W. Furness, A. D. Kaplan, J. Ning, J. P. Perdew, and J. Sun.,  J. Phys. Chem. Lett. 11, 9248-9248 (2020), doi: 10.1021/acs.jpclett.0c03077
  Functional external parameters        .... 1
    Parameter  0 _eta       =  1.000000e-03 : Regularization parameter
 Gradients option       PostSCFGGA      .... off
 RI-approximation to the Coulomb term is turned on
   Number of AuxJ basis functions       .... 1146


General Settings:
 Integral files         IntName         .... sp_gas
 Hartree-Fock type      HFTyp           .... RHF
 Total Charge           Charge          ....    0
 Multiplicity           Mult            ....    1
 Number of Electrons    NEL             ....  174
 Basis Dimension        Dim             ....  510
 Nuclear Repulsion      ENuc            ....   2185.3529475641 Eh

Convergence Acceleration:
 AO-DIIS                CNVDIIS         .... on
   Start iteration      DIISMaxIt       ....    12
   Startup error        DIISStart       ....  0.200000
   # of expansion vecs  DIISMaxEq       ....     5
   Bias factor          DIISBfac        ....   1.050
   Max. coefficient     DIISMaxC        ....  10.000
 MO-DIIS                CNVKDIIS        .... off
 Trust-Rad. Augm. Hess. CNVTRAH         .... auto
   Auto Start mean grad. ratio tolernc. ....  1.125000
   Auto Start start iteration           ....     1
   Auto Start num. interpolation iter.  ....    10
   Max. Number of Micro iterations      ....    24
   Max. Number of Macro iterations      .... Maxiter - #DIIS iter
   Number of Davidson start vectors     ....     2
   Converg. threshold    (grad. norm)   ....   3.330e-04
   Grad. Scal. Fac. for Micro threshold ....   0.100
   Minimum threshold for Micro iter.    ....   1.000e-02
   NR start threshold (gradient norm)   ....   1.000e-04
   Initial trust radius                 ....   0.400
   Minimum AH scaling param. (alpha)    ....   1.000
   Maximum AH scaling param. (alpha)    .... 1000.000
   Quad. conv. algorithm                .... NR
   White noise on init. David. guess    .... on
   Maximum white noise                  ....   0.010
   Pseudo random numbers                .... off
   Inactive MOs                         .... canonical
   Orbital update algorithm             .... Taylor
   Preconditioner                       .... Diag
   Full preconditioner red. dimension   ....   250
   COSX micro iterations for RIJONX calc.... off
 SOSCF                  CNVSOSCF        .... on
   Start iteration      SOSCFMaxIt      ....   150
   Startup grad/error   SOSCFStart      ....  0.003300
   Hessian update       SOSCFHessUp     .... L-BFGS
 Level Shifting         CNVShift        .... on
   Level shift para.    LevelShift      ....    0.2500
   Turn off err/grad.   ShiftErr        ....    0.0010
 Zerner damping         CNVZerner       .... off
 Static damping         CNVDamp         .... on
   Fraction old density DampFac         ....    0.7000
   Max. Damping (<1)    DampMax         ....    0.9800
   Min. Damping (>=0)   DampMin         ....    0.0000
   Turn off err/grad.   DampErr         ....    0.1000

SCF Procedure:
 Maximum # iterations   MaxIter         ....   125
 SCF integral mode      SCFMode         .... Direct
   Integral package                     .... SHARK and LIBINT hybrid scheme
 Reset frequency        DirectResetFreq ....    20
 Integral Threshold     Thresh          ....  1.000e-10 Eh
 Primitive CutOff       TCut            ....  1.000e-11 Eh

Convergence Tolerance:
 Convergence Check Mode ConvCheckMode   .... Total+1el-Energy
 Convergence forced     ConvForced      .... 0
 Energy Change          TolE            ....  1.000e-06 Eh
 1-El. energy change                    ....  1.000e-03 Eh
 Orbital Gradient       TolG            ....  3.330e-04
 Orbital Rotation angle TolX            ....  3.330e-04
 DIIS Error             TolErr          ....  1.000e-06

---------------------
INITIAL GUESS: MOREAD
---------------------
Guess MOs are being read from file: sp_gas.ges
Input Geometry matches current geometry (good)
Atom 0: N(Shells)= 9 and 6 - projection required
Input basis set needs projection
NBasis(read)= 316
NBasis(calc)= 510
Basis set overlap was calculated
Using GuessMode=FMatrix for the initial guess
C*T matrix was formed
Effective Fockian was calculated
Effective Fockian was diagonalized
Initial density was built
                      ------------------
                      INITIAL GUESS DONE (   0.1 sec)
                      ------------------
             **** ENERGY FILE WAS UPDATED (sp_gas.en.tmp) ****
Finished Guess after   0.2 sec
Maximum memory used throughout the entire GUESS-calculation: 57.8 MB

-------------------------------------------------------------------------------------------
                                      ORCA LEAN-SCF
                              memory conserving SCF solver
-------------------------------------------------------------------------------------------

----------------------------------------D-I-I-S--------------------------------------------
Iteration    Energy (Eh)           Delta-E    RMSDP     MaxDP     DIISErr   Damp  Time(sec)
-------------------------------------------------------------------------------------------
               ***  Starting incremental Fock matrix formation  ***
    1    -1980.9720448703883449     0.00e+00  3.98e-03  5.28e-01  6.32e-01  0.700   8.3
    2    -1981.1191936636250830    -1.47e-01  3.04e-03  3.72e-01  4.44e-01  0.700   7.0
    3    -1981.2230928987064544    -1.04e-01  2.18e-03  2.58e-01  3.12e-01  0.700   6.9
    4    -1981.2959895566727937    -7.29e-02  1.54e-03  1.79e-01  2.18e-01  0.700   6.8
                               ***Turning on AO-DIIS***
    5    -1981.3470962228548160    -5.11e-02  1.10e-03  1.25e-01  1.53e-01  0.700   6.6
    6    -1981.3829057713810471    -3.58e-02  7.72e-04  8.71e-02  1.07e-01  0.700   6.5
    7    -1981.4080022583057143    -2.51e-02  5.42e-04  6.10e-02  7.48e-02  0.700   6.4
    8    -1981.4255819979953230    -1.76e-02  1.27e-03  1.42e-01  5.24e-02  0.000   6.3
                              *** Initializing SOSCF ***
---------------------------------------S-O-S-C-F--------------------------------------
Iteration    Energy (Eh)           Delta-E    RMSDP     MaxDP     MaxGrad    Time(sec)
--------------------------------------------------------------------------------------
    9    -1981.4666422148548008    -4.11e-02  5.81e-06  2.85e-04  1.42e-04     6.7
               *** Restarting incremental Fock matrix formation ***
   10    -1981.4666424492452279    -2.34e-07  6.03e-06  2.47e-04  5.96e-05     8.4
                  *** Gradient check signals convergence ***

               *****************************************************
               *                     SUCCESS                       *
               *           SCF CONVERGED AFTER  10 CYCLES          *
               *****************************************************

             **** ENERGY FILE WAS UPDATED (sp_gas.en.tmp) ****

----------------
TOTAL SCF ENERGY
----------------

Total Energy       :      -1981.46664244924523 Eh          -53918.44850 eV

Components:
Nuclear Repulsion  :       2185.35294756414442 Eh           59466.47692 eV
Electronic Energy  :      -4166.81959001338964 Eh         -113384.92542 eV
One Electron Energy:      -7077.10513916787113 Eh         -192577.82130 eV
Two Electron Energy:       2910.28554915448149 Eh           79192.89588 eV

Virial components:
Potential Energy   :      -3956.64396213266627 Eh         -107665.75583 eV
Kinetic Energy     :       1975.17731968342082 Eh           53747.30733 eV
Virial Ratio       :          2.00318418134066

DFT components:
N(Alpha)           :       86.999961564208 electrons
N(Beta)            :       86.999961564208 electrons
N(Total)           :      173.999923128415 electrons
E(X)               :     -181.419348392277 Eh       
E(C)               :       -5.974402075335 Eh       
E(XC)              :     -187.393750467611 Eh       

---------------
SCF CONVERGENCE
---------------

  Last Energy change         ...    2.3439e-07  Tolerance :   1.0000e-06
  Last MAX-Density change    ...    2.4679e-04  Tolerance :   1.0000e-05
  Last RMS-Density change    ...    6.0298e-06  Tolerance :   1.0000e-06
  Last DIIS Error            ...    1.4230e-04  Tolerance :   1.0000e-06
  Last Orbital Gradient      ...    5.9644e-05  Tolerance :   3.3300e-04
  Last Orbital Rotation      ...    2.3650e-04  Tolerance :   3.3300e-04


----------------
ORBITAL ENERGIES
----------------

  NO   OCC          E(Eh)            E(eV) 
   0   2.0000     -88.570360     -2410.1220 
   1   2.0000     -88.508520     -2408.4393 
   2   2.0000     -76.906369     -2092.7287 
   3   2.0000     -19.014112      -517.4003 
   4   2.0000     -19.006610      -517.1961 
   5   2.0000     -18.981403      -516.5102 
   6   2.0000     -18.975569      -516.3515 
   7   2.0000     -18.939652      -515.3741 
   8   2.0000     -18.934453      -515.2327 
   9   2.0000     -10.169700      -276.7316 
  10   2.0000     -10.160581      -276.4835 
  11   2.0000     -10.103124      -274.9200 
  12   2.0000     -10.099357      -274.8175 
  13   2.0000     -10.097607      -274.7699 
  14   2.0000     -10.088053      -274.5099 
  15   2.0000     -10.070833      -274.0413 
  16   2.0000     -10.052779      -273.5500 
  17   2.0000     -10.034682      -273.0576 
  18   2.0000     -10.034000      -273.0390 
  19   2.0000      -7.865004      -214.0176 
  20   2.0000      -7.803577      -212.3461 
  21   2.0000      -6.584172      -179.1644 
  22   2.0000      -5.812063      -158.1543 
  23   2.0000      -5.808863      -158.0672 
  24   2.0000      -5.801843      -157.8762 
  25   2.0000      -5.751542      -156.5074 
  26   2.0000      -5.743978      -156.3016 
  27   2.0000      -5.743092      -156.2775 
  28   2.0000      -4.729807      -128.7046 
  29   2.0000      -4.729350      -128.6921 
  30   2.0000      -4.727714      -128.6476 
  31   2.0000      -1.092027       -29.7156 
  32   2.0000      -1.082549       -29.4577 
  33   2.0000      -1.037431       -28.2299 
  34   2.0000      -0.995092       -27.0778 
  35   2.0000      -0.992098       -26.9963 
  36   2.0000      -0.984497       -26.7895 
  37   2.0000      -0.812613       -22.1123 
  38   2.0000      -0.756277       -20.5793 
  39   2.0000      -0.749388       -20.3919 
  40   2.0000      -0.723233       -19.6802 
  41   2.0000      -0.693357       -18.8672 
  42   2.0000      -0.664776       -18.0895 
  43   2.0000      -0.657938       -17.9034 
  44   2.0000      -0.647908       -17.6305 
  45   2.0000      -0.630324       -17.1520 
  46   2.0000      -0.602223       -16.3873 
  47   2.0000      -0.538500       -14.6533 
  48   2.0000      -0.531899       -14.4737 
  49   2.0000      -0.523934       -14.2570 
  50   2.0000      -0.504060       -13.7162 
  51   2.0000      -0.481421       -13.1001 
  52   2.0000      -0.478142       -13.0109 
  53   2.0000      -0.469387       -12.7727 
  54   2.0000      -0.459211       -12.4958 
  55   2.0000      -0.452159       -12.3039 
  56   2.0000      -0.444979       -12.1085 
  57   2.0000      -0.439631       -11.9630 
  58   2.0000      -0.433251       -11.7894 
  59   2.0000      -0.421694       -11.4749 
  60   2.0000      -0.416310       -11.3284 
  61   2.0000      -0.414310       -11.2740 
  62   2.0000      -0.409629       -11.1466 
  63   2.0000      -0.405653       -11.0384 
  64   2.0000      -0.396471       -10.7885 
  65   2.0000      -0.381660       -10.3855 
  66   2.0000      -0.377434       -10.2705 
  67   2.0000      -0.371279       -10.1030 
  68   2.0000      -0.363792        -9.8993 
  69   2.0000      -0.351427        -9.5628 
  70   2.0000      -0.348450        -9.4818 
  71   2.0000      -0.345772        -9.4089 
  72   2.0000      -0.341768        -9.3000 
  73   2.0000      -0.326518        -8.8850 
  74   2.0000      -0.318544        -8.6680 
  75   2.0000      -0.314453        -8.5567 
  76   2.0000      -0.308776        -8.4022 
  77   2.0000      -0.302072        -8.2198 
  78   2.0000      -0.285349        -7.7647 
  79   2.0000      -0.281191        -7.6516 
  80   2.0000      -0.278427        -7.5764 
  81   2.0000      -0.263810        -7.1786 
  82   2.0000      -0.256703        -6.9852 
  83   2.0000      -0.238076        -6.4784 
  84   2.0000      -0.229974        -6.2579 
  85   2.0000      -0.208700        -5.6790 
  86   2.0000      -0.203102        -5.5267 
  87   0.0000      -0.044049        -1.1986 
  88   0.0000      -0.033125        -0.9014 
  89   0.0000      -0.013598        -0.3700 
  90   0.0000       0.004467         0.1215 
  91   0.0000       0.023943         0.6515 
  92   0.0000       0.048792         1.3277 
  93   0.0000       0.061549         1.6748 
  94   0.0000       0.070471         1.9176 
  95   0.0000       0.083630         2.2757 
  96   0.0000       0.086388         2.3507 
  97   0.0000       0.090238         2.4555 
*Only the first 10 virtual orbitals were printed.

                    ********************************
                    * MULLIKEN POPULATION ANALYSIS *
                    ********************************

-----------------------
MULLIKEN ATOMIC CHARGES
-----------------------
   0 C :   -0.477034
   1 C :   -0.128453
   2 O :   -0.165820
   3 C :    0.393945
   4 O :   -0.393796
   5 C :   -0.475222
   6 C :    0.053897
   7 H :    0.196840
   8 C :    0.277614
   9 O :   -0.390697
  10 O :   -0.155074
  11 C :   -0.137716
  12 C :   -0.475073
  13 S :   -0.191569
  14 P :    0.796201
  15 S :   -0.459522
  16 O :   -0.301345
  17 C :   -0.301158
  18 O :   -0.363237
  19 C :   -0.300950
  20 H :    0.149250
  21 H :    0.176396
  22 H :    0.152807
  23 H :    0.149331
  24 H :    0.173749
  25 H :    0.175620
  26 H :    0.220709
  27 H :    0.183209
  28 H :    0.152817
  29 H :    0.151678
  30 H :    0.151175
  31 H :    0.177601
  32 H :    0.155105
  33 H :    0.168062
  34 H :    0.166499
  35 H :    0.182920
  36 H :    0.142007
  37 H :    0.169230
Sum of atomic charges:   -0.0000000

--------------------------------
MULLIKEN REDUCED ORBITAL CHARGES
--------------------------------
  0 C s       :     3.334081  s :     3.334081
      pz      :     0.989878  p :     3.117320
      px      :     1.035649
      py      :     1.091793
      dz2     :     0.003626  d :     0.025633
      dxz     :     0.006312
      dyz     :     0.007087
      dx2y2   :     0.007460
      dxy     :     0.001149

  1 C s       :     3.252071  s :     3.252071
      pz      :     0.959587  p :     2.823376
      px      :     1.043037
      py      :     0.820752
      dz2     :     0.008022  d :     0.053006
      dxz     :     0.008499
      dyz     :     0.016116
      dx2y2   :     0.014399
      dxy     :     0.005971

  2 O s       :     3.694636  s :     3.694636
      pz      :     1.392079  p :     4.443928
      px      :     1.563252
      py      :     1.488598
      dz2     :     0.004653  d :     0.027256
      dxz     :     0.005255
      dyz     :     0.002741
      dx2y2   :     0.009771
      dxy     :     0.004835

  3 C s       :     3.174876  s :     3.174876
      pz      :     0.763683  p :     2.304048
      px      :     0.740328
      py      :     0.800036
      dz2     :     0.026467  d :     0.127131
      dxz     :     0.022374
      dyz     :     0.024331
      dx2y2   :     0.033644
      dxy     :     0.020315

  4 O s       :     3.835808  s :     3.835808
      pz      :     1.586678  p :     4.536268
      px      :     1.475432
      py      :     1.474158
      dz2     :     0.002510  d :     0.021719
      dxz     :     0.003546
      dyz     :     0.005360
      dx2y2   :     0.002022
      dxy     :     0.008281

  5 C s       :     3.367044  s :     3.367044
      pz      :     1.020764  p :     3.074458
      px      :     1.106483
      py      :     0.947212
      dz2     :     0.007082  d :     0.033720
      dxz     :     0.006103
      dyz     :     0.006697
      dx2y2   :     0.007948
      dxy     :     0.005890

  6 C s       :     2.919533  s :     2.919533
      pz      :     1.083571  p :     2.982214
      px      :     0.937697
      py      :     0.960946
      dz2     :     0.007360  d :     0.044356
      dxz     :     0.010457
      dyz     :     0.007633
      dx2y2   :     0.009537
      dxy     :     0.009368

  7 H s       :     0.785123  s :     0.785123
      pz      :     0.008833  p :     0.018036
      px      :     0.005859
      py      :     0.003344

  8 C s       :     3.208041  s :     3.208041
      pz      :     0.751255  p :     2.386386
      px      :     0.758421
      py      :     0.876710
      dz2     :     0.013366  d :     0.127959
      dxz     :     0.031868
      dyz     :     0.010160
      dx2y2   :     0.033073
      dxy     :     0.039491

  9 O s       :     3.838276  s :     3.838276
      pz      :     1.528679  p :     4.523922
      px      :     1.303785
      py      :     1.691458
      dz2     :     0.004051  d :     0.028500
      dxz     :     0.009316
      dyz     :     0.004890
      dx2y2   :     0.003082
      dxy     :     0.007160

 10 O s       :     3.697609  s :     3.697609
      pz      :     1.549630  p :     4.427896
      px      :     1.570110
      py      :     1.308156
      dz2     :     0.006978  d :     0.029569
      dxz     :     0.009768
      dyz     :     0.003118
      dx2y2   :     0.007199
      dxy     :     0.002506

 11 C s       :     3.260768  s :     3.260768
      pz      :     0.962101  p :     2.824310
      px      :     1.127911
      py      :     0.734298
      dz2     :     0.006918  d :     0.052638
      dxz     :     0.010026
      dyz     :     0.014033
      dx2y2   :     0.014857
      dxy     :     0.006804

 12 C s       :     3.326772  s :     3.326772
      pz      :     1.018915  p :     3.122683
      px      :     1.095510
      py      :     1.008257
      dz2     :     0.002402  d :     0.025618
      dxz     :     0.007483
      dyz     :     0.007259
      dx2y2   :     0.006905
      dxy     :     0.001569

 13 S s       :     5.932681  s :     5.932681
      pz      :     3.449252  p :    10.161614
      px      :     3.058116
      py      :     3.654246
      dz2     :     0.017824  d :     0.097274
      dxz     :     0.027981
      dyz     :     0.014965
      dx2y2   :     0.014125
      dxy     :     0.022380

 14 P s       :     5.097372  s :     5.097372
      pz      :     2.805627  p :     8.389340
      px      :     2.830342
      py      :     2.753371
      dz2     :     0.154669  d :     0.717088
      dxz     :     0.154187
      dyz     :     0.156813
      dx2y2   :     0.119497
      dxy     :     0.131922

 15 S s       :     5.908307  s :     5.908307
      pz      :     3.169625  p :    10.489056
      px      :     3.635717
      py      :     3.683713
      dz2     :     0.026334  d :     0.062160
      dxz     :     0.015143
      dyz     :     0.013555
      dx2y2   :     0.003657
      dxy     :     0.003471

 16 O s       :     3.750253  s :     3.750253
      pz      :     1.381245  p :     4.542639
      px      :     1.463546
      py      :     1.697848
      dz2     :    -0.001419  d :     0.008453
      dxz     :    -0.003768
      dyz     :     0.000864
      dx2y2   :     0.002650
      dxy     :     0.010125

 17 C s       :     3.331648  s :     3.331648
      pz      :     0.782877  p :     2.926037
      px      :     1.021854
      py      :     1.121307
      dz2     :     0.013591  d :     0.043473
      dxz     :     0.012683
      dyz     :     0.005386
      dx2y2   :     0.003122
      dxy     :     0.008692

 18 O s       :     3.764059  s :     3.764059
      pz      :     1.749162  p :     4.570183
      px      :     1.664585
      py      :     1.156435
      dz2     :     0.005138  d :     0.028995
      dxz     :     0.003635
      dyz     :    -0.006345
      dx2y2   :     0.003237
      dxy     :     0.023330

 19 C s       :     3.328735  s :     3.328735
      pz      :     1.060977  p :     2.928018
      px      :     1.061121
      py      :     0.805920
      dz2     :     0.010962  d :     0.044197
      dxz     :     0.004979
      dyz     :     0.008044
      dx2y2   :     0.007932
      dxy     :     0.012279

 20 H s       :     0.832258  s :     0.832258
      pz      :     0.005497  p :     0.018491
      px      :     0.003773
      py      :     0.009222

 21 H s       :     0.805310  s :     0.805310
      pz      :     0.004295  p :     0.018294
      px      :     0.010435
      py      :     0.003564

 22 H s       :     0.828948  s :     0.828948
      pz      :     0.006644  p :     0.018245
      px      :     0.003725
      py      :     0.007876

 23 H s       :     0.833260  s :     0.833260
      pz      :     0.004002  p :     0.017409
      px      :     0.010904
      py      :     0.002504

 24 H s       :     0.808267  s :     0.808267
      pz      :     0.006903  p :     0.017984
      px      :     0.003691
      py      :     0.007390

 25 H s       :     0.806155  s :     0.806155
      pz      :     0.003569  p :     0.018225
      px      :     0.009696
      py      :     0.004961

 26 H s       :     0.760435  s :     0.760435
      pz      :     0.010080  p :     0.018856
      px      :     0.005933
      py      :     0.002843

 27 H s       :     0.798958  s :     0.798958
      pz      :     0.004388  p :     0.017833
      px      :     0.011144
      py      :     0.002300

 28 H s       :     0.829770  s :     0.829770
      pz      :     0.007880  p :     0.017413
      px      :     0.007049
      py      :     0.002484

 29 H s       :     0.829832  s :     0.829832
      pz      :     0.004810  p :     0.018489
      px      :     0.003924
      py      :     0.009755

 30 H s       :     0.830617  s :     0.830617
      pz      :     0.005004  p :     0.018208
      px      :     0.009675
      py      :     0.003528

 31 H s       :     0.804189  s :     0.804189
      pz      :     0.007295  p :     0.018210
      px      :     0.007284
      py      :     0.003632

 32 H s       :     0.827222  s :     0.827222
      pz      :     0.002538  p :     0.017673
      px      :     0.007085
      py      :     0.008050

 33 H s       :     0.814230  s :     0.814230
      pz      :     0.002450  p :     0.017707
      px      :     0.005023
      py      :     0.010234

 34 H s       :     0.815451  s :     0.815451
      pz      :     0.007407  p :     0.018049
      px      :     0.007046
      py      :     0.003596

 35 H s       :     0.798531  s :     0.798531
      pz      :     0.004631  p :     0.018549
      px      :     0.010951
      py      :     0.002967

 36 H s       :     0.840251  s :     0.840251
      pz      :     0.003688  p :     0.017742
      px      :     0.006600
      py      :     0.007453

 37 H s       :     0.812780  s :     0.812780
      pz      :     0.011607  p :     0.017989
      px      :     0.003633
      py      :     0.002749


------------------------
MULLIKEN OVERLAP CHARGES
------------------------
B(  0-C ,  1-C ) :   0.5139 B(  0-C ,  2-O ) :  -0.1133 B(  0-C , 20-H ) :   0.7992 
B(  0-C , 21-H ) :   0.8419 B(  0-C , 22-H ) :   0.8284 B(  0-C , 23-H ) :  -0.0542 
B(  0-C , 24-H ) :  -0.0751 B(  1-C ,  2-O ) :   0.3085 B(  1-C ,  3-C ) :  -0.2029 
B(  1-C , 20-H ) :  -0.0690 B(  1-C , 21-H ) :  -0.0882 B(  1-C , 22-H ) :  -0.0647 
B(  1-C , 23-H ) :   0.8014 B(  1-C , 24-H ) :   0.8679 B(  2-O ,  3-C ) :   0.2270 
B(  2-O ,  4-O ) :  -0.1905 B(  2-O ,  5-C ) :  -0.0935 B(  2-O ,  6-C ) :   0.0677 
B(  2-O , 23-H ) :  -0.0950 B(  2-O , 24-H ) :  -0.0604 B(  3-C ,  4-O ) :   0.8806 
B(  3-C ,  5-C ) :   0.2180 B(  3-C ,  6-C ) :  -0.0816 B(  3-C , 26-H ) :  -0.1413 
B(  4-O ,  5-C ) :  -0.1187 B(  5-C ,  6-C ) :   0.2557 B(  5-C ,  8-C ) :  -0.0616 
B(  5-C , 10-O ) :   0.0761 B(  5-C , 25-H ) :   0.7352 B(  5-C , 26-H ) :   0.9134 
B(  6-C ,  7-H ) :   0.7181 B(  6-C ,  8-C ) :   0.3016 B(  6-C ,  9-O ) :  -0.2241 
B(  6-C , 10-O ) :  -0.1926 B(  6-C , 13-S ) :   0.3634 B(  6-C , 14-P ) :  -0.0847 
B(  6-C , 26-H ) :  -0.0628 B(  7-H , 13-S ) :  -0.0655 B(  8-C ,  9-O ) :   0.8796 
B(  8-C , 10-O ) :   0.4731 B(  8-C , 11-C ) :  -0.2373 B(  8-C , 13-S ) :  -0.1208 
B(  8-C , 15-S ) :   0.0744 B(  9-O , 10-O ) :  -0.1968 B(  9-O , 14-P ) :   0.0757 
B(  9-O , 15-S ) :  -0.0745 B( 10-O , 11-C ) :   0.3161 B( 10-O , 12-C ) :  -0.1097 
B( 10-O , 27-H ) :  -0.0570 B( 10-O , 28-H ) :  -0.0942 B( 11-C , 12-C ) :   0.5123 
B( 11-C , 27-H ) :   0.8750 B( 11-C , 28-H ) :   0.7978 B( 11-C , 29-H ) :  -0.0662 
B( 11-C , 30-H ) :  -0.0627 B( 11-C , 31-H ) :  -0.0903 B( 12-C , 27-H ) :  -0.0842 
B( 12-C , 28-H ) :  -0.0508 B( 12-C , 29-H ) :   0.7970 B( 12-C , 30-H ) :   0.8218 
B( 12-C , 31-H ) :   0.8490 B( 13-S , 14-P ) :   0.6001 B( 13-S , 15-S ) :  -0.0985 
B( 13-S , 16-O ) :  -0.0774 B( 13-S , 18-O ) :  -0.1112 B( 14-P , 15-S ) :   1.2261 
B( 14-P , 16-O ) :   0.7454 B( 14-P , 17-C ) :  -0.2058 B( 14-P , 18-O ) :   0.4323 
B( 14-P , 19-C ) :  -0.1660 B( 15-S , 16-O ) :  -0.0965 B( 15-S , 18-O ) :  -0.1004 
B( 16-O , 17-C ) :   0.3249 B( 16-O , 18-O ) :  -0.2338 B( 16-O , 32-H ) :  -0.0814 
B( 16-O , 33-H ) :  -0.0797 B( 16-O , 34-H ) :  -0.0856 B( 17-C , 32-H ) :   0.7804 
B( 17-C , 33-H ) :   0.8291 B( 17-C , 34-H ) :   0.8156 B( 18-O , 19-C ) :   0.3646 
B( 18-O , 35-H ) :  -0.0670 B( 18-O , 36-H ) :  -0.0965 B( 18-O , 37-H ) :  -0.0857 
B( 19-C , 35-H ) :   0.7983 B( 19-C , 36-H ) :   0.7986 B( 19-C , 37-H ) :   0.8226 
B( 33-H , 34-H ) :  -0.0651 B( 35-H , 37-H ) :  -0.0565 


                     *******************************
                     * LOEWDIN POPULATION ANALYSIS *
                     *******************************

----------------------
LOEWDIN ATOMIC CHARGES
----------------------
   0 C :   -0.390478
   1 C :    0.030409
   2 O :   -0.590792
   3 C :    0.339331
   4 O :   -0.440920
   5 C :   -0.208563
   6 C :   -0.189794
   7 H :    0.204354
   8 C :    0.341633
   9 O :   -0.456409
  10 O :   -0.570271
  11 C :    0.035841
  12 C :   -0.388618
  13 S :    0.222058
  14 P :    0.418323
  15 S :   -0.074828
  16 O :   -0.640262
  17 C :   -0.051661
  18 O :   -0.691911
  19 C :   -0.062912
  20 H :    0.159946
  21 H :    0.166696
  22 H :    0.156734
  23 H :    0.178249
  24 H :    0.190771
  25 H :    0.189599
  26 H :    0.200779
  27 H :    0.194990
  28 H :    0.180854
  29 H :    0.161634
  30 H :    0.157132
  31 H :    0.166929
  32 H :    0.180360
  33 H :    0.172114
  34 H :    0.173017
  35 H :    0.188067
  36 H :    0.172046
  37 H :    0.175551

-------------------------------
LOEWDIN REDUCED ORBITAL CHARGES
-------------------------------
  0 C s       :     2.973786  s :     2.973786
      pz      :     1.084533  p :     3.356208
      px      :     1.123950
      py      :     1.147725
      dz2     :     0.007314  d :     0.060484
      dxz     :     0.014475
      dyz     :     0.017882
      dx2y2   :     0.018648
      dxy     :     0.002165

  1 C s       :     2.870952  s :     2.870952
      pz      :     1.010177  p :     2.979664
      px      :     1.076807
      py      :     0.892680
      dz2     :     0.015811  d :     0.118975
      dxz     :     0.020087
      dyz     :     0.036776
      dx2y2   :     0.034919
      dxy     :     0.011383

  2 O s       :     3.456631  s :     3.456631
      pz      :     1.499115  p :     4.654936
      px      :     1.605569
      py      :     1.550252
      dz2     :     0.084915  d :     0.479224
      dxz     :     0.095803
      dyz     :     0.123784
      dx2y2   :     0.088020
      dxy     :     0.086702

  3 C s       :     2.737300  s :     2.737300
      pz      :     0.827566  p :     2.646187
      px      :     0.820124
      py      :     0.998497
      dz2     :     0.054608  d :     0.277181
      dxz     :     0.056141
      dyz     :     0.050809
      dx2y2   :     0.071291
      dxy     :     0.044333

  4 O s       :     3.546844  s :     3.546844
      pz      :     1.574838  p :     4.660568
      px      :     1.496165
      py      :     1.589565
      dz2     :     0.034977  d :     0.233508
      dxz     :     0.037496
      dyz     :     0.043599
      dx2y2   :     0.063293
      dxy     :     0.054143

  5 C s       :     2.924667  s :     2.924667
      pz      :     1.098769  p :     3.211035
      px      :     1.109860
      py      :     1.002406
      dz2     :     0.015611  d :     0.072861
      dxz     :     0.014256
      dyz     :     0.013577
      dx2y2   :     0.016263
      dxy     :     0.013155

  6 C s       :     2.913741  s :     2.913741
      pz      :     1.104455  p :     3.183945
      px      :     1.063409
      py      :     1.016081
      dz2     :     0.013860  d :     0.092108
      dxz     :     0.024037
      dyz     :     0.015862
      dx2y2   :     0.018071
      dxy     :     0.020278

  7 H s       :     0.750125  s :     0.750125
      pz      :     0.022530  p :     0.045521
      px      :     0.014392
      py      :     0.008599

  8 C s       :     2.728717  s :     2.728717
      pz      :     0.778906  p :     2.648818
      px      :     0.955335
      py      :     0.914577
      dz2     :     0.029047  d :     0.280832
      dxz     :     0.067686
      dyz     :     0.020170
      dx2y2   :     0.076690
      dxy     :     0.087239

  9 O s       :     3.540524  s :     3.540524
      pz      :     1.502957  p :     4.622505
      px      :     1.458338
      py      :     1.661210
      dz2     :     0.040091  d :     0.293380
      dxz     :     0.051080
      dyz     :     0.039370
      dx2y2   :     0.079467
      dxy     :     0.083372

 10 O s       :     3.447301  s :     3.447301
      pz      :     1.595847  p :     4.640370
      px      :     1.612853
      py      :     1.431671
      dz2     :     0.066655  d :     0.482599
      dxz     :     0.071566
      dyz     :     0.117222
      dx2y2   :     0.122571
      dxy     :     0.104585

 11 C s       :     2.871940  s :     2.871940
      pz      :     1.026828  p :     2.974328
      px      :     1.106009
      py      :     0.841491
      dz2     :     0.013315  d :     0.117891
      dxz     :     0.023169
      dyz     :     0.032319
      dx2y2   :     0.035227
      dxy     :     0.013861

 12 C s       :     2.972941  s :     2.972941
      pz      :     1.116548  p :     3.355288
      px      :     1.157292
      py      :     1.081448
      dz2     :     0.005293  d :     0.060389
      dxz     :     0.018181
      dyz     :     0.017039
      dx2y2   :     0.017080
      dxy     :     0.002796

 13 S s       :     5.406738  s :     5.406738
      pz      :     3.432447  p :    10.075993
      px      :     3.087518
      py      :     3.556028
      dz2     :     0.046675  d :     0.295211
      dxz     :     0.095966
      dyz     :     0.030869
      dx2y2   :     0.054579
      dxy     :     0.067122

 14 P s       :     4.655994  s :     4.655994
      pz      :     2.891486  p :     8.364327
      px      :     2.764192
      py      :     2.708650
      dz2     :     0.330731  d :     1.561356
      dxz     :     0.360476
      dyz     :     0.286001
      dx2y2   :     0.259073
      dxy     :     0.325075

 15 S s       :     5.554336  s :     5.554336
      pz      :     3.212178  p :    10.383992
      px      :     3.563336
      py      :     3.608478
      dz2     :     0.058075  d :     0.136500
      dxz     :     0.031935
      dyz     :     0.031443
      dx2y2   :     0.007226
      dxy     :     0.007821

 16 O s       :     3.468501  s :     3.468501
      pz      :     1.482228  p :     4.715811
      px      :     1.563194
      py      :     1.670388
      dz2     :     0.113776  d :     0.455949
      dxz     :     0.118397
      dyz     :     0.077478
      dx2y2   :     0.062007
      dxy     :     0.084291

 17 C s       :     2.915152  s :     2.915152
      pz      :     0.869461  p :     3.032939
      px      :     1.048139
      py      :     1.115338
      dz2     :     0.032345  d :     0.103570
      dxz     :     0.030617
      dyz     :     0.011525
      dx2y2   :     0.006769
      dxy     :     0.022313

 18 O s       :     3.472680  s :     3.472680
      pz      :     1.700985  p :     4.746494
      px      :     1.653412
      py      :     1.392096
      dz2     :     0.073387  d :     0.472738
      dxz     :     0.049703
      dyz     :     0.097650
      dx2y2   :     0.116354
      dxy     :     0.135644

 19 C s       :     2.915072  s :     2.915072
      pz      :     1.074018  p :     3.042164
      px      :     1.073442
      py      :     0.894704
      dz2     :     0.027422  d :     0.105676
      dxz     :     0.011650
      dyz     :     0.017287
      dx2y2   :     0.018728
      dxy     :     0.030589

 20 H s       :     0.795974  s :     0.795974
      pz      :     0.012732  p :     0.044080
      px      :     0.008591
      py      :     0.022757

 21 H s       :     0.789043  s :     0.789043
      pz      :     0.010084  p :     0.044261
      px      :     0.026361
      py      :     0.007815

 22 H s       :     0.799742  s :     0.799742
      pz      :     0.015666  p :     0.043524
      px      :     0.008507
      py      :     0.019351

 23 H s       :     0.781741  s :     0.781741
      pz      :     0.008827  p :     0.040011
      px      :     0.025670
      py      :     0.005514

 24 H s       :     0.765595  s :     0.765595
      pz      :     0.017992  p :     0.043634
      px      :     0.008644
      py      :     0.016998

 25 H s       :     0.765277  s :     0.765277
      pz      :     0.008490  p :     0.045124
      px      :     0.024675
      py      :     0.011959

 26 H s       :     0.751707  s :     0.751707
      pz      :     0.026318  p :     0.047514
      px      :     0.014765
      py      :     0.006430

 27 H s       :     0.761967  s :     0.761967
      pz      :     0.009998  p :     0.043043
      px      :     0.027286
      py      :     0.005759

 28 H s       :     0.779203  s :     0.779203
      pz      :     0.017572  p :     0.039943
      px      :     0.017344
      py      :     0.005027

 29 H s       :     0.794245  s :     0.794245
      pz      :     0.011510  p :     0.044121
      px      :     0.008701
      py      :     0.023909

 30 H s       :     0.799348  s :     0.799348
      pz      :     0.011642  p :     0.043520
      px      :     0.024259
      py      :     0.007620

 31 H s       :     0.788788  s :     0.788788
      pz      :     0.018139  p :     0.044282
      px      :     0.018045
      py      :     0.008098

 32 H s       :     0.779381  s :     0.779381
      pz      :     0.005222  p :     0.040259
      px      :     0.015693
      py      :     0.019344

 33 H s       :     0.786028  s :     0.786028
      pz      :     0.005629  p :     0.041858
      px      :     0.011473
      py      :     0.024756

 34 H s       :     0.784597  s :     0.784597
      pz      :     0.016896  p :     0.042385
      px      :     0.017487
      py      :     0.008002

 35 H s       :     0.767790  s :     0.767790
      pz      :     0.011577  p :     0.044143
      px      :     0.026222
      py      :     0.006344

 36 H s       :     0.787859  s :     0.787859
      pz      :     0.008209  p :     0.040095
      px      :     0.016318
      py      :     0.015568

 37 H s       :     0.782234  s :     0.782234
      pz      :     0.027941  p :     0.042216
      px      :     0.008038
      py      :     0.006236


---------------------------------
LOEWDIN BOND ORDERS (THRESH 0.050000)
---------------------------------
B(  0-C ,  1-C ) :   1.0846 B(  0-C ,  2-O ) :   0.1583 B(  0-C , 20-H ) :   0.9179 
B(  0-C , 21-H ) :   0.9173 B(  0-C , 22-H ) :   0.9252 B(  1-C ,  2-O ) :   1.2952 
B(  1-C ,  3-C ) :   0.0838 B(  1-C ,  4-O ) :   0.0650 B(  1-C , 23-H ) :   0.8345 
B(  1-C , 24-H ) :   0.8174 B(  2-O ,  3-C ) :   1.4669 B(  2-O ,  4-O ) :   0.4562 
B(  2-O ,  5-C ) :   0.1821 B(  2-O , 23-H ) :   0.0955 B(  2-O , 24-H ) :   0.0905 
B(  3-C ,  4-O ) :   2.1627 B(  3-C ,  5-C ) :   0.9006 B(  3-C ,  6-C ) :   0.0764 
B(  3-C , 13-S ) :   0.0637 B(  4-O ,  5-C ) :   0.1785 B(  5-C ,  6-C ) :   1.0168 
B(  5-C ,  8-C ) :   0.0686 B(  5-C , 13-S ) :   0.1113 B(  5-C , 25-H ) :   0.8480 
B(  5-C , 26-H ) :   0.8462 B(  6-C ,  7-H ) :   0.8092 B(  6-C ,  8-C ) :   0.8526 
B(  6-C ,  9-O ) :   0.1821 B(  6-C , 10-O ) :   0.1678 B(  6-C , 13-S ) :   1.2476 
B(  6-C , 14-P ) :   0.0677 B(  7-H , 13-S ) :   0.0548 B(  8-C ,  9-O ) :   2.0936 
B(  8-C , 10-O ) :   1.4980 B(  8-C , 11-C ) :   0.0843 B(  8-C , 13-S ) :   0.1105 
B(  8-C , 15-S ) :   0.0628 B(  9-O , 10-O ) :   0.4444 B(  9-O , 11-C ) :   0.0580 
B(  9-O , 13-S ) :   0.1203 B(  9-O , 14-P ) :   0.1164 B(  9-O , 15-S ) :   0.0891 
B(  9-O , 16-O ) :   0.0753 B( 10-O , 11-C ) :   1.2866 B( 10-O , 12-C ) :   0.1538 
B( 10-O , 27-H ) :   0.0904 B( 10-O , 28-H ) :   0.0967 B( 11-C , 12-C ) :   1.0861 
B( 11-C , 27-H ) :   0.8179 B( 11-C , 28-H ) :   0.8329 B( 11-C , 29-H ) :   0.0505 
B( 12-C , 29-H ) :   0.9167 B( 12-C , 30-H ) :   0.9245 B( 12-C , 31-H ) :   0.9178 
B( 13-S , 14-P ) :   1.1781 B( 13-S , 15-S ) :   0.1354 B( 13-S , 16-O ) :   0.1347 
B( 13-S , 18-O ) :   0.1686 B( 14-P , 15-S ) :   1.9894 B( 14-P , 16-O ) :   1.5711 
B( 14-P , 17-C ) :   0.0972 B( 14-P , 18-O ) :   1.5145 B( 14-P , 19-C ) :   0.0979 
B( 15-S , 16-O ) :   0.1602 B( 15-S , 18-O ) :   0.1868 B( 16-O , 17-C ) :   1.3284 
B( 16-O , 18-O ) :   0.2318 B( 16-O , 32-H ) :   0.1018 B( 16-O , 33-H ) :   0.0993 
B( 16-O , 34-H ) :   0.0998 B( 17-C , 32-H ) :   0.8621 B( 17-C , 33-H ) :   0.8673 
B( 17-C , 34-H ) :   0.8627 B( 18-O , 19-C ) :   1.3571 B( 18-O , 35-H ) :   0.1010 
B( 18-O , 36-H ) :   0.1028 B( 18-O , 37-H ) :   0.1027 B( 19-C , 35-H ) :   0.8456 
B( 19-C , 36-H ) :   0.8633 B( 19-C , 37-H ) :   0.8607 

------------------------------------------
LOEWDIN REDUCED ORBITAL POPULATIONS PER MO
-------------------------------------------
THRESHOLD FOR PRINTING IS 0.1%%
                      0         1         2         3         4         5   
                 -88.57036 -88.50852 -76.90637 -19.01411 -19.00661 -18.98140
                   2.00000   2.00000   2.00000   2.00000   2.00000   2.00000
                  --------  --------  --------  --------  --------  --------
 2 O  s               0.0       0.0       0.0       0.0      99.9       0.0
10 O  s               0.0       0.0       0.0      99.9       0.0       0.0
13 S  s             100.0       0.0       0.0       0.0       0.0       0.0
14 P  s               0.0       0.0     100.0       0.0       0.0       0.0
15 S  s               0.0     100.0       0.0       0.0       0.0       0.0
16 O  s               0.0       0.0       0.0       0.0       0.0      99.9

                      6         7         8         9        10        11   
                 -18.97557 -18.93965 -18.93445 -10.16970 -10.16058 -10.10312
                   2.00000   2.00000   2.00000   2.00000   2.00000   2.00000
                  --------  --------  --------  --------  --------  --------
 2 O  dxz             0.0       0.0       0.0       0.0       0.2       0.0
 3 C  s               0.0       0.0       0.0       0.0      98.9       0.0
 4 O  s               0.0       0.0      99.9       0.0       0.0       0.0
 4 O  py              0.0       0.0       0.0       0.0       0.1       0.0
 4 O  dxy             0.0       0.0       0.0       0.0       0.2       0.0
 6 C  s               0.0       0.0       0.0       0.0       0.0      99.6
 8 C  s               0.0       0.0       0.0      98.8       0.0       0.0
 9 O  s               0.0      99.9       0.0       0.0       0.0       0.0
 9 O  px              0.0       0.0       0.0       0.2       0.0       0.0
 9 O  dx2y2           0.0       0.0       0.0       0.1       0.0       0.0
10 O  dxz             0.0       0.0       0.0       0.1       0.0       0.0
10 O  dxy             0.0       0.0       0.0       0.1       0.0       0.0
18 O  s              99.9       0.0       0.0       0.0       0.0       0.0

                     12        13        14        15        16        17   
                 -10.09936 -10.09761 -10.08805 -10.07083 -10.05278 -10.03468
                   2.00000   2.00000   2.00000   2.00000   2.00000   2.00000
                  --------  --------  --------  --------  --------  --------
 1 C  s               0.0      99.4       0.0       0.0       0.0       0.0
 2 O  dyz             0.0       0.1       0.0       0.0       0.0       0.0
 2 O  dx2y2           0.0       0.1       0.0       0.0       0.0       0.0
 5 C  s               0.0       0.0       0.0       0.0      99.7       0.0
10 O  dyz             0.1       0.0       0.0       0.0       0.0       0.0
10 O  dx2y2           0.1       0.0       0.0       0.0       0.0       0.0
11 C  s              99.4       0.0       0.0       0.0       0.0       0.0
12 C  s               0.0       0.0       0.0       0.0       0.0      99.7
16 O  dz2             0.0       0.0       0.1       0.0       0.0       0.0
16 O  dxz             0.0       0.0       0.1       0.0       0.0       0.0
17 C  s               0.0       0.0      99.4       0.0       0.0       0.0
19 C  s               0.0       0.0       0.0      99.4       0.0       0.0

                     18        19        20        21        22        23   
                 -10.03400  -7.86500  -7.80358  -6.58417  -5.81206  -5.80886
                   2.00000   2.00000   2.00000   2.00000   2.00000   2.00000
                  --------  --------  --------  --------  --------  --------
 0 C  s              99.7       0.0       0.0       0.0       0.0       0.0
 6 C  px              0.0       0.1       0.0       0.0       0.0       0.0
13 S  s               0.0      99.6       0.0       0.0       0.0       0.0
13 S  pz              0.0       0.0       0.0       0.1       6.9      72.7
13 S  px              0.0       0.0       0.0       0.0      88.5       1.5
13 S  py              0.0       0.0       0.0       0.0       4.6      25.7
14 P  s               0.0       0.0       0.0      96.5       0.0       0.0
14 P  pz              0.0       0.1       0.1       0.0       0.0       0.0
14 P  dz2             0.0       0.0       0.1       0.0       0.0       0.0
15 S  s               0.0       0.0      99.6       0.0       0.0       0.0
15 S  pz              0.0       0.0       0.0       0.1       0.0       0.0
15 S  dz2             0.0       0.0       0.0       0.2       0.0       0.0
16 O  px              0.0       0.0       0.0       0.2       0.0       0.0
16 O  py              0.0       0.0       0.0       0.1       0.0       0.0
[...]
37 H  s               0.2       0.0       0.0       0.0       0.0       0.0
37 H  pz              0.3       0.0       0.0       0.0       0.0       0.0
37 H  py              0.3       0.0       0.0       0.0       0.0       0.0

                    492       493       494       495       496       497   
                  18.98912  19.32825  21.94688  21.95274  22.00883  22.04078
                   0.00000   0.00000   0.00000   0.00000   0.00000   0.00000
                  --------  --------  --------  --------  --------  --------
 0 C  s               0.0       0.0       6.4      88.7       0.5       1.7
 1 C  s               0.0       0.0       0.1       2.6       0.2      25.7
 3 C  s               0.0       0.1       0.0       0.0       0.0       0.7
 5 C  s               0.0       0.1       0.0       0.7       0.2       0.7
 6 C  s               0.0       0.4       0.5       0.6       0.1       7.8
 8 C  s               0.1       0.0       0.2       0.0       0.1       0.0
11 C  s               0.0       0.0       0.1       0.0       0.0      60.1
12 C  s               0.0       0.0      92.3       6.8       0.0       0.0
13 S  s               0.0      98.5       0.0       0.0       0.0       0.0
13 S  pz              0.0       0.1       0.0       0.0       0.0       0.0
14 P  s               0.1       0.1       0.0       0.0       0.0       0.0
14 P  pz              0.1       0.1       0.0       0.0       0.0       0.0
15 S  s              98.9       0.1       0.0       0.0       0.0       0.0
15 S  pz              0.2       0.0       0.0       0.0       0.0       0.0
17 C  s               0.1       0.0       0.1       0.3      97.4       0.3
19 C  s               0.0       0.0       0.0       0.0       1.1       2.6

                    498       499       500       501       502       503   
                  22.05020  22.08057  22.17906  22.21607  22.34550  22.41587
                   0.00000   0.00000   0.00000   0.00000   0.00000   0.00000
                  --------  --------  --------  --------  --------  --------
 0 C  s               1.7       0.1       0.4       0.0       0.1       0.1
 1 C  s              60.2       1.3       3.5       6.1       0.0       0.0
 2 O  s               0.0       0.0       0.0       0.0       0.1       0.0
 3 C  s               0.3       0.3       5.8       2.3      82.2       7.4
 4 O  s               0.0       0.0       0.0       0.0       0.2       0.0
 5 C  s               6.1       0.4       2.6      84.6       4.2       0.0
 6 C  s               0.2       0.5      80.1       4.8       4.6       0.3
 8 C  s               0.0       0.1       0.0       0.1       7.7      90.7
 9 O  s               0.0       0.0       0.0       0.0       0.0       0.2
 9 O  px              0.0       0.0       0.0       0.0       0.0       0.1
10 O  s               0.0       0.0       0.0       0.0       0.0       0.1
11 C  s              30.5       2.3       5.3       1.2       0.0       0.0
12 C  s               0.1       0.0       0.1       0.0       0.0       0.2
13 S  s               0.0       0.0       0.2       0.1       0.0       0.0
17 C  s               0.3       0.9       0.0       0.1       0.1       0.1
19 C  s               0.0      93.6       1.6       0.3       0.1       0.2

                    504       505       506       507       508       509   
                  43.74831  43.78687  43.80683  43.85605  43.88618  43.92017
                   0.00000   0.00000   0.00000   0.00000   0.00000   0.00000
                  --------  --------  --------  --------  --------  --------
 2 O  s              39.7       1.6       0.1      28.2      27.9       2.4
 4 O  s              56.7       1.0       4.2      14.2      22.6       1.1
 9 O  s               0.2      22.5      19.0      32.6      15.5      10.1
10 O  s               2.4       9.7      50.2      19.0       7.7      11.0
14 P  s               0.0       0.0       0.0       0.0       0.0       0.1
16 O  s               0.1       2.3       0.1       5.9      22.8      68.7
18 O  s               0.8      62.9      26.3       0.0       3.3       6.5



                      *****************************
                      * MAYER POPULATION ANALYSIS *
                      *****************************

  NA   - Mulliken gross atomic population
  ZA   - Total nuclear charge
  QA   - Mulliken gross atomic charge
  VA   - Mayer's total valence
  BVA  - Mayer's bonded valence
  FA   - Mayer's free valence

  ATOM       NA         ZA         QA         VA         BVA        FA
  0 C      6.4770     6.0000    -0.4770     3.8148     3.8148    -0.0000
  1 C      6.1285     6.0000    -0.1285     3.6464     3.6464     0.0000
  2 O      8.1658     8.0000    -0.1658     1.8761     1.8761    -0.0000
  3 C      5.6061     6.0000     0.3939     3.7036     3.7036     0.0000
  4 O      8.3938     8.0000    -0.3938     1.9280     1.9280    -0.0000
  5 C      6.4752     6.0000    -0.4752     3.9426     3.9426    -0.0000
  6 C      5.9461     6.0000     0.0539     3.5703     3.5703    -0.0000
  7 H      0.8032     1.0000     0.1968     0.9416     0.9416    -0.0000
  8 C      5.7224     6.0000     0.2776     4.0386     4.0386     0.0000
  9 O      8.3907     8.0000    -0.3907     1.9624     1.9624     0.0000
 10 O      8.1551     8.0000    -0.1551     1.9688     1.9688     0.0000
 11 C      6.1377     6.0000    -0.1377     3.6579     3.6579    -0.0000
 12 C      6.4751     6.0000    -0.4751     3.8153     3.8153    -0.0000
 13 S     16.1916    16.0000    -0.1916     2.1275     2.1275    -0.0000
 14 P     14.2038    15.0000     0.7962     5.1178     5.1178    -0.0000
 15 S     16.4595    16.0000    -0.4595     2.0331     2.0331     0.0000
 16 O      8.3013     8.0000    -0.3013     1.9097     1.9097    -0.0000
 17 C      6.3012     6.0000    -0.3012     3.7430     3.7430     0.0000
 18 O      8.3632     8.0000    -0.3632     1.8307     1.8307    -0.0000
 19 C      6.3009     6.0000    -0.3009     3.7817     3.7817     0.0000
 20 H      0.8507     1.0000     0.1493     0.9645     0.9645    -0.0000
 21 H      0.8236     1.0000     0.1764     0.9563     0.9563    -0.0000
 22 H      0.8472     1.0000     0.1528     0.9610     0.9610    -0.0000
 23 H      0.8507     1.0000     0.1493     0.9519     0.9519    -0.0000
 24 H      0.8263     1.0000     0.1737     0.9591     0.9591    -0.0000
 25 H      0.8244     1.0000     0.1756     0.9504     0.9504    -0.0000
 26 H      0.7793     1.0000     0.2207     0.9437     0.9437    -0.0000
 27 H      0.8168     1.0000     0.1832     0.9544     0.9544    -0.0000
 28 H      0.8472     1.0000     0.1528     0.9520     0.9520    -0.0000
 29 H      0.8483     1.0000     0.1517     0.9639     0.9639    -0.0000
 30 H      0.8488     1.0000     0.1512     0.9621     0.9621    -0.0000
 31 H      0.8224     1.0000     0.1776     0.9562     0.9562    -0.0000
 32 H      0.8449     1.0000     0.1551     0.9559     0.9559     0.0000
 33 H      0.8319     1.0000     0.1681     0.9515     0.9515     0.0000
 34 H      0.8335     1.0000     0.1665     0.9554     0.9554     0.0000
 35 H      0.8171     1.0000     0.1829     0.9512     0.9512     0.0000
 36 H      0.8580     1.0000     0.1420     0.9563     0.9563     0.0000
 37 H      0.8308     1.0000     0.1692     0.9546     0.9546     0.0000

  Mayer bond orders larger than 0.100000
B(  0-C ,  1-C ) :   0.9293 B(  0-C , 20-H ) :   0.9649 B(  0-C , 21-H ) :   0.9685 
B(  0-C , 22-H ) :   0.9729 B(  1-C ,  2-O ) :   0.8030 B(  1-C , 23-H ) :   0.9627 
B(  1-C , 24-H ) :   0.9681 B(  2-O ,  3-C ) :   1.0332 B(  3-C ,  4-O ) :   1.8233 
B(  3-C ,  5-C ) :   0.9165 B(  5-C ,  6-C ) :   0.8967 B(  5-C , 25-H ) :   0.9393 
B(  5-C , 26-H ) :   0.9715 B(  6-C ,  7-H ) :   0.8787 B(  6-C ,  8-C ) :   0.9564 
B(  6-C , 13-S ) :   0.8255 B(  8-C ,  9-O ) :   1.7917 B(  8-C , 10-O ) :   1.1349 
B( 10-O , 11-C ) :   0.7990 B( 11-C , 12-C ) :   0.9310 B( 11-C , 27-H ) :   0.9693 
B( 11-C , 28-H ) :   0.9609 B( 12-C , 29-H ) :   0.9632 B( 12-C , 30-H ) :   0.9720 
B( 12-C , 31-H ) :   0.9712 B( 13-S , 14-P ) :   0.9842 B( 14-P , 15-S ) :   1.7542 
B( 14-P , 16-O ) :   1.1902 B( 14-P , 18-O ) :   1.0201 B( 16-O , 17-C ) :   0.7996 
B( 17-C , 32-H ) :   0.9651 B( 17-C , 33-H ) :   0.9634 B( 17-C , 34-H ) :   0.9575 
B( 18-O , 19-C ) :   0.8365 B( 19-C , 35-H ) :   0.9426 B( 19-C , 36-H ) :   0.9693 
B( 19-C , 37-H ) :   0.9579 

-------
TIMINGS
-------

Total SCF time: 0 days 0 hours 1 min 11 sec 

Total time                  ....      71.043 sec
Sum of individual times     ....      71.007 sec  ( 99.9%)

SCF preparation             ....       0.692 sec  (  1.0%)
Fock matrix formation       ....      68.891 sec  ( 97.0%)
  Startup                   ....       0.019 sec  (  0.0% of F)
  Split-RI-J                ....      23.911 sec  ( 34.7% of F)
  XC integration            ....      44.768 sec  ( 65.0% of F)
    XC Preparation          ....       0.000 sec  (  0.0% of XC)
    Basis function eval.    ....       6.909 sec  ( 15.4% of XC)
    Density eval.           ....      17.935 sec  ( 40.1% of XC)
    XC-Functional eval.     ....       3.024 sec  (  6.8% of XC)
    XC-Potential eval.      ....      16.169 sec  ( 36.1% of XC)
Diagonalization             ....       0.000 sec  (  0.0%)
Density matrix formation    ....       0.105 sec  (  0.1%)
Total Energy calculation    ....       0.010 sec  (  0.0%)
Population analysis         ....       0.294 sec  (  0.4%)
Orbital Transformation      ....       0.127 sec  (  0.2%)
Orbital Orthonormalization  ....       0.000 sec  (  0.0%)
DIIS solution               ....       0.784 sec  (  1.1%)
  MO trafo                  ....       0.000 sec  (  0.0 % of DIIS)
  Orb grad                  ....       0.000 sec  (  0.0 % of DIIS)
  Energy W gradient         ....       0.000 sec  (  0.0 % of DIIS)
  DIIS error                ....       0.124 sec  ( 15.8 % of DIIS)
  DIIS work                 ....       0.591 sec  ( 75.4 % of DIIS)
  Form Q                    ....       0.000 sec  (  0.0 % of DIIS)
  Form QpQm                 ....       0.000 sec  (  0.0 % of DIIS)
  Exp/Cayley                ....       0.000 sec  (  0.0 % of DIIS)
  Orb update                ....       0.000 sec  (  0.0 % of DIIS)
  Wake-sleep                ....       0.005 sec  (  0.6 % of DIIS)
SOSCF solution              ....       0.103 sec  (  0.1%)
  MO trafo                  ....       0.080 sec  ( 77.1 % of SOSCF)
  Orb grad                  ....       0.000 sec  (  0.3 % of SOSCF)
  Rot update                ....       0.000 sec  (  0.1 % of SOSCF)
  Step                      ....       0.023 sec  ( 22.3 % of SOSCF)
Finished LeanSCF after  71.5 sec

Maximum memory used throughout the entire LEANSCF-calculation: 72.2 MB


-------------------------------------------------------------------------------
                          DFT DISPERSION CORRECTION                            
                                                                               
                                DFTD4 V3.4.0                                   
-------------------------------------------------------------------------------
The R2SCAN3C composite method is recognized
Using three-body term ABC
Active option DFTDOPT                   ...         5   

-------------------------   ----------------
Dispersion correction           -0.017736720
-------------------------   ----------------

------------------   -----------------
gCP correction             0.037666977
------------------   -----------------

-------------------------   --------------------
FINAL SINGLE POINT ENERGY     -1981.446712191906
-------------------------   --------------------


------------------------------------------------------------------------------
                              ORCA PROPERTY CALCULATIONS
------------------------------------------------------------------------------

GBWName                                 ... sp_gas.gbw
Number of atoms                         ...     38
Number of basis functions               ...    510
Max core memory                         ...   1024 MB

Electric properties:
Dipole moment                           ... YES
Quadrupole moment                       ...  NO
Static polarizability (Dipole/Dipole)   ...  NO
Static polarizability (Dipole/Quad.)    ...  NO
Static polarizability (Quad./Quad.)     ...  NO
Static polarizability (Velocity)        ...  NO

Atomic electric properties:
Dipole moment                           ...  NO
Quadrupole moment                       ...  NO
Static polarizability                   ...  NO

Choice of electric origin               ... Center of mass
Position of electric origin             ...     0.000003     0.000001    -0.000006

General magnetic properties:
Magnetizability                         ...  NO

EPR properties:
g-Tensor (aka g-matrix)                 ...  NO
Zero-Field splitting spin-orbit         ...  NO
Zero-field splitting spin-spin          ...  NO
Hyperfine couplings                     ...  NO (   0 nuclei)
Quadrupole couplings                    ...  NO (   0 nuclei)
Contact density                         ...  NO (   0 nuclei)

NMR properties:
Chemical shifts                         ...  NO (   0 nuclei)
Spin-rotation constants                 ...  NO (   0 nuclei)
Spin-spin couplings                     ...  NO (   0 nuclei,    0 pairs)

Choice of magnetic origin               ... GIAO
Position of magnetic origin             ...     0.000000     0.000000     0.000000

Properties with geometric perturbations:
SCF Hessian                             ...  NO
IR spectrum                             ...  NO
VCD spectrum                            ...  NO
X-ray spectroscopy properties:
SCF XES/XAS/RIXS spectra                ...  NO


-------------
DIPOLE MOMENT
-------------

Method             : SCF
Type of density    : Electron Density
Multiplicity       :   1
Irrep              :   0
Energy             : -1981.4666424492452279 Eh
Relativity type    : 
Basis              : AO
                                X                 Y                 Z
Electronic contribution:     -8.441901560       0.105501360       8.398961932
Nuclear contribution   :      9.564277399       0.130843434      -9.866465190
                        -----------------------------------------
Total Dipole Moment    :      1.122375840       0.236344794      -1.467503258
                        -----------------------------------------
Magnitude (a.u.)       :      1.862566025
Magnitude (Debye)      :      4.734266598



--------------------
Rotational spectrum 
--------------------
 
Rotational constants in cm-1:             0.010917             0.008430             0.006039 
Rotational constants in MHz :           327.274812           252.724296           181.036799 

Dipole components along the rotational axes: 
x,y,z [a.u.] :    -0.748605     1.198983    -1.212923 
x,y,z [Debye]:    -1.902802     3.047572    -3.083006 

 

Dipole moment calculation done in   0.0 sec 

Maximum memory used throughout the entire PROP-calculation: 51.2 MB

--------------------------------
SUGGESTED CITATIONS FOR THIS RUN
--------------------------------

Below you find a list of papers that are relevant to this ORCA run
We neither can nor want to force you to cite these papers, but we appreciate if you do
You receive ORCA, which is the product of decades of hard work by many enthusiastic individuals, for free
The only thing we kindly ask in return is that you cite our papers,
We deeply appreciate it, if you show your appreciation for ORCA by not just citing the generic ORCA reference.

Please note that relegating all ORCA citations to the supporting information does *not* help us.
SI sections are not indexed - citations you put there will not count into any citation statistics
But we need these citations in order to attract the funding resources that allow us to do what we are doing

Therefore, if you are a happy ORCA user, please consider citing a few of the papers listed below in the main body of your paper

In addition to the list printed below, the program has created the file sp_gas.bibtex that contains the list in bibtex format
You can import this file easily into all common literature databanks and citation aid programs


List of essential papers. We consider these as the minimum necessary citations

  1. Neese,F.
     Software update: the ORCA program system, version 5.0
     WIRES Comput. Molec. Sci., 2022 12(1)e1606
     doi.org/10.1002/wcms.1606
  2. Grimme,S.; Hansen,A.; Ehlert,S.; Mewes,J.
     r2SCAN-3c: A 'Swiss army knife' composite electronic-structure method
     J. Chem. Phys., 2021 154 064103
     doi.org/10.1063/5.0040021

List of papers to cite with high priority. The work reported in these papers was absolutely
necessary for this run to complete.
Our perspective: the developers of density functionals and basis sets usually get cited in chemistry papers
Good! But without the algorithms to do something with them, the functionals or basis sets would not do anything.
Hence, in our opinion, the algorithm design and method developments papers are equally worthy of getting cited

  1. Neese,F.
     An improvement of the resolution of the identity approximation for the formation of the Coulomb matrix
     J. Comp. Chem., 2003 24(14)1740-1747
     doi.org/10.1002/jcc.10318
  2. Neese,F.
     The SHARK Integral Generation and Digestion System
     J. Comp. Chem., 2022  1-16
     doi.org/10.1002/jcc.26942
  3. Lehtola,S.; Steigemann,C.; Oliveira,M.; Marques,M.
     Recent developments in Libxc - A comprehensive library of functionals for density functional theory
     Software X, 2018 7 
     doi.org/10.1016/j.softx.2017.11.002
  4. Caldeweyher,E.; Bannwarth,C.; Grimme,S.
     Extension of the D3 dispersion coefficient model
     J. Chem. Phys., 2017 147 034112
     doi.org/10.1063/1.4993215
  5. Caldeweyher,E.; Ehlert,S.; Hansen,A.; Neugebauer,H.; Spicher,S.; Bannwarth,C.; Grimme,S.
     A generally applicable atomic-charge dependent London dispersion correction
     J. Chem. Phys., 2019 150 154122
     doi.org/10.1063/1.5090222
  6. Caldeweyher,E.; Mewes,J.; Ehlert,S.; Grimme,S.
     Extension and evaluation of the D4 London-dispersion model for periodic systems
     Phys. Chem. Chem. Phys., 2020 22(16)8499-8512
     doi.org/10.1039/D0CP00502A
  7. Wittmann,L.; Gordiy,I.; Friede,M.; Helmich-Paris,B.; Grimme,S.; Hansen,A.; Bursch,M.
     Extension of the D3 and D4 London Dispersion Corrections to the full Actinides Series
     Phys. Chem. Chem. Phys., 2024 26(32)21379-21394
     doi.org/https://doi.org/10.1039/D4CP01514B 

List of suggested additional citations. These are papers that are important in the 'surrounding' of 
of this run, or papers that preceded the highly important papers. If you like your results we are grateful for a citation.

  1. Neese,F.
     The ORCA program system
     WIRES Comput. Molec. Sci., 2012 2(1)73-78
     doi.org/10.1002/wcms.81
  2. Neese,F.
     Software update: the ORCA program system, version 4.0
     WIRES Comput. Molec. Sci., 2018 8(1)1-6
     doi.org/10.1002/wcms.1327
  3. Neese,F.; Wennmohs,F.; Becker,U.; Riplinger,C.
     The ORCA quantum chemistry program package
     J. Chem. Phys., 2020 152 Art. No. L224108
     doi.org/10.1063/5.0004608

List of optional additional citations

  1. Neese,F.
     Approximate second-order SCF convergence for spin unrestricted wavefunctions
     Chem. Phys. Lett., 2000 325(1-3)93-98
     doi.org/10.1016/s0009-2614(00)00662-x

Timings for individual modules:

Sum of individual times          ...       74.581 sec (=   1.243 min)
Startup calculation              ...        2.629 sec (=   0.044 min)   3.5 %
SCF iterations                   ...       71.844 sec (=   1.197 min)  96.3 %
Property calculations            ...        0.107 sec (=   0.002 min)   0.1 %
                             ****ORCA TERMINATED NORMALLY****
TOTAL RUN TIME: 0 days 0 hours 1 minutes 15 seconds 706 msec
