      -----------------------------------------------------------      
     |                   =====================                   |     
     |                           x T B                           |     
     |                   =====================                   |     
     |                         S. Grimme                         |     
     |          Mulliken Center for Theoretical Chemistry        |     
     |                    University of Bonn                     |     
      -----------------------------------------------------------      

   * xtb version 6.7.1 (edcfbbe) compiled by 'albert@albert-system' on 2024-07-22

   xtb is free software: you can redistribute it and/or modify it under
   the terms of the GNU Lesser General Public License as published by
   the Free Software Foundation, either version 3 of the License, or
   (at your option) any later version.
   
   xtb is distributed in the hope that it will be useful,
   but WITHOUT ANY WARRANTY; without even the implied warranty of
   MERCHANTABILITY or FITNESS FOR A PARTICULAR PURPOSE.  See the
   GNU Lesser General Public License for more details.
   
   Cite this work as:
   * C. Bannwarth, E. Caldeweyher, S. Ehlert, A. Hansen, P. Pracht,
     J. Seibert, S. Spicher, S. Grimme, WIREs Comput. Mol. Sci., 2020, 11,
     e01493. DOI: 10.1002/wcms.1493
   
   for GFN2-xTB:
   * C. Bannwarth, S. Ehlert and S. Grimme., J. Chem. Theory Comput., 2019,
     15, 1652-1671. DOI: 10.1021/acs.jctc.8b01176
   for GFN1-xTB:
   * S. Grimme, C. Bannwarth, P. Shushkov, J. Chem. Theory Comput., 2017,
     13, 1989-2009. DOI: 10.1021/acs.jctc.7b00118
   for GFN0-xTB:
   * P. Pracht, E. Caldeweyher, S. Ehlert, S. Grimme, ChemRxiv, 2019, preprint.
     DOI: 10.26434/chemrxiv.8326202.v1
   for GFN-FF:
   * S. Spicher and S. Grimme, Angew. Chem. Int. Ed., 2020, 59, 15665-15673.
     DOI: 10.1002/anie.202004239
   
   for ALPB and GBSA implicit solvation:
   * S. Ehlert, M. Stahn, S. Spicher, S. Grimme, J. Chem. Theory Comput.,
     2021, 17, 4250-4261. DOI: 10.1021/acs.jctc.1c00471
   
   for ddCOSMO and CPCM-X implicit solvation:
   * M. Stahn, S. Ehlert, S. Grimme, J. Phys. Chem. A,
     2023, XX, XXXX-XXXX. DOI: 10.1021/acs.jpca.3c04382
   
   for DFT-D4:
   * E. Caldeweyher, C. Bannwarth and S. Grimme, J. Chem. Phys., 2017,
     147, 034112. DOI: 10.1063/1.4993215
   * E. Caldeweyher, S. Ehlert, A. Hansen, H. Neugebauer, S. Spicher,
     C. Bannwarth and S. Grimme, J. Chem. Phys., 2019, 150, 154122.
     DOI: 10.1063/1.5090222
   * E. Caldeweyher, J.-M. Mewes, S. Ehlert and S. Grimme, Phys. Chem. Chem. Phys.
     2020, 22, 8499-8512. DOI: 10.1039/D0CP00502A
   
   for sTDA-xTB:
   * S. Grimme and C. Bannwarth, J. Chem. Phys., 2016, 145, 054103.
     DOI: 10.1063/1.4959605
   
   in the mass-spec context:
   * V. Asgeirsson, C. Bauer and S. Grimme, Chem. Sci., 2017, 8, 4879.
     DOI: 10.1039/c7sc00601b
   * J. Koopman and S. Grimme, ACS Omega 2019, 4, 12, 15120-15133.
     DOI: 10.1021/acsomega.9b02011
   
   for metadynamics refer to:
   * S. Grimme, J. Chem. Theory Comput., 2019, 155, 2847-2862
     DOI: 10.1021/acs.jctc.9b00143
   
   for SPH calculations refer to:
   * S. Spicher and S. Grimme, J. Chem. Theory Comput., 2021, 17, 1701-1714
     DOI: 10.1021/acs.jctc.0c01306
   
   for ONIOM refer to:
   * C. Plett, A. Katbashev, S. Ehlert, S. Grimme, M. Bursch,
     Phys. Chem. Chem. Phys., 2023, 25, 17860-17868. DOI: 10.1039/D3CP02178E
   
   for DIPRO refer to:
   * J. Kohn, N. Gildemeister, S. Grimme, D. Fazzi, A. Hansen,
     J. Chem. Phys., 2023, just accepted.
   
   for PTB refer to:
   * S. Grimme, M. Mueller, A. Hansen, J. Chem. Phys., 2023, 158, 124111.
     DOI: 10.1063/5.0137838
   
   with help from (in alphabetical order)
   P. Atkinson, C. Bannwarth, F. Bohle, G. Brandenburg, E. Caldeweyher
   M. Checinski, S. Dohm, S. Ehlert, S. Ehrlich, I. Gerasimov, C. Hölzer
   A. Katbashev, J. Kohn, J. Koopman, C. Lavigne, S. Lehtola, F. März, M. Müller,
   F. Musil, H. Neugebauer, J. Pisarek, C. Plett, P. Pracht, F. Pultar,
   J. Seibert, P. Shushkov, S. Spicher, M. Stahn, M. Steiner, T. Strunk,
   J. Stückrath, T. Rose, and J. Unsleber
   
 * started run on 2025/04/10 at 08:52:00.807     
   ID    Z sym.   atoms
    1    6 C      1, 2, 7, 8, 10, 15, 16, 18, 19
    2    8 O      3, 6, 14, 17
    3   15 P      4, 12
    4   16 S      5, 9, 11, 13
    5    1 H      20-41

           -------------------------------------------------
          |                Calculation Setup                |
           -------------------------------------------------

          program call               : /srv/scratch/z5358697/.xtb/bin/xtb xtb_opt.coord --opt normal --orca -I xtb_opt-xcontrol-inp
          hostname                   : k163
          coordinate file            : xtb_opt.coord
          omp threads                :                    24

           -------------------------------------------------
          |                   Orca driver                   |
           -------------------------------------------------
orca executable           : /apps/z_install_tree/linux-rocky8-ivybridge/gcc-12.2.0/orca-6.0.0-srtngmq3qlimg2qxbl6avaaiffipurdx/bin/orca
orca input file           : xtb_opt.inp
orca input line           : 
orca parallel             : true
orca number of threads    : 24
                         * ORCA takes the control...
  ------------------------------------------------------------------------

                                 *****************
                                 * O   R   C   A *
                                 *****************

                                            #,                                       
                                            ###                                      
                                            ####                                     
                                            #####                                    
                                            ######                                   
                                           ########,                                 
                                     ,,################,,,,,                         
                               ,,#################################,,                 
                          ,,##########################################,,             
                       ,#########################################, ''#####,          
                    ,#############################################,,   '####,        
                  ,##################################################,,,,####,       
                ,###########''''           ''''###############################       
              ,#####''   ,,,,##########,,,,          '''####'''          '####       
            ,##' ,,,,###########################,,,                        '##       
           ' ,,###''''                  '''############,,,                           
         ,,##''                                '''############,,,,        ,,,,,,###''
      ,#''                                            '''#######################'''  
     '                                                          ''''####''''         
             ,#######,   #######,   ,#######,      ##                                
            ,#'     '#,  ##    ##  ,#'     '#,    #''#        ,####,   ,####,        
            ##       ##  ##   ,#'  ##            #'  '#       #'       #'  '#        
            ##       ##  #######   ##           ,######,      #####,   #    #        
            '#,     ,#'  ##    ##  '#,     ,#' ,#      #,     #,   #   #,  ,#        
             '#######'   ##     ##  '#######'  #'      '#     '####' # '####'        



                #########################################################
                #                        -***-                          #
                #          Department of theory and spectroscopy        #
                #                                                       #
                #                      Frank Neese                      #
                #                                                       #
                #     Directorship, Architecture, Infrastructure        #
                #                    SHARK, DRIVERS                     #
                #        Core code/Algorithms in most modules           #
                #                                                       #
                #        Max Planck Institute fuer Kohlenforschung      #
                #                Kaiser Wilhelm Platz 1                 #
                #                 D-45470 Muelheim/Ruhr                 #
                #                      Germany                          #
                #                                                       #
                #                  All rights reserved                  #
                #                        -***-                          #
                #########################################################


                         Program Version 6.0.0  -   RELEASE  -


 With contributions from (in alphabetic order):
   Daniel Aravena         : Magnetic Suceptibility
   Michael Atanasov       : Ab Initio Ligand Field Theory (pilot matlab implementation)
   Alexander A. Auer      : GIAO ZORA, VPT2 properties, NMR spectrum
   Ute Becker             : All parallelization in ORCA, NUMFREQ, NUMCALC
   Giovanni Bistoni       : ED, misc. LED, open-shell LED, HFLD
   Martin Brehm           : Molecular dynamics
   Dmytro Bykov           : pre 5.0 version of the SCF Hessian
   Marcos Casanova-Páez   : Triplet and SCS-CIS(D). UHF-(DLPNO)-IP/EA/STEOM-CCSD. UHF-CVS-IP/STEOM-CCSD
   Vijay G. Chilkuri      : MRCI spin determinant printing, contributions to CSF-ICE
   Pauline Colinet        : FMM embedding
   Dipayan Datta          : RHF DLPNO-CCSD density
   Achintya Kumar Dutta   : EOM-CC, STEOM-CC
   Nicolas Foglia         : Exact transition moments, OPA infrastructure, MCD improvements
   Dmitry Ganyushin       : Spin-Orbit,Spin-Spin,Magnetic field MRCI
   Miquel Garcia          : C-PCM and meta-GGA Hessian, CCSD/C-PCM, Gaussian charge scheme
   Tiago L. C. Gouveia    : GS-ROHF, GS-ROCIS
   Yang Guo               : DLPNO-NEVPT2, F12-NEVPT2, CIM, IAO-localization
   Andreas Hansen         : Spin unrestricted coupled pair/coupled cluster methods
   Ingolf Harden          : AUTO-CI MPn and infrastructure 
   Benjamin Helmich-Paris : MC-RPA, TRAH-(SCF,CASSCF), AVAS, COSX integrals, SCF dyn. polar.
   Lee Huntington         : MR-EOM, pCC
   Robert Izsak           : Overlap fitted RIJCOSX, COSX-SCS-MP3, EOM
   Riya Kayal             : Wick's Theorem for AUTO-CI, AUTO-CI UHF-CCSDT
   Emily Kempfer          : AUTO-CI, RHF CISDT and CCSDT
   Christian Kollmar      : KDIIS, OOCD, Brueckner-CCSD(T), CCSD density, CASPT2, CASPT2-K, improved NEVPT2
   Axel Koslowski         : Symmetry handling
   Simone Kossmann        : Meta GGA functionals, TD-DFT gradient, OOMP2, (MP2 Hessian; deprecated post 5.0)
   Lucas Lang             : DCDCAS
   Marvin Lechner         : AUTO-CI (C++ implementation), FIC-MRCC
   Spencer Leger          : CASSCF response
   Dagmar Lenk            : GEPOL surface, SMD, ORCA-2-JSON
   Dimitrios Liakos       : Extrapolation schemes; Compound Job, initial MDCI parallelization
   Dimitrios Manganas     : Further ROCIS development; embedding schemes. LFT, Crystal Embedding
   Dimitrios Pantazis     : SARC Basis sets
   Anastasios Papadopoulos: AUTO-CI, single reference methods and gradients
   Taras Petrenko         : pre 6.0 DFT Hessian and TD-DFT gradient, (ASA, deprecated), ECA, 1-Electron XAS/XES, NRVS
   Peter Pinski           : DLPNO-MP2, DLPNO-MP2 Gradient
   Christoph Reimann      : Effective Core Potentials
   Marius Retegan         : Local ZFS, SOC
   Christoph Riplinger    : Optimizer, TS searches, QM/MM, DLPNO-CCSD(T), (RO)-DLPNO pert. Triples
   Michael Roemelt        : Original ROCIS implementation
   Masaaki Saitow         : Open-shell DLPNO-CCSD energy and density
   Barbara Sandhoefer     : DKH picture change effects
   Kantharuban Sivalingam : CASSCF convergence/infrastructure, NEVPT2 and variants, FIC-MRCI
   Bernardo de Souza      : ESD, SOC TD-DFT
   Georgi Stoychev        : AutoAux, RI-MP2 NMR, DLPNO-MP2 response, X2C
   Van Anh Tran           : RI-MP2 g-tensors
   Willem Van den Heuvel  : Paramagnetic NMR
   Zikuan Wang            : NOTCH, Electric field optimization 
   Frank Wennmohs         : Technical directorship and infrastructure
   Hang Xu                : AUTO-CI-Response properties 


 We gratefully acknowledge several colleagues who have allowed us to
 interface, adapt or use parts of their codes:
   Stefan Grimme, W. Hujo, H. Kruse, P. Pracht,  : VdW corrections, initial TS optimization,
                  C. Bannwarth, S. Ehlert,         DFT functionals, gCP, sTDA/sTD-DF
                  L. Wittmann, M. Mueller
   Ed Valeev, F. Pavosevic, A. Kumar             : LibInt (2-el integral package), F12 methods
   Garnet Chan, S. Sharma, J. Yang, R. Olivares  : DMRG
   Ulf Ekstrom                                   : XCFun DFT Library
   Mihaly Kallay                                 : mrcc  (arbitrary order and MRCC methods)
   Frank Weinhold                                : gennbo (NPA and NBO analysis)
   Simon Mueller                                 : openCOSMO-RS
   Christopher J. Cramer and Donald G. Truhlar   : smd solvation model
   Lars Goerigk                                  : TD-DFT with DH, B97 family of functionals
   V. Asgeirsson, H. Jonsson                     : NEB implementation
   FAccTs GmbH                                   : IRC, NEB, NEB-TS, DLPNO-Multilevel, CI-OPT
                                                   MM, QMMM, 2- and 3-layer-ONIOM, Crystal-QMMM,
                                                   LR-CPCM, SF, NACMEs, symmetry and pop. for TD-DFT,
                                                   nearIR, NL-DFT gradient (VV10), updates on ESD,
                                                   ML-optimized integration grids, MBIS, APM,
                                                   GOAT, DOCKER, SOLVATOR, interface openCOSMO-RS
   S Lehtola, MJT Oliveira, MAL Marques          : LibXC Library
   Liviu Ungur et al                             : ANISO software


 Your calculation uses the libint2 library for the computation of 2-el integrals
 For citations please refer to: http://libint.valeyev.net

 Your ORCA version has been built with support for libXC version: 6.2.2
 For citations please refer to: https://libxc.gitlab.io

 This ORCA versions uses:
   CBLAS   interface :  Fast vector & matrix operations
   LAPACKE interface :  Fast linear algebra routines
   SCALAPACK package :  Parallel linear algebra routines
   Shared memory     :  Shared parallel matrices
   BLAS/LAPACK       :  OpenBLAS 0.3.27  USE64BITINT DYNAMIC_ARCH NO_AFFINITY SapphireRapids SINGLE_THREADED
        Core in use  :  SapphireRapids
   Copyright (c) 2011-2014, The OpenBLAS Project




***************************************
The coordinates will be read from file: xtb_opt.xyz
***************************************


Your calculation utilizes the geometrical counterpoise correction gCP
Please cite in your paper:
H.Kruse, S. Grimme J.Chem.Phys., 136, (2012), 154101 
   

Your calculation utilizes the atom-pairwise dispersion correction
based on EEQ partial charges (D4)


Your calculation utilizes the SMD solvation module
Please cite in your paper:
A.V. Marenich, C.J. Cramer, D.G. Truhlar J. Phys. Chem. B, 113, (2009), 6378 

================================================================================

----- Orbital basis set information -----
Your calculation utilizes the basis: def2-mTZVPP
   Stefan Grimme, Andreas Hansen, Sebastian Ehlert, and Jan-Michael Mewes 
   J. Chem. Phys. 154, 064103 (2021). DOI: 10.1063/5.0040021

----- AuxJ basis set information -----
Your calculation utilizes the auxiliary basis: def2/J
   F. Weigend, Phys. Chem. Chem. Phys. 8, 1057 (2006).

================================================================================
                                        WARNINGS
                       Please study these warnings very carefully!
================================================================================

WARNING: Old DensityContainer found on disk!
         Will remove this file - 
         If you want to keep old densities, please start your calculation with a different basename. 

Using LibXC functional ID 497 : Re-regularized SCAN exchange by Furness et al
[ 1]  J. W. Furness, A. D. Kaplan, J. Ning, J. P. Perdew, and J. Sun.,  J. Phys. Chem. Lett. 11, 8208-8215 (2020)
[ 2]  J. W. Furness, A. D. Kaplan, J. Ning, J. P. Perdew, and J. Sun.,  J. Phys. Chem. Lett. 11, 9248-9248 (2020)
Using LibXC functional ID 498 : Re-regularized SCAN correlation by Furness et al
[ 1]  J. W. Furness, A. D. Kaplan, J. Ning, J. P. Perdew, and J. Sun.,  J. Phys. Chem. Lett. 11, 8208-8215 (2020)
[ 2]  J. W. Furness, A. D. Kaplan, J. Ning, J. P. Perdew, and J. Sun.,  J. Phys. Chem. Lett. 11, 9248-9248 (2020)
Using LibXC functional ID 497 : Re-regularized SCAN exchange by Furness et al
[ 1]  J. W. Furness, A. D. Kaplan, J. Ning, J. P. Perdew, and J. Sun.,  J. Phys. Chem. Lett. 11, 8208-8215 (2020)
[ 2]  J. W. Furness, A. D. Kaplan, J. Ning, J. P. Perdew, and J. Sun.,  J. Phys. Chem. Lett. 11, 9248-9248 (2020)
Using LibXC functional ID 498 : Re-regularized SCAN correlation by Furness et al
[ 1]  J. W. Furness, A. D. Kaplan, J. Ning, J. P. Perdew, and J. Sun.,  J. Phys. Chem. Lett. 11, 8208-8215 (2020)
[ 2]  J. W. Furness, A. D. Kaplan, J. Ning, J. P. Perdew, and J. Sun.,  J. Phys. Chem. Lett. 11, 9248-9248 (2020)

================================================================================
                                       INPUT FILE
================================================================================
NAME = xtb_opt.inp
|  1> ! r2scan-3c def2/J RI DEFGRID2 scfconv7 ENGRAD tightSCF miniprint
|  2> %cpcm
|  3>     smd true
|  4>     smdsolvent "water"
|  5> end
|  6> * xyzfile 0 1 xtb_opt.xyz
|  7> 
|  8>                          ****END OF INPUT****
================================================================================

                     *******************************
                     * Energy+Gradient Calculation *
                     *******************************

---------------------------------
CARTESIAN COORDINATES (ANGSTROEM)
---------------------------------
  C      4.377304   -2.461485    0.337372
  C      4.213671   -1.986069   -1.086002
  O      2.850456   -1.507214   -1.362426
  P      2.290417   -0.141183   -0.724502
  S      3.466718    1.410274   -0.676432
  O      1.698477   -0.603631    0.700272
  C      1.991219    0.081248    1.962980
  C      1.150615   -0.577632    3.027074
  S      0.611932   -0.037652   -2.019157
  C     -0.015597    1.631603   -1.600859
  S     -0.705460    1.878385    0.084872
  P     -2.297617    0.476975    0.058924
  S     -3.302669    0.362812   -1.603623
  O     -3.103562    0.916094    1.383350
  C     -3.989865    2.088690    1.369136
  C     -4.657602    2.156391    2.717961
  O     -1.606996   -0.864180    0.597297
  C     -1.972600   -2.204167    0.119598
  C     -0.899824   -3.149041    0.596965
  H      4.329733   -1.634474    1.052026
  H      3.613774   -3.201491    0.594080
  H      5.360922   -2.932945    0.432893
  H      4.342771   -2.802852   -1.798413
  H      4.914737   -1.183040   -1.334297
  H      3.060420   -0.020963    2.169788
  H      1.747064    1.141233    1.854242
  H      1.381635   -1.644085    3.104810
  H      1.370105   -0.105597    3.989745
  H      0.084469   -0.455403    2.817733
  H     -0.791926    1.840891   -2.342370
  H      0.788143    2.367717   -1.700559
  H     -3.382754    2.978532    1.172504
  H     -4.716226    1.960993    0.560775
  H     -5.252900    1.257809    2.902614
  H     -3.919031    2.267575    3.516688
  H     -5.324267    3.023587    2.739468
  H     -2.954763   -2.454361    0.532320
  H     -2.034604   -2.179391   -0.971822
  H      0.071409   -2.885990    0.168013
  H     -0.823145   -3.140060    1.687952
  H     -1.156199   -4.163428    0.276557

----------------------------
CARTESIAN COORDINATES (A.U.)
----------------------------
  NO LB      ZA    FRAG     MASS         X           Y           Z
   0 C     6.0000    0    12.011    8.271906   -4.651533    0.637540
   1 C     6.0000    0    12.011    7.962684   -3.753127   -2.052247
   2 O     8.0000    0    15.999    5.386580   -2.848221   -2.574613
   3 P    15.0000    0    30.974    4.328261   -0.266797   -1.369110
   4 S    16.0000    0    32.060    6.551148    2.665031   -1.278272
   5 O     8.0000    0    15.999    3.209657   -1.140697    1.323321
   6 C     6.0000    0    12.011    3.762859    0.153537    3.709494
   7 C     6.0000    0    12.011    2.174347   -1.091566    5.720341
   8 S    16.0000    0    32.060    1.156383   -0.071153   -3.815654
   9 C     6.0000    0    12.011   -0.029475    3.083283   -3.025184
  10 S    16.0000    0    32.060   -1.333127    3.549634    0.160385
  11 P    15.0000    0    30.974   -4.341868    0.901352    0.111350
  12 S    16.0000    0    32.060   -6.241141    0.685615   -3.030408
  13 O     8.0000    0    15.999   -5.864882    1.731167    2.614152
  14 C     6.0000    0    12.011   -7.539753    3.947053    2.587293
  15 C     6.0000    0    12.011   -8.801592    4.074989    5.136203
  16 O     8.0000    0    15.999   -3.036783   -1.633063    1.128727
  17 C     6.0000    0    12.011   -3.727674   -4.165272    0.226007
  18 C     6.0000    0    12.011   -1.700421   -5.950824    1.128101
  19 H     1.0000    0     1.008    8.182009   -3.088708    1.988042
  20 H     1.0000    0     1.008    6.829042   -6.049942    1.122649
  21 H     1.0000    0     1.008   10.130674   -5.542463    0.818049
  22 H     1.0000    0     1.008    8.206648   -5.296623   -3.398507
  23 H     1.0000    0     1.008    9.287506   -2.235622   -2.521456
  24 H     1.0000    0     1.008    5.783356   -0.039614    4.100305
  25 H     1.0000    0     1.008    3.301473    2.156617    3.504009
  26 H     1.0000    0     1.008    2.610911   -3.106871    5.867241
  27 H     1.0000    0     1.008    2.589124   -0.199550    7.539525
  28 H     1.0000    0     1.008    0.159623   -0.860587    5.324744
  29 H     1.0000    0     1.008   -1.496524    3.478781   -4.426438
  30 H     1.0000    0     1.008    1.489374    4.474336   -3.213591
  31 H     1.0000    0     1.008   -6.392478    5.628609    2.215712
  32 H     1.0000    0     1.008   -8.912375    3.705739    1.059711
  33 H     1.0000    0     1.008   -9.926543    2.376914    5.485145
  34 H     1.0000    0     1.008   -7.405896    4.285096    6.645576
  35 H     1.0000    0     1.008  -10.061407    5.713751    5.176845
  36 H     1.0000    0     1.008   -5.583693   -4.638070    1.005939
  37 H     1.0000    0     1.008   -3.844845   -4.118451   -1.836478
  38 H     1.0000    0     1.008    0.134943   -5.453730    0.317499
  39 H     1.0000    0     1.008   -1.555518   -5.933853    3.189766
  40 H     1.0000    0     1.008   -2.184899   -7.867739    0.522616

------------------------------------------------------------------------------
                   ___                                                        
                  /   \      - P O W E R E D   B Y -                         
                 /     \                                                     
                 |  |  |   _    _      __       _____    __    __             
                 |  |  |  | |  | |    /  \     |  _  \  |  |  /  |          
                  \  \/   | |  | |   /    \    | | | |  |  | /  /          
                 / \  \   | |__| |  /  /\  \   | |_| |  |  |/  /          
                |  |  |   |  __  | /  /__\  \  |    /   |      \           
                |  |  |   | |  | | |   __   |  |    \   |  |\   \          
                \     /   | |  | | |  |  |  |  | |\  \  |  | \   \       
                 \___/    |_|  |_| |__|  |__|  |_| \__\ |__|  \__/        
                                                                              
                      - O R C A' S   B I G   F R I E N D -                    
                                      &                                       
                       - I N T E G R A L  F E E D E R -                       
                                                                              
 v1 FN, 2020, v2 2021, v3 2022-2024                                           
------------------------------------------------------------------------------


----------------------
SHARK INTEGRAL PACKAGE
----------------------

Number of atoms                             ...     41
Number of basis functions                   ...    539
Number of shells                            ...    253
Maximum angular momentum                    ...      2
Integral batch strategy                     ... SHARK/LIBINT Hybrid
RI-J (if used) integral strategy            ... SPLIT-RIJ (Revised 2003 algorithm where possible)
Printlevel                                  ...      1
Contraction scheme used                     ... SEGMENTED contraction
Prescreening option                         ... SCHWARTZ
   Thresh                                   ... 3.000e-11
   Tcut                                     ... 1.000e-12
   Tpresel                                  ... 1.000e-12 
Coulomb Range Separation                    ... NOT USED
Exchange Range Separation                   ... NOT USED
Multipole approximations                    ... NOT USED
Finite Nucleus Model                        ... NOT USED
CABS basis                                  ... NOT available
Auxiliary Coulomb fitting basis             ... AVAILABLE
   # of basis functions in Aux-J            ...   1185
   # of shells in Aux-J                     ...    407
   Maximum angular momentum in Aux-J        ...      4
Auxiliary J/K fitting basis                 ... NOT available
Auxiliary Correlation fitting basis         ... NOT available
Auxiliary 'external' fitting basis          ... NOT available

Checking pre-screening integrals            ... done (  0.0 sec) Dimension = 253
Check shell pair data                       ... done (  0.0 sec)
Shell pair information
Shell pair cut-off parameter TPreSel        ...   1.0e-12
Total number of shell pairs                 ...     32131
Shell pairs after pre-screening             ...     22270
Total number of primitive shell pairs       ...    124843
Primitive shell pairs kept                  ...     52042
          la=0 lb=0:   6362 shell pairs
          la=1 lb=0:   8091 shell pairs
          la=1 lb=1:   2625 shell pairs
          la=2 lb=0:   2949 shell pairs
          la=2 lb=1:   1886 shell pairs
          la=2 lb=2:    357 shell pairs

Calculating one electron integrals          ... done (  0.1 sec)
Calculating RI/J V-Matrix + Cholesky decomp.... done (  0.2 sec)
Calculating Nuclear repulsion               ... done (  0.0 sec) ENN=   2741.601005401937 Eh

Diagonalization of the overlap matrix:
Smallest eigenvalue                        ... 2.486e-04
Time for diagonalization                   ...    0.032 sec
Threshold for overlap eigenvalues          ... 1.000e-07
Number of eigenvalues below threshold      ... 0
Time for construction of square roots      ...    0.057 sec
Total time needed                          ...    0.098 sec

-------------------
DFT GRID GENERATION
-------------------

General Integration Accuracy     IntAcc      ... 4.388
Radial Grid Type                 RadialGrid  ... OptM3 with GC (2021)
Angular Grid (max. ang.)         AngularGrid ... 4 (Lebedev-302)
Angular grid pruning method      GridPruning ... 4 (adaptive)
Weight generation scheme         WeightScheme... mBecke (2022)
Basis function cutoff            BFCut       ... 1.0000e-11
Integration weight cutoff        WCut        ... 1.0000e-14
Partially contracted basis set               ... off
Rotationally invariant grid construction     ... off
Angular grids for H and He will be reduced by one unit
Diffuse basis detected: some atoms will have their outermost
                        angular grid increased by 1.

Total number of grid points                  ...   192693
Total number of batches                      ...     3032
Average number of points per batch           ...       63
Average number of grid points per atom       ...     4700
Initializing property integral containers    ... done (  0.0 sec)

SHARK setup successfully completed in   3.4 seconds

Maximum memory used throughout the entire STARTUP-calculation: 103.3 MB
Occupation numbers will be reassigned to an Aufbau configuration
             **** ENERGY FILE WAS UPDATED (xtb_opt.en.tmp) ****
Finished Guess after   1.1 sec
Maximum memory used throughout the entire GUESS-calculation: 56.8 MB
--------------------
CPCM SOLVATION MODEL
--------------------
CPCM parameters:
  Epsilon                                         ...      78.3550
  Refrac                                          ...       1.3328
  Rsolv                                           ...       1.3000
  Surface type                                    ... GAUSSIAN VDW
  Discretization scheme                           ... Constant charge density
    Threshold for H atoms                         ...       5.0000 (charges/Ang^2)
    Threshold for non-H atoms                     ...       5.0000 (charges/Ang^2)
  Epsilon function type                           ...         CPCM
Solvent:                                          ... WATER
SMD-CDS solvent descriptors:
  Soln                                            ...       1.3328
  Soln25                                          ...       1.3323
  Sola                                            ...       0.0000
  Solb                                            ...       0.0000
  Solg                                            ...       0.0000
  Solc                                            ...       0.0000
  Solh                                            ...       0.0000
Radii:
  Scheme                                          ... Element-dependent radii
  Radius for C  used is    3.4960 Bohr (=   1.8500 Ang.)
  Radius for O  used is    2.8724 Bohr (=   1.5200 Ang.)
  Radius for P  used is    4.0062 Bohr (=   2.1200 Ang.)
  Radius for S  used is    4.7054 Bohr (=   2.4900 Ang.)
  Radius for H  used is    2.2677 Bohr (=   1.2000 Ang.)
Calculating surface                               ...        done! (  0.0s)
Cavity surface points                             ...         3494
Cavity Volume                                     ...    2827.7578
Cavity Surface-area                               ...    1437.5148
Calculating surface distance matrix               ...        done! (  0.1s)
Performing Cholesky decomposition & store         ...        done! (  0.9s)
Overall time for CPCM initialization              ...                 1.0s

----------------------------------------D-I-I-S--------------------------------------------
Iteration    Energy (Eh)           Delta-E    RMSDP     MaxDP     DIISErr   Damp  Time(sec)
-------------------------------------------------------------------------------------------
               ***  Starting incremental Fock matrix formation  ***
                              *** Initializing SOSCF ***
---------------------------------------S-O-S-C-F--------------------------------------
Iteration    Energy (Eh)           Delta-E    RMSDP     MaxDP     MaxGrad    Time(sec)
--------------------------------------------------------------------------------------
    1    -2932.5196720307335454     0.00e+00  1.44e-06  8.16e-05  5.49e-06    15.1
               *** Restarting incremental Fock matrix formation ***
    2    -2932.5196720388553331    -8.12e-09  2.01e-06  1.18e-04  1.42e-05    13.9
                  *** Gradient check signals convergence ***

               *****************************************************
               *                     SUCCESS                       *
               *           SCF CONVERGED AFTER   2 CYCLES          *
               *****************************************************


SMD CDS free energy correction energy :                 6.87287     Kcal/mol
Total Energy after SMD CDS correction =             -2932.508719426 Eh
             **** ENERGY FILE WAS UPDATED (xtb_opt.en.tmp) ****

----------------
TOTAL SCF ENERGY
----------------

Total Energy       :      -2932.50871942553840 Eh          -79797.61909 eV

Components:
Nuclear Repulsion  :       2741.60100540193662 Eh           74602.75609 eV
Electronic Energy  :      -5674.09368508971784 Eh         -154399.93871 eV
One Electron Energy:      -9505.70575228711823 Eh         -258663.40371 eV
Two Electron Energy:       3831.61206719739994 Eh          104263.46500 eV
CPCM Dielectric    :         -0.02699235107295 Eh              -0.73450 eV
SMD CDS (Gcds)     :          0.01095261331716 Eh               0.29804 eV

Virial components:
Potential Energy   :      -5855.62618943641155 Eh         -159339.68929 eV
Kinetic Energy     :       2923.11747001087315 Eh           79542.07020 eV
Virial Ratio       :          2.00321275128729

DFT components:
N(Alpha)           :      100.999932230116 electrons
N(Beta)            :      100.999932230116 electrons
N(Total)           :      201.999864460232 electrons
E(X)               :     -233.402321357241 Eh       
E(C)               :       -7.104013593464 Eh       
E(XC)              :     -240.506334950705 Eh       

CPCM Solvation Model Properties:
Surface-charge          :         -0.04377460092033
Corrected charge        :          0.00000000000000
Outlying charge corr.   :          0.00009765069619 Eh               0.00266 eV
Free-energy (cav+disp)  :          0.01095261331716 Eh               0.29804 eV

---------------
SCF CONVERGENCE
---------------

  Last Energy change         ...    8.1218e-09  Tolerance :   1.0000e-07
  Last MAX-Density change    ...    1.1809e-04  Tolerance :   1.0000e-07
  Last RMS-Density change    ...    2.0079e-06  Tolerance :   5.0000e-09
  Last DIIS Error            ...    9.7738e-05  Tolerance :   1.0000e-07
  Last Orbital Gradient      ...    1.4218e-05  Tolerance :   1.0000e-04
  Last Orbital Rotation      ...    3.4810e-05  Tolerance :   1.0000e-04


----------------
ORBITAL ENERGIES
----------------

  NO   OCC          E(Eh)            E(eV) 
   0   2.0000     -88.582448     -2410.4510 
   1   2.0000     -88.581961     -2410.4377 
   2   2.0000     -88.531982     -2409.0777 
   3   2.0000     -88.531802     -2409.0728 
   4   2.0000     -76.921485     -2093.1400 
   5   2.0000     -76.921003     -2093.1269 
   6   2.0000     -18.995500      -516.8938 
   7   2.0000     -18.993550      -516.8408 
   8   2.0000     -18.992394      -516.8093 
   9   2.0000     -18.990448      -516.7564 
  10   2.0000     -10.110744      -275.1273 
  11   2.0000     -10.093252      -274.6514 
  12   2.0000     -10.092607      -274.6338 
  13   2.0000     -10.091607      -274.6066 
  14   2.0000     -10.089822      -274.5580 
  15   2.0000     -10.022555      -272.7276 
  16   2.0000     -10.022533      -272.7270 
  17   2.0000     -10.021470      -272.6981 
  18   2.0000     -10.021167      -272.6898 
  19   2.0000      -7.875946      -214.3154 
  20   2.0000      -7.875603      -214.3061 
  21   2.0000      -7.827279      -212.9911 
  22   2.0000      -7.827045      -212.9847 
  23   2.0000      -6.599255      -179.5749 
  24   2.0000      -6.598682      -179.5593 
  25   2.0000      -5.822984      -158.4514 
  26   2.0000      -5.822560      -158.4399 
  27   2.0000      -5.819783      -158.3643 
  28   2.0000      -5.819357      -158.3528 
  29   2.0000      -5.813089      -158.1822 
  30   2.0000      -5.812897      -158.1770 
  31   2.0000      -5.774686      -157.1372 
  32   2.0000      -5.774538      -157.1332 
  33   2.0000      -5.767621      -156.9450 
  34   2.0000      -5.767582      -156.9439 
  35   2.0000      -5.767356      -156.9377 
  36   2.0000      -5.766856      -156.9241 
  37   2.0000      -4.744512      -129.1047 
  38   2.0000      -4.744226      -129.0970 
  39   2.0000      -4.744006      -129.0910 
  40   2.0000      -4.743391      -129.0742 
  41   2.0000      -4.743301      -129.0718 
  42   2.0000      -4.742942      -129.0620 
  43   2.0000      -1.040784       -28.3212 
  44   2.0000      -1.037767       -28.2391 
  45   2.0000      -1.001603       -27.2550 
  46   2.0000      -1.000071       -27.2133 
  47   2.0000      -0.796157       -21.6645 
  48   2.0000      -0.757773       -20.6201 
  49   2.0000      -0.744239       -20.2518 
  50   2.0000      -0.724746       -19.7213 
  51   2.0000      -0.724275       -19.7085 
  52   2.0000      -0.709475       -19.3058 
  53   2.0000      -0.692340       -18.8395 
  54   2.0000      -0.677302       -18.4303 
  55   2.0000      -0.628732       -17.1087 
  56   2.0000      -0.612693       -16.6722 
  57   2.0000      -0.592011       -16.1094 
  58   2.0000      -0.590815       -16.0769 
  59   2.0000      -0.585372       -15.9288 
  60   2.0000      -0.531477       -14.4622 
  61   2.0000      -0.521872       -14.2009 
  62   2.0000      -0.493056       -13.4167 
  63   2.0000      -0.489467       -13.3191 
  64   2.0000      -0.472596       -12.8600 
  65   2.0000      -0.453343       -12.3361 
  66   2.0000      -0.448176       -12.1955 
  67   2.0000      -0.442191       -12.0326 
  68   2.0000      -0.440598       -11.9893 
  69   2.0000      -0.425860       -11.5883 
  70   2.0000      -0.415800       -11.3145 
  71   2.0000      -0.412518       -11.2252 
  72   2.0000      -0.408149       -11.1063 
  73   2.0000      -0.395862       -10.7720 
  74   2.0000      -0.389288       -10.5931 
  75   2.0000      -0.387913       -10.5557 
  76   2.0000      -0.379179       -10.3180 
  77   2.0000      -0.366560        -9.9746 
  78   2.0000      -0.358893        -9.7660 
  79   2.0000      -0.356638        -9.7046 
  80   2.0000      -0.351933        -9.5766 
  81   2.0000      -0.350642        -9.5414 
  82   2.0000      -0.346673        -9.4335 
  83   2.0000      -0.342769        -9.3272 
  84   2.0000      -0.340024        -9.2525 
  85   2.0000      -0.331944        -9.0327 
  86   2.0000      -0.321057        -8.7364 
  87   2.0000      -0.317709        -8.6453 
  88   2.0000      -0.312952        -8.5159 
  89   2.0000      -0.307539        -8.3686 
  90   2.0000      -0.301982        -8.2173 
  91   2.0000      -0.292510        -7.9596 
  92   2.0000      -0.285764        -7.7760 
  93   2.0000      -0.279615        -7.6087 
  94   2.0000      -0.273377        -7.4390 
  95   2.0000      -0.250952        -6.8288 
  96   2.0000      -0.242051        -6.5865 
  97   2.0000      -0.238085        -6.4786 
  98   2.0000      -0.232918        -6.3380 
  99   2.0000      -0.225070        -6.1245 
 100   2.0000      -0.221813        -6.0358 
 101   0.0000      -0.054647        -1.4870 
 102   0.0000      -0.030442        -0.8284 
 103   0.0000      -0.011838        -0.3221 
 104   0.0000      -0.002344        -0.0638 
 105   0.0000       0.002054         0.0559 
 106   0.0000       0.018670         0.5080 
 107   0.0000       0.025490         0.6936 
 108   0.0000       0.031005         0.8437 
 109   0.0000       0.037043         1.0080 
 110   0.0000       0.063232         1.7206 
 111   0.0000       0.072384         1.9697 
*Only the first 10 virtual orbitals were printed.
Total SCF time: 0 days 0 hours 0 min 31 sec 
Finished LeanSCF after  31.9 sec

Maximum memory used throughout the entire LEANSCF-calculation: 141.6 MB


-------------------------------------------------------------------------------
                          DFT DISPERSION CORRECTION                            
                                                                               
                                DFTD4 V3.4.0                                   
-------------------------------------------------------------------------------
-------------------------   ----------------
Dispersion correction           -0.021142787
-------------------------   ----------------

------------------   -----------------
gCP correction             0.044862022
------------------   -----------------

-------------------------   --------------------
FINAL SINGLE POINT ENERGY     -2932.485000190687
-------------------------   --------------------

------------------------------------------------------------------------------
                         ORCA SCF GRADIENT CALCULATION
------------------------------------------------------------------------------

Nuc. rep. gradient        (SHARK) ... done (  0.0 sec)
HCore & Overlap gradient  (SHARK) ... done (  2.2 sec)
Split-RIJ-J gradient      (SHARK) ... done (  9.8 sec)
XC gradient                       ... done ( 23.6 sec)
CPCM gradient                     ... done (  8.8 sec)
SMD gradient                      ... done (  0.0 sec)
Dispersion correction             ... done (  0.0 sec)

-------------------
DISPERSION GRADIENT
-------------------

   1   C   :    0.000121209   -0.000107931    0.000017317
   2   C   :    0.000108667   -0.000075679   -0.000049411
   3   O   :    0.000094751   -0.000069393   -0.000097981
   4   P   :    0.000259074    0.000083068   -0.000155496
   5   S   :    0.000229037    0.000212856   -0.000073573
   6   O   :    0.000097186    0.000000060    0.000082948
   7   C   :    0.000092705    0.000050816    0.000169903
   8   C   :    0.000039650   -0.000011278    0.000232991
   9   S   :    0.000052663    0.000073064   -0.000348141
  10   C   :    0.000002882    0.000127523   -0.000129433
  11   S   :   -0.000058139    0.000305895   -0.000061269
  12   P   :   -0.000264235    0.000059884   -0.000079023
  13   S   :   -0.000231021   -0.000000317   -0.000204457
  14   O   :   -0.000101121    0.000046660    0.000059476
  15   C   :   -0.000089402    0.000072955    0.000046427
  16   C   :   -0.000080291    0.000047718    0.000090440
  17   O   :   -0.000114693   -0.000103289    0.000026992
  18   C   :   -0.000111466   -0.000161155   -0.000003616
  19   C   :   -0.000068885   -0.000217955    0.000032743
  20   H   :    0.000058441   -0.000041237    0.000010964
  21   H   :    0.000052001   -0.000061007    0.000003140
  22   H   :    0.000037277   -0.000036592    0.000008436
  23   H   :    0.000028985   -0.000040534   -0.000022318
  24   H   :    0.000040367   -0.000020355   -0.000019575
  25   H   :    0.000020150    0.000015984    0.000066765
  26   H   :    0.000034941    0.000030963    0.000070577
  27   H   :    0.000008388   -0.000010340    0.000084189
  28   H   :    0.000008979    0.000000715    0.000060220
  29   H   :    0.000027199   -0.000010325    0.000102039
  30   H   :   -0.000006950    0.000037817   -0.000052796
  31   H   :    0.000010427    0.000054516   -0.000038742
  32   H   :   -0.000028458    0.000040307    0.000028937
  33   H   :   -0.000042961    0.000019342    0.000012650
  34   H   :   -0.000030992    0.000009934    0.000034611
  35   H   :   -0.000026683    0.000018329    0.000039599
  36   H   :   -0.000020749    0.000016362    0.000022113
  37   H   :   -0.000024793   -0.000059496    0.000010195
  38   H   :   -0.000040446   -0.000063807   -0.000013591
  39   H   :   -0.000041770   -0.000102694    0.000007335
  40   H   :   -0.000028029   -0.000076014    0.000023563
  41   H   :   -0.000013898   -0.000055372    0.000004852

Difference to translation invariance:
           :   -0.0000000000    0.0000000000   -0.0000000000

Difference to rotation invariance:
           :   -0.0000000000   -0.0000000000   -0.0000000000

Norm of the Dispersion gradient    ...    0.0010459691
RMS gradient                       ...    0.0000943119
MAX gradient                       ...    0.0003481412
gCP correction                   ... done

------------------
CARTESIAN GRADIENT
------------------

   1   C   :    0.000099046   -0.000073068    0.000090816
   2   C   :   -0.000359658    0.000199658   -0.000199165
   3   O   :    0.000053371   -0.000036636   -0.000042664
   4   P   :   -0.000033603   -0.000056412   -0.000000127
   5   S   :    0.000072439   -0.000016817   -0.000064246
   6   O   :   -0.000133583    0.000408091    0.000241125
   7   C   :    0.000045061   -0.000286845   -0.000532974
   8   C   :   -0.000083487    0.000000653    0.000316720
   9   S   :   -0.000122502    0.000071205    0.000199542
  10   C   :    0.000596422    0.000013777    0.000225359
  11   S   :    0.000051302   -0.000418334   -0.000587502
  12   P   :    0.000071980    0.000398159    0.000024994
  13   S   :    0.000094165   -0.000077780    0.000324608
  14   O   :   -0.000329736   -0.000029930    0.000042595
  15   C   :    0.000204480   -0.000457143   -0.000066379
  16   C   :   -0.000147635    0.000262028    0.000106201
  17   O   :   -0.000169822   -0.000200575   -0.000205745
  18   C   :    0.000085453    0.000353340    0.000171191
  19   C   :   -0.000039975   -0.000318061   -0.000099577
  20   H   :    0.000011833    0.000021340    0.000001247
  21   H   :   -0.000010068    0.000014633    0.000016438
  22   H   :   -0.000001745   -0.000002224    0.000024322
  23   H   :    0.000085849   -0.000022928    0.000031688
  24   H   :    0.000038514   -0.000017669    0.000027180
  25   H   :   -0.000028943    0.000031624   -0.000007790
  26   H   :   -0.000002849    0.000017687    0.000053545
  27   H   :    0.000038872    0.000009032   -0.000005537
  28   H   :   -0.000112911    0.000003197   -0.000018778
  29   H   :    0.000121861    0.000081852   -0.000018507
  30   H   :   -0.000121688   -0.000034819    0.000088488
  31   H   :   -0.000068062    0.000068969   -0.000098002
  32   H   :    0.000026238   -0.000002156    0.000060491
  33   H   :    0.000005902    0.000116687   -0.000041576
  34   H   :    0.000045015   -0.000040343   -0.000072064
  35   H   :   -0.000004375   -0.000065498    0.000009926
  36   H   :    0.000019281   -0.000075416    0.000039084
  37   H   :   -0.000048511    0.000004584    0.000043003
  38   H   :   -0.000038122   -0.000064075   -0.000048780
  39   H   :   -0.000019214    0.000116257    0.000050961
  40   H   :   -0.000043860    0.000020828   -0.000070033
  41   H   :    0.000153266    0.000083130   -0.000010080

Difference to translation invariance:
           :   -0.0000000001    0.0000000000    0.0000000000

Difference to rotation invariance:
           :    0.0000747258    0.0005267283    0.0005829777

Norm of the Cartesian gradient     ...    0.0018174445
RMS gradient                       ...    0.0001638735
MAX gradient                       ...    0.0005964222

-------
TIMINGS
-------

Total SCF gradient time     ....       50.639 sec

Densities                   ....       0.007 sec  (  0.0%)
One electron gradient       ....       2.166 sec  (  4.3%)
RI-J Coulomb gradient       ....       9.783 sec  ( 19.3%)
XC gradient                 ....      23.637 sec  ( 46.7%)
CPCM gradient               ....       8.844 sec  ( 17.5%)
   A-Matrix (El+Nuc)        ....       0.274 sec  (  0.5%)
   Potential                ....       8.570 sec  ( 16.9%)
SMD gradient                ....       0.026 sec  (  0.1%)

Maximum memory used throughout the entire SCFGRAD-calculation: 86.5 MB

------------------------------------------------------------------------------
                              ORCA PROPERTY CALCULATIONS
------------------------------------------------------------------------------

GBWName                                 ... xtb_opt.gbw
Number of atoms                         ...     41
Number of basis functions               ...    539
Max core memory                         ...   1024 MB

Electric properties:
Dipole moment                           ... YES
Quadrupole moment                       ...  NO
Static polarizability (Dipole/Dipole)   ...  NO
Static polarizability (Dipole/Quad.)    ...  NO
Static polarizability (Quad./Quad.)     ...  NO
Static polarizability (Velocity)        ...  NO

Atomic electric properties:
Dipole moment                           ...  NO
Quadrupole moment                       ...  NO
Static polarizability                   ...  NO

Choice of electric origin               ... Center of mass
Position of electric origin             ...     0.012470     0.138431    -0.116119

General magnetic properties:
Magnetizability                         ...  NO

EPR properties:
g-Tensor (aka g-matrix)                 ...  NO
Zero-Field splitting spin-orbit         ...  NO
Zero-field splitting spin-spin          ...  NO
Hyperfine couplings                     ...  NO (   0 nuclei)
Quadrupole couplings                    ...  NO (   0 nuclei)
Contact density                         ...  NO (   0 nuclei)

NMR properties:
Chemical shifts                         ...  NO (   0 nuclei)
Spin-rotation constants                 ...  NO (   0 nuclei)
Spin-spin couplings                     ...  NO (   0 nuclei,    0 pairs)

Choice of magnetic origin               ... GIAO
Position of magnetic origin             ...     0.000000     0.000000     0.000000

Properties with geometric perturbations:
SCF Hessian                             ...  NO
IR spectrum                             ...  NO
VCD spectrum                            ...  NO
X-ray spectroscopy properties:
SCF XES/XAS/RIXS spectra                ...  NO


-------------
DIPOLE MOMENT
-------------

Method             : SCF
Type of density    : Electron Density
Multiplicity       :   1
Irrep              :   0
Energy             : -2932.5087194255384020 Eh
Relativity type    : 
Basis              : AO
                                X                 Y                 Z
Electronic contribution:     -0.381473690      12.202842362     -20.191054152
Nuclear contribution   :      0.543473710     -13.037987027      21.991367985
                        -----------------------------------------
Total Dipole Moment    :      0.162000020      -0.835144664       1.800313833
                        -----------------------------------------
Magnitude (a.u.)       :      1.991190728
Magnitude (Debye)      :      5.061204609



--------------------
Rotational spectrum 
--------------------
 
Rotational constants in cm-1:             0.012493             0.004745             0.004656 
Rotational constants in MHz :           374.534238           142.252327           139.586523 

Dipole components along the rotational axes: 
x,y,z [a.u.] :     0.081605    -1.817191     0.809936 
x,y,z [Debye]:     0.207423    -4.618933     2.058695 

 

Dipole moment calculation done in   0.0 sec 

Maximum memory used throughout the entire PROP-calculation: 53.1 MB

--------------------------------
SUGGESTED CITATIONS FOR THIS RUN
--------------------------------

Below you find a list of papers that are relevant to this ORCA run
We neither can nor want to force you to cite these papers, but we appreciate if you do
You receive ORCA, which is the product of decades of hard work by many enthusiastic individuals, for free
The only thing we kindly ask in return is that you cite our papers,
We deeply appreciate it, if you show your appreciation for ORCA by not just citing the generic ORCA reference.

Please note that relegating all ORCA citations to the supporting information does *not* help us.
SI sections are not indexed - citations you put there will not count into any citation statistics
But we need these citations in order to attract the funding resources that allow us to do what we are doing

Therefore, if you are a happy ORCA user, please consider citing a few of the papers listed below in the main body of your paper

In addition to the list printed below, the program has created the file xtb_opt.bibtex that contains the list in bibtex format
You can import this file easily into all common literature databanks and citation aid programs


List of essential papers. We consider these as the minimum necessary citations

  1. Neese,F.
     Software update: the ORCA program system, version 5.0
     WIRES Comput. Molec. Sci., 2022 12(1)e1606
     doi.org/10.1002/wcms.1606
  2. Grimme,S.; Hansen,A.; Ehlert,S.; Mewes,J.
     r2SCAN-3c: A 'Swiss army knife' composite electronic-structure method
     J. Chem. Phys., 2021 154 064103
     doi.org/10.1063/5.0040021

List of papers to cite with high priority. The work reported in these papers was absolutely
necessary for this run to complete.
Our perspective: the developers of density functionals and basis sets usually get cited in chemistry papers
Good! But without the algorithms to do something with them, the functionals or basis sets would not do anything.
Hence, in our opinion, the algorithm design and method developments papers are equally worthy of getting cited

  1. Neese,F.
     An improvement of the resolution of the identity approximation for the formation of the Coulomb matrix
     J. Comp. Chem., 2003 24(14)1740-1747
     doi.org/10.1002/jcc.10318
  2. Garcia-Rates,M.; Neese,F.
     Effect of the Solute Cavity on the Solvation Energy and its Derivatives within the Framework of the Gaussian Charge Scheme
     J. Comput. Chem., 2020 41 922-939
     doi.org/10.1002/jcc.26139
  3. Neese,F.
     The SHARK Integral Generation and Digestion System
     J. Comp. Chem., 2022  1-16
     doi.org/10.1002/jcc.26942
  4. Lehtola,S.; Steigemann,C.; Oliveira,M.; Marques,M.
     Recent developments in Libxc - A comprehensive library of functionals for density functional theory
     Software X, 2018 7 
     doi.org/10.1016/j.softx.2017.11.002
  5. Caldeweyher,E.; Bannwarth,C.; Grimme,S.
     Extension of the D3 dispersion coefficient model
     J. Chem. Phys., 2017 147 034112-XXXX
     doi.org/10.1063/1.4993215
  6. Caldeweyher,E.; Ehlert,S.; Hansen,A.; Neugebauer,H.; Spicher,S.; Bannwarth,C.; Grimme,S.
     A generally applicable atomic-charge dependent London dispersion correction
     J. Chem. Phys., 2019 150 154122-XXXX
     doi.org/10.1063/1.5090222
  7. Caldeweyher,E.; Mewes,J.; Ehlert,S.; Grimme,S.
     Extension and evaluation of the D4 London-dispersion model for periodic systems
     Phys. Chem. Chem. Phys., 2020 22(16)8499-8512
     doi.org/10.1039/D0CP00502A

List of suggested additional citations. These are papers that are important in the 'surrounding' of 
of this run, or papers that preceded the highly important papers. If you like your results we are grateful for a citation.

  1. Neese,F.
     The ORCA program system
     WIRES Comput. Molec. Sci., 2012 2(1)73-78
     doi.org/10.1002/wcms.81
  2. Neese,F.
     Software update: the ORCA program system, version 4.0
     WIRES Comput. Molec. Sci., 2018 8(1)1-6
     doi.org/10.1002/wcms.1327
  3. Neese,F.; Wennmohs,F.; Becker,U.; Riplinger,C.
     The ORCA quantum chemistry program package
     J. Chem. Phys., 2020 152 Art. No. L224108
     doi.org/10.1063/5.0004608

List of optional additional citations

  1. Neese,F.
     Approximate second-order SCF convergence for spin unrestricted wavefunctions
     Chem. Phys. Lett., 2000 325(1-3)93-98
     doi.org/10.1016/s0009-2614(00)00662-x

Timings for individual modules:

Sum of individual times          ...       87.575 sec (=   1.460 min)
Startup calculation              ...        3.501 sec (=   0.058 min)   4.0 %
SCF iterations                   ...       33.092 sec (=   0.552 min)  37.8 %
Property calculations            ...        0.170 sec (=   0.003 min)   0.2 %
SCF Gradient evaluation          ...       50.812 sec (=   0.847 min)  58.0 %
                             ****ORCA TERMINATED NORMALLY****
TOTAL RUN TIME: 0 days 0 hours 1 minutes 29 seconds 45 msec
  ------------------------------------------------------------------------
          * successful ORCA run, taking over control again...

         :::::::::::::::::::::::::::::::::::::::::::::::::::::
         ::                  ORCA SUMMARY                   ::
         :::::::::::::::::::::::::::::::::::::::::::::::::::::
         :: total energy           -2932.485000190687 Eh    ::
         :: gradient norm              0.001817444485 Eh/a0 ::
         :: HOMO-LUMO gap              0.000000000000 eV    ::
         :::::::::::::::::::::::::::::::::::::::::::::::::::::

      ----------------------------------------------------------- 
     |                       L-ANC optimizer                     |
      ----------------------------------------------------------- 
          low memory version by Sebastian Ehlert

          ...................................................
          :                      SETUP                      :
          :.................................................:
          :   energy convergence        0.5000000E-05 Eh    :
          :   grad. convergence         0.1000000E-02 Eh/a0 :
          :   optimization log               true           :
          :   writing optlog all                1     steps :
          :   Hessian reset                     8     steps :
          :   maximium step len.        1.0000000     a0    :
          :   LBFGS images                      8           :
          ...................................................
 * calculating model hessian...
Using Lindh-Hessian (1995)
 Shifting diagonal of input Hessian by   1.000000000000000E-002
 Lowest  eigenvalues of input Hessian
    0.000000    0.000000    0.000000    0.000000    0.000000    0.000000
    0.010011    0.010053    0.010453    0.010858    0.011123    0.011308
    0.011795    0.011951    0.012082    0.012344    0.012819    0.013174
 Highest eigenvalues
    1.291427    1.295316    1.699378    1.746786    1.878994    1.902082
 

........................................................................
.............................. CYCLE    1 ..............................
........................................................................
                         * ORCA takes the control...
  ------------------------------------------------------------------------

                                 *****************
                                 * O   R   C   A *
                                 *****************

                                            #,                                       
                                            ###                                      
                                            ####                                     
                                            #####                                    
                                            ######                                   
                                           ########,                                 
                                     ,,################,,,,,                         
                               ,,#################################,,                 
                          ,,##########################################,,             
                       ,#########################################, ''#####,          
                    ,#############################################,,   '####,        
                  ,##################################################,,,,####,       
                ,###########''''           ''''###############################       
              ,#####''   ,,,,##########,,,,          '''####'''          '####       
            ,##' ,,,,###########################,,,                        '##       
           ' ,,###''''                  '''############,,,                           
         ,,##''                                '''############,,,,        ,,,,,,###''
      ,#''                                            '''#######################'''  
     '                                                          ''''####''''         
             ,#######,   #######,   ,#######,      ##                                
            ,#'     '#,  ##    ##  ,#'     '#,    #''#        ,####,   ,####,        
            ##       ##  ##   ,#'  ##            #'  '#       #'       #'  '#        
            ##       ##  #######   ##           ,######,      #####,   #    #        
            '#,     ,#'  ##    ##  '#,     ,#' ,#      #,     #,   #   #,  ,#        
             '#######'   ##     ##  '#######'  #'      '#     '####' # '####'        



                #########################################################
                #                        -***-                          #
                #          Department of theory and spectroscopy        #
                #                                                       #
                #                      Frank Neese                      #
                #                                                       #
                #     Directorship, Architecture, Infrastructure        #
                #                    SHARK, DRIVERS                     #
                #        Core code/Algorithms in most modules           #
                #                                                       #
                #        Max Planck Institute fuer Kohlenforschung      #
                #                Kaiser Wilhelm Platz 1                 #
                #                 D-45470 Muelheim/Ruhr                 #
                #                      Germany                          #
                #                                                       #
                #                  All rights reserved                  #
                #                        -***-                          #
                #########################################################


                         Program Version 6.0.0  -   RELEASE  -


 With contributions from (in alphabetic order):
   Daniel Aravena         : Magnetic Suceptibility
   Michael Atanasov       : Ab Initio Ligand Field Theory (pilot matlab implementation)
   Alexander A. Auer      : GIAO ZORA, VPT2 properties, NMR spectrum
   Ute Becker             : All parallelization in ORCA, NUMFREQ, NUMCALC
   Giovanni Bistoni       : ED, misc. LED, open-shell LED, HFLD
   Martin Brehm           : Molecular dynamics
   Dmytro Bykov           : pre 5.0 version of the SCF Hessian
   Marcos Casanova-Páez   : Triplet and SCS-CIS(D). UHF-(DLPNO)-IP/EA/STEOM-CCSD. UHF-CVS-IP/STEOM-CCSD
   Vijay G. Chilkuri      : MRCI spin determinant printing, contributions to CSF-ICE
   Pauline Colinet        : FMM embedding
   Dipayan Datta          : RHF DLPNO-CCSD density
   Achintya Kumar Dutta   : EOM-CC, STEOM-CC
   Nicolas Foglia         : Exact transition moments, OPA infrastructure, MCD improvements
   Dmitry Ganyushin       : Spin-Orbit,Spin-Spin,Magnetic field MRCI
   Miquel Garcia          : C-PCM and meta-GGA Hessian, CCSD/C-PCM, Gaussian charge scheme
   Tiago L. C. Gouveia    : GS-ROHF, GS-ROCIS
   Yang Guo               : DLPNO-NEVPT2, F12-NEVPT2, CIM, IAO-localization
   Andreas Hansen         : Spin unrestricted coupled pair/coupled cluster methods
   Ingolf Harden          : AUTO-CI MPn and infrastructure 
   Benjamin Helmich-Paris : MC-RPA, TRAH-(SCF,CASSCF), AVAS, COSX integrals, SCF dyn. polar.
   Lee Huntington         : MR-EOM, pCC
   Robert Izsak           : Overlap fitted RIJCOSX, COSX-SCS-MP3, EOM
   Riya Kayal             : Wick's Theorem for AUTO-CI, AUTO-CI UHF-CCSDT
   Emily Kempfer          : AUTO-CI, RHF CISDT and CCSDT
   Christian Kollmar      : KDIIS, OOCD, Brueckner-CCSD(T), CCSD density, CASPT2, CASPT2-K, improved NEVPT2
   Axel Koslowski         : Symmetry handling
   Simone Kossmann        : Meta GGA functionals, TD-DFT gradient, OOMP2, (MP2 Hessian; deprecated post 5.0)
   Lucas Lang             : DCDCAS
   Marvin Lechner         : AUTO-CI (C++ implementation), FIC-MRCC
   Spencer Leger          : CASSCF response
   Dagmar Lenk            : GEPOL surface, SMD, ORCA-2-JSON
   Dimitrios Liakos       : Extrapolation schemes; Compound Job, initial MDCI parallelization
   Dimitrios Manganas     : Further ROCIS development; embedding schemes. LFT, Crystal Embedding
   Dimitrios Pantazis     : SARC Basis sets
   Anastasios Papadopoulos: AUTO-CI, single reference methods and gradients
   Taras Petrenko         : pre 6.0 DFT Hessian and TD-DFT gradient, (ASA, deprecated), ECA, 1-Electron XAS/XES, NRVS
   Peter Pinski           : DLPNO-MP2, DLPNO-MP2 Gradient
   Christoph Reimann      : Effective Core Potentials
   Marius Retegan         : Local ZFS, SOC
   Christoph Riplinger    : Optimizer, TS searches, QM/MM, DLPNO-CCSD(T), (RO)-DLPNO pert. Triples
   Michael Roemelt        : Original ROCIS implementation
   Masaaki Saitow         : Open-shell DLPNO-CCSD energy and density
   Barbara Sandhoefer     : DKH picture change effects
   Kantharuban Sivalingam : CASSCF convergence/infrastructure, NEVPT2 and variants, FIC-MRCI
   Bernardo de Souza      : ESD, SOC TD-DFT
   Georgi Stoychev        : AutoAux, RI-MP2 NMR, DLPNO-MP2 response, X2C
   Van Anh Tran           : RI-MP2 g-tensors
   Willem Van den Heuvel  : Paramagnetic NMR
   Zikuan Wang            : NOTCH, Electric field optimization 
   Frank Wennmohs         : Technical directorship and infrastructure
   Hang Xu                : AUTO-CI-Response properties 


 We gratefully acknowledge several colleagues who have allowed us to
 interface, adapt or use parts of their codes:
   Stefan Grimme, W. Hujo, H. Kruse, P. Pracht,  : VdW corrections, initial TS optimization,
                  C. Bannwarth, S. Ehlert,         DFT functionals, gCP, sTDA/sTD-DF
                  L. Wittmann, M. Mueller
   Ed Valeev, F. Pavosevic, A. Kumar             : LibInt (2-el integral package), F12 methods
   Garnet Chan, S. Sharma, J. Yang, R. Olivares  : DMRG
   Ulf Ekstrom                                   : XCFun DFT Library
   Mihaly Kallay                                 : mrcc  (arbitrary order and MRCC methods)
   Frank Weinhold                                : gennbo (NPA and NBO analysis)
   Simon Mueller                                 : openCOSMO-RS
   Christopher J. Cramer and Donald G. Truhlar   : smd solvation model
   Lars Goerigk                                  : TD-DFT with DH, B97 family of functionals
   V. Asgeirsson, H. Jonsson                     : NEB implementation
   FAccTs GmbH                                   : IRC, NEB, NEB-TS, DLPNO-Multilevel, CI-OPT
                                                   MM, QMMM, 2- and 3-layer-ONIOM, Crystal-QMMM,
                                                   LR-CPCM, SF, NACMEs, symmetry and pop. for TD-DFT,
                                                   nearIR, NL-DFT gradient (VV10), updates on ESD,
                                                   ML-optimized integration grids, MBIS, APM,
                                                   GOAT, DOCKER, SOLVATOR, interface openCOSMO-RS
   S Lehtola, MJT Oliveira, MAL Marques          : LibXC Library
   Liviu Ungur et al                             : ANISO software


 Your calculation uses the libint2 library for the computation of 2-el integrals
 For citations please refer to: http://libint.valeyev.net

 Your ORCA version has been built with support for libXC version: 6.2.2
 For citations please refer to: https://libxc.gitlab.io

 This ORCA versions uses:
   CBLAS   interface :  Fast vector & matrix operations
   LAPACKE interface :  Fast linear algebra routines
   SCALAPACK package :  Parallel linear algebra routines
   Shared memory     :  Shared parallel matrices
   BLAS/LAPACK       :  OpenBLAS 0.3.27  USE64BITINT DYNAMIC_ARCH NO_AFFINITY SapphireRapids SINGLE_THREADED
        Core in use  :  SapphireRapids
   Copyright (c) 2011-2014, The OpenBLAS Project




***************************************
The coordinates will be read from file: xtb_opt.xyz
***************************************


Your calculation utilizes the geometrical counterpoise correction gCP
Please cite in your paper:
H.Kruse, S. Grimme J.Chem.Phys., 136, (2012), 154101 
   

Your calculation utilizes the atom-pairwise dispersion correction
based on EEQ partial charges (D4)


Your calculation utilizes the SMD solvation module
Please cite in your paper:
A.V. Marenich, C.J. Cramer, D.G. Truhlar J. Phys. Chem. B, 113, (2009), 6378 

================================================================================

----- Orbital basis set information -----
Your calculation utilizes the basis: def2-mTZVPP
   Stefan Grimme, Andreas Hansen, Sebastian Ehlert, and Jan-Michael Mewes 
   J. Chem. Phys. 154, 064103 (2021). DOI: 10.1063/5.0040021

----- AuxJ basis set information -----
Your calculation utilizes the auxiliary basis: def2/J
   F. Weigend, Phys. Chem. Chem. Phys. 8, 1057 (2006).

================================================================================
                                        WARNINGS
                       Please study these warnings very carefully!
================================================================================

WARNING: Old DensityContainer found on disk!
         Will remove this file - 
         If you want to keep old densities, please start your calculation with a different basename. 

Using LibXC functional ID 497 : Re-regularized SCAN exchange by Furness et al
[ 1]  J. W. Furness, A. D. Kaplan, J. Ning, J. P. Perdew, and J. Sun.,  J. Phys. Chem. Lett. 11, 8208-8215 (2020)
[ 2]  J. W. Furness, A. D. Kaplan, J. Ning, J. P. Perdew, and J. Sun.,  J. Phys. Chem. Lett. 11, 9248-9248 (2020)
Using LibXC functional ID 498 : Re-regularized SCAN correlation by Furness et al
[ 1]  J. W. Furness, A. D. Kaplan, J. Ning, J. P. Perdew, and J. Sun.,  J. Phys. Chem. Lett. 11, 8208-8215 (2020)
[ 2]  J. W. Furness, A. D. Kaplan, J. Ning, J. P. Perdew, and J. Sun.,  J. Phys. Chem. Lett. 11, 9248-9248 (2020)
Using LibXC functional ID 497 : Re-regularized SCAN exchange by Furness et al
[ 1]  J. W. Furness, A. D. Kaplan, J. Ning, J. P. Perdew, and J. Sun.,  J. Phys. Chem. Lett. 11, 8208-8215 (2020)
[ 2]  J. W. Furness, A. D. Kaplan, J. Ning, J. P. Perdew, and J. Sun.,  J. Phys. Chem. Lett. 11, 9248-9248 (2020)
Using LibXC functional ID 498 : Re-regularized SCAN correlation by Furness et al
[ 1]  J. W. Furness, A. D. Kaplan, J. Ning, J. P. Perdew, and J. Sun.,  J. Phys. Chem. Lett. 11, 8208-8215 (2020)
[ 2]  J. W. Furness, A. D. Kaplan, J. Ning, J. P. Perdew, and J. Sun.,  J. Phys. Chem. Lett. 11, 9248-9248 (2020)

================================================================================
                                       INPUT FILE
================================================================================
NAME = xtb_opt.inp
|  1> ! r2scan-3c def2/J RI DEFGRID2 scfconv7 ENGRAD tightSCF miniprint
|  2> %cpcm
|  3>     smd true
|  4>     smdsolvent "water"
|  5> end
|  6> * xyzfile 0 1 xtb_opt.xyz
|  7> 
|  8>                          ****END OF INPUT****
================================================================================

                     *******************************
                     * Energy+Gradient Calculation *
                     *******************************

---------------------------------
CARTESIAN COORDINATES (ANGSTROEM)
---------------------------------
  C      4.377678   -2.461873    0.337049
  C      4.215495   -1.986357   -1.086170
  O      2.852191   -1.507332   -1.362845
  P      2.290765   -0.142227   -0.724169
  S      3.463816    1.411529   -0.674352
  O      1.700962   -0.606692    0.700797
  C      1.991568    0.080492    1.963416
  C      1.150744   -0.579313    3.026280
  S      0.611033   -0.035322   -2.018580
  C     -0.022554    1.631715   -1.597728
  S     -0.709806    1.884222    0.089417
  P     -2.297141    0.476469    0.056639
  S     -3.301389    0.364424   -1.607721
  O     -3.100798    0.918522    1.381547
  C     -3.989763    2.089688    1.367354
  C     -4.655848    2.156791    2.716941
  O     -1.605619   -0.863600    0.596732
  C     -1.971405   -2.204186    0.119721
  C     -0.899519   -3.149000    0.598675
  H      4.329505   -1.635098    1.051913
  H      3.614111   -3.202116    0.592943
  H      5.361304   -2.933222    0.432918
  H      4.343688   -2.802792   -1.799120
  H      4.916131   -1.182967   -1.334404
  H      3.060781   -0.020539    2.171027
  H      1.746132    1.140035    1.853253
  H      1.382155   -1.645635    3.104047
  H      1.370958   -0.107423    3.988988
  H      0.084178   -0.458044    2.817510
  H     -0.795474    1.842415   -2.342284
  H      0.783074    2.366089   -1.695997
  H     -3.384948    2.980514    1.168314
  H     -4.717260    1.958338    0.560648
  H     -5.250579    1.258242    2.903806
  H     -3.916821    2.270245    3.514922
  H     -5.323389    3.023510    2.738041
  H     -2.953828   -2.453796    0.531954
  H     -2.032777   -2.179584   -0.971646
  H      0.071884   -2.889484    0.167862
  H     -0.821785   -3.138713    1.689676
  H     -1.159082   -4.163454    0.280251

----------------------------
CARTESIAN COORDINATES (A.U.)
----------------------------
  NO LB      ZA    FRAG     MASS         X           Y           Z
   0 C     6.0000    0    12.011    8.272613   -4.652265    0.636930
   1 C     6.0000    0    12.011    7.966131   -3.753671   -2.052565
   2 O     8.0000    0    15.999    5.389861   -2.848444   -2.575403
   3 P    15.0000    0    30.974    4.328919   -0.268770   -1.368481
   4 S    16.0000    0    32.060    6.545664    2.667403   -1.274340
   5 O     8.0000    0    15.999    3.214351   -1.146482    1.324315
   6 C     6.0000    0    12.011    3.763517    0.152107    3.710318
   7 C     6.0000    0    12.011    2.174592   -1.094742    5.718840
   8 S    16.0000    0    32.060    1.154685   -0.066750   -3.814564
   9 C     6.0000    0    12.011   -0.042622    3.083494   -3.019269
  10 S    16.0000    0    32.060   -1.341339    3.560664    0.168974
  11 P    15.0000    0    30.974   -4.340968    0.900397    0.107032
  12 S    16.0000    0    32.060   -6.238720    0.688661   -3.038152
  13 O     8.0000    0    15.999   -5.859659    1.735755    2.610745
  14 C     6.0000    0    12.011   -7.539560    3.948938    2.583925
  15 C     6.0000    0    12.011   -8.798278    4.075745    5.134274
  16 O     8.0000    0    15.999   -3.034181   -1.631967    1.127660
  17 C     6.0000    0    12.011   -3.725416   -4.165307    0.226240
  18 C     6.0000    0    12.011   -1.699844   -5.950747    1.131332
  19 H     1.0000    0     1.008    8.181579   -3.089888    1.987828
  20 H     1.0000    0     1.008    6.829679   -6.051123    1.120500
  21 H     1.0000    0     1.008   10.131396   -5.542987    0.818097
  22 H     1.0000    0     1.008    8.208380   -5.296509   -3.399845
  23 H     1.0000    0     1.008    9.290141   -2.235484   -2.521658
  24 H     1.0000    0     1.008    5.784038   -0.038813    4.102646
  25 H     1.0000    0     1.008    3.299712    2.154354    3.502141
  26 H     1.0000    0     1.008    2.611895   -3.109800    5.865799
  27 H     1.0000    0     1.008    2.590735   -0.203000    7.538095
  28 H     1.0000    0     1.008    0.159073   -0.865578    5.324322
  29 H     1.0000    0     1.008   -1.503228    3.481660   -4.426276
  30 H     1.0000    0     1.008    1.479796    4.471260   -3.204971
  31 H     1.0000    0     1.008   -6.396624    5.632355    2.207794
  32 H     1.0000    0     1.008   -8.914330    3.700722    1.059471
  33 H     1.0000    0     1.008   -9.922156    2.377732    5.487397
  34 H     1.0000    0     1.008   -7.401720    4.290141    6.642239
  35 H     1.0000    0     1.008  -10.059748    5.713606    5.174147
  36 H     1.0000    0     1.008   -5.581927   -4.637003    1.005247
  37 H     1.0000    0     1.008   -3.841392   -4.118816   -1.836144
  38 H     1.0000    0     1.008    0.135841   -5.460334    0.317213
  39 H     1.0000    0     1.008   -1.552948   -5.931308    3.193024
  40 H     1.0000    0     1.008   -2.190347   -7.867787    0.529598

------------------------------------------------------------------------------
                   ___                                                        
                  /   \      - P O W E R E D   B Y -                         
                 /     \                                                     
                 |  |  |   _    _      __       _____    __    __             
                 |  |  |  | |  | |    /  \     |  _  \  |  |  /  |          
                  \  \/   | |  | |   /    \    | | | |  |  | /  /          
                 / \  \   | |__| |  /  /\  \   | |_| |  |  |/  /          
                |  |  |   |  __  | /  /__\  \  |    /   |      \           
                |  |  |   | |  | | |   __   |  |    \   |  |\   \          
                \     /   | |  | | |  |  |  |  | |\  \  |  | \   \       
                 \___/    |_|  |_| |__|  |__|  |_| \__\ |__|  \__/        
                                                                              
                      - O R C A' S   B I G   F R I E N D -                    
                                      &                                       
                       - I N T E G R A L  F E E D E R -                       
                                                                              
 v1 FN, 2020, v2 2021, v3 2022-2024                                           
------------------------------------------------------------------------------


----------------------
SHARK INTEGRAL PACKAGE
----------------------

Number of atoms                             ...     41
Number of basis functions                   ...    539
Number of shells                            ...    253
Maximum angular momentum                    ...      2
Integral batch strategy                     ... SHARK/LIBINT Hybrid
RI-J (if used) integral strategy            ... SPLIT-RIJ (Revised 2003 algorithm where possible)
Printlevel                                  ...      1
Contraction scheme used                     ... SEGMENTED contraction
Prescreening option                         ... SCHWARTZ
   Thresh                                   ... 3.000e-11
   Tcut                                     ... 1.000e-12
   Tpresel                                  ... 1.000e-12 
Coulomb Range Separation                    ... NOT USED
Exchange Range Separation                   ... NOT USED
Multipole approximations                    ... NOT USED
Finite Nucleus Model                        ... NOT USED
CABS basis                                  ... NOT available
Auxiliary Coulomb fitting basis             ... AVAILABLE
   # of basis functions in Aux-J            ...   1185
   # of shells in Aux-J                     ...    407
   Maximum angular momentum in Aux-J        ...      4
Auxiliary J/K fitting basis                 ... NOT available
Auxiliary Correlation fitting basis         ... NOT available
Auxiliary 'external' fitting basis          ... NOT available

Checking pre-screening integrals            ... done (  0.0 sec) Dimension = 253
Check shell pair data                       ... done (  0.0 sec)
Shell pair information
Shell pair cut-off parameter TPreSel        ...   1.0e-12
Total number of shell pairs                 ...     32131
Shell pairs after pre-screening             ...     22267
Total number of primitive shell pairs       ...    124843
Primitive shell pairs kept                  ...     52034
          la=0 lb=0:   6361 shell pairs
          la=1 lb=0:   8090 shell pairs
          la=1 lb=1:   2624 shell pairs
          la=2 lb=0:   2948 shell pairs
          la=2 lb=1:   1887 shell pairs
          la=2 lb=2:    357 shell pairs

Calculating one electron integrals          ... done (  0.1 sec)
Calculating RI/J V-Matrix + Cholesky decomp.... done (  0.1 sec)
[...]
CPCM gradient                     ... done (  8.2 sec)
SMD gradient                      ... done (  0.0 sec)
Dispersion correction             ... done (  0.0 sec)

-------------------
DISPERSION GRADIENT
-------------------

   1   C   :    0.000121139   -0.000107930    0.000016931
   2   C   :    0.000108342   -0.000075379   -0.000049543
   3   O   :    0.000094718   -0.000068993   -0.000098118
   4   P   :    0.000259334    0.000083201   -0.000155184
   5   S   :    0.000228632    0.000213676   -0.000072584
   6   O   :    0.000097745   -0.000000772    0.000083025
   7   C   :    0.000092767    0.000050389    0.000169690
   8   C   :    0.000039533   -0.000011872    0.000232926
   9   S   :    0.000052366    0.000073285   -0.000348100
  10   C   :    0.000002818    0.000127554   -0.000129192
  11   S   :   -0.000058256    0.000306107   -0.000060807
  12   P   :   -0.000264075    0.000059798   -0.000079213
  13   S   :   -0.000230507   -0.000000555   -0.000204703
  14   O   :   -0.000101108    0.000046815    0.000059441
  15   C   :   -0.000089519    0.000072490    0.000046152
  16   C   :   -0.000080191    0.000047893    0.000090417
  17   O   :   -0.000114698   -0.000103186    0.000027068
  18   C   :   -0.000111491   -0.000161060   -0.000003642
  19   C   :   -0.000068930   -0.000217753    0.000033001
  20   H   :    0.000058357   -0.000041208    0.000010829
  21   H   :    0.000051946   -0.000060937    0.000002882
  22   H   :    0.000037318   -0.000036595    0.000008335
  23   H   :    0.000028981   -0.000040366   -0.000022397
  24   H   :    0.000040407   -0.000020347   -0.000019623
  25   H   :    0.000020123    0.000015921    0.000066741
  26   H   :    0.000035158    0.000030841    0.000070649
  27   H   :    0.000008371   -0.000010473    0.000084012
  28   H   :    0.000008961    0.000000665    0.000060260
  29   H   :    0.000027031   -0.000010653    0.000101988
  30   H   :   -0.000006939    0.000037795   -0.000052741
  31   H   :    0.000010504    0.000054531   -0.000038615
  32   H   :   -0.000028636    0.000040175    0.000028681
  33   H   :   -0.000043072    0.000019141    0.000012679
  34   H   :   -0.000030825    0.000009947    0.000034577
  35   H   :   -0.000026663    0.000018510    0.000039648
  36   H   :   -0.000020731    0.000016387    0.000022087
  37   H   :   -0.000024835   -0.000059493    0.000010137
  38   H   :   -0.000040446   -0.000063935   -0.000013672
  39   H   :   -0.000041761   -0.000102626    0.000007373
  40   H   :   -0.000028084   -0.000075930    0.000023715
  41   H   :   -0.000013783   -0.000055055    0.000004892

Difference to translation invariance:
           :    0.0000000000   -0.0000000000   -0.0000000000

Difference to rotation invariance:
           :   -0.0000000000    0.0000000000   -0.0000000000

Norm of the Dispersion gradient    ...    0.0010456871
RMS gradient                       ...    0.0000942864
MAX gradient                       ...    0.0003481005
gCP correction                   ... done

------------------
CARTESIAN GRADIENT
------------------

   1   C   :   -0.000034946    0.000020922   -0.000011215
   2   C   :    0.000141348   -0.000074610    0.000040695
   3   O   :   -0.000000382   -0.000047492   -0.000002676
   4   P   :   -0.000077070    0.000103784    0.000119392
   5   S   :    0.000029653   -0.000010694    0.000031422
   6   O   :    0.000014829   -0.000066169   -0.000118996
   7   C   :    0.000069216    0.000090786    0.000055848
   8   C   :   -0.000024737   -0.000002288   -0.000057698
   9   S   :   -0.000074040   -0.000011432   -0.000068808
  10   C   :   -0.000183997   -0.000021340   -0.000061139
  11   S   :   -0.000027978   -0.000020429    0.000185041
  12   P   :   -0.000095724   -0.000194523    0.000060020
  13   S   :   -0.000087550    0.000069262   -0.000256691
  14   O   :    0.000139958    0.000085312    0.000008913
  15   C   :    0.000020696    0.000155554    0.000023418
  16   C   :   -0.000002808   -0.000090035    0.000009107
  17   O   :    0.000111422    0.000111469    0.000129024
  18   C   :    0.000024811   -0.000064490   -0.000048395
  19   C   :    0.000022587    0.000046337    0.000006184
  20   H   :    0.000004557    0.000002934    0.000000000
  21   H   :    0.000004275    0.000000081    0.000013291
  22   H   :   -0.000001367    0.000004733   -0.000002779
  23   H   :   -0.000032734   -0.000008289   -0.000004199
  24   H   :   -0.000017650   -0.000002862   -0.000019584
  25   H   :    0.000000737    0.000004838    0.000001075
  26   H   :    0.000012235    0.000004799   -0.000003685
  27   H   :   -0.000019340    0.000020597    0.000014134
  28   H   :    0.000010829    0.000014157   -0.000017163
  29   H   :   -0.000000041    0.000012818    0.000026498
  30   H   :    0.000043204   -0.000007453   -0.000062338
  31   H   :    0.000000207   -0.000024847    0.000007300
  32   H   :    0.000047583    0.000018192    0.000017044
  33   H   :    0.000016900   -0.000020715   -0.000032593
  34   H   :   -0.000058939   -0.000028397    0.000019876
  35   H   :   -0.000008497   -0.000035968    0.000043080
  36   H   :    0.000015819   -0.000009877   -0.000012685
  37   H   :    0.000020146    0.000000979   -0.000000887
  38   H   :   -0.000015255    0.000014627    0.000017081
  39   H   :   -0.000004438   -0.000009137   -0.000016112
  40   H   :    0.000018528   -0.000018700   -0.000010737
  41   H   :   -0.000002045   -0.000012433   -0.000020061

Difference to translation invariance:
           :    0.0000000000    0.0000000000    0.0000000000

Difference to rotation invariance:
           :    0.0001842572    0.0006023113    0.0005909296

Norm of the Cartesian gradient     ...    0.0006743085
RMS gradient                       ...    0.0000608004
MAX gradient                       ...    0.0002566905

-------
TIMINGS
-------

Total SCF gradient time     ....       49.437 sec

Densities                   ....       0.007 sec  (  0.0%)
One electron gradient       ....       2.052 sec  (  4.2%)
RI-J Coulomb gradient       ....       9.695 sec  ( 19.6%)
XC gradient                 ....      23.286 sec  ( 47.1%)
CPCM gradient               ....       8.230 sec  ( 16.6%)
   A-Matrix (El+Nuc)        ....       0.273 sec  (  0.6%)
   Potential                ....       7.957 sec  ( 16.1%)
SMD gradient                ....       0.013 sec  (  0.0%)

Maximum memory used throughout the entire SCFGRAD-calculation: 86.0 MB

------------------------------------------------------------------------------
                              ORCA PROPERTY CALCULATIONS
------------------------------------------------------------------------------

GBWName                                 ... xtb_opt.gbw
Number of atoms                         ...     41
Number of basis functions               ...    539
Max core memory                         ...   1024 MB

Electric properties:
Dipole moment                           ... YES
Quadrupole moment                       ...  NO
Static polarizability (Dipole/Dipole)   ...  NO
Static polarizability (Dipole/Quad.)    ...  NO
Static polarizability (Quad./Quad.)     ...  NO
Static polarizability (Velocity)        ...  NO

Atomic electric properties:
Dipole moment                           ...  NO
Quadrupole moment                       ...  NO
Static polarizability                   ...  NO

Choice of electric origin               ... Center of mass
Position of electric origin             ...     0.012697     0.140820    -0.114918

General magnetic properties:
Magnetizability                         ...  NO

EPR properties:
g-Tensor (aka g-matrix)                 ...  NO
Zero-Field splitting spin-orbit         ...  NO
Zero-field splitting spin-spin          ...  NO
Hyperfine couplings                     ...  NO (   0 nuclei)
Quadrupole couplings                    ...  NO (   0 nuclei)
Contact density                         ...  NO (   0 nuclei)

NMR properties:
Chemical shifts                         ...  NO (   0 nuclei)
Spin-rotation constants                 ...  NO (   0 nuclei)
Spin-spin couplings                     ...  NO (   0 nuclei,    0 pairs)

Choice of magnetic origin               ... GIAO
Position of magnetic origin             ...     0.000000     0.000000     0.000000

Properties with geometric perturbations:
SCF Hessian                             ...  NO
IR spectrum                             ...  NO
VCD spectrum                            ...  NO
X-ray spectroscopy properties:
SCF XES/XAS/RIXS spectra                ...  NO


-------------
DIPOLE MOMENT
-------------

Method             : SCF
Type of density    : Electron Density
Multiplicity       :   1
Irrep              :   0
Energy             : -2932.5087323783313877 Eh
Relativity type    : 
Basis              : AO
                                X                 Y                 Z
Electronic contribution:     -0.383399235      12.232366340     -20.171934622
Nuclear contribution   :      0.531969212     -13.078559267      21.974590260
                        -----------------------------------------
Total Dipole Moment    :      0.148569978      -0.846192926       1.802655638
                        -----------------------------------------
Magnitude (a.u.)       :      1.996918340
Magnitude (Debye)      :      5.075763043



--------------------
Rotational spectrum 
--------------------
 
Rotational constants in cm-1:             0.012486             0.004745             0.004654 
Rotational constants in MHz :           374.317757           142.240848           139.523675 

Dipole components along the rotational axes: 
x,y,z [a.u.] :     0.072539    -1.824378     0.808744 
x,y,z [Debye]:     0.184380    -4.637200     2.055664 

 

Dipole moment calculation done in   0.1 sec 

Maximum memory used throughout the entire PROP-calculation: 53.1 MB

--------------------------------
SUGGESTED CITATIONS FOR THIS RUN
--------------------------------

Below you find a list of papers that are relevant to this ORCA run
We neither can nor want to force you to cite these papers, but we appreciate if you do
You receive ORCA, which is the product of decades of hard work by many enthusiastic individuals, for free
The only thing we kindly ask in return is that you cite our papers,
We deeply appreciate it, if you show your appreciation for ORCA by not just citing the generic ORCA reference.

Please note that relegating all ORCA citations to the supporting information does *not* help us.
SI sections are not indexed - citations you put there will not count into any citation statistics
But we need these citations in order to attract the funding resources that allow us to do what we are doing

Therefore, if you are a happy ORCA user, please consider citing a few of the papers listed below in the main body of your paper

In addition to the list printed below, the program has created the file xtb_opt.bibtex that contains the list in bibtex format
You can import this file easily into all common literature databanks and citation aid programs


List of essential papers. We consider these as the minimum necessary citations

  1. Neese,F.
     Software update: the ORCA program system, version 5.0
     WIRES Comput. Molec. Sci., 2022 12(1)e1606
     doi.org/10.1002/wcms.1606
  2. Grimme,S.; Hansen,A.; Ehlert,S.; Mewes,J.
     r2SCAN-3c: A 'Swiss army knife' composite electronic-structure method
     J. Chem. Phys., 2021 154 064103
     doi.org/10.1063/5.0040021

List of papers to cite with high priority. The work reported in these papers was absolutely
necessary for this run to complete.
Our perspective: the developers of density functionals and basis sets usually get cited in chemistry papers
Good! But without the algorithms to do something with them, the functionals or basis sets would not do anything.
Hence, in our opinion, the algorithm design and method developments papers are equally worthy of getting cited

  1. Neese,F.
     An improvement of the resolution of the identity approximation for the formation of the Coulomb matrix
     J. Comp. Chem., 2003 24(14)1740-1747
     doi.org/10.1002/jcc.10318
  2. Garcia-Rates,M.; Neese,F.
     Effect of the Solute Cavity on the Solvation Energy and its Derivatives within the Framework of the Gaussian Charge Scheme
     J. Comput. Chem., 2020 41 922-939
     doi.org/10.1002/jcc.26139
  3. Neese,F.
     The SHARK Integral Generation and Digestion System
     J. Comp. Chem., 2022  1-16
     doi.org/10.1002/jcc.26942
  4. Lehtola,S.; Steigemann,C.; Oliveira,M.; Marques,M.
     Recent developments in Libxc - A comprehensive library of functionals for density functional theory
     Software X, 2018 7 
     doi.org/10.1016/j.softx.2017.11.002
  5. Caldeweyher,E.; Bannwarth,C.; Grimme,S.
     Extension of the D3 dispersion coefficient model
     J. Chem. Phys., 2017 147 034112-XXXX
     doi.org/10.1063/1.4993215
  6. Caldeweyher,E.; Ehlert,S.; Hansen,A.; Neugebauer,H.; Spicher,S.; Bannwarth,C.; Grimme,S.
     A generally applicable atomic-charge dependent London dispersion correction
     J. Chem. Phys., 2019 150 154122-XXXX
     doi.org/10.1063/1.5090222
  7. Caldeweyher,E.; Mewes,J.; Ehlert,S.; Grimme,S.
     Extension and evaluation of the D4 London-dispersion model for periodic systems
     Phys. Chem. Chem. Phys., 2020 22(16)8499-8512
     doi.org/10.1039/D0CP00502A

List of suggested additional citations. These are papers that are important in the 'surrounding' of 
of this run, or papers that preceded the highly important papers. If you like your results we are grateful for a citation.

  1. Neese,F.
     The ORCA program system
     WIRES Comput. Molec. Sci., 2012 2(1)73-78
     doi.org/10.1002/wcms.81
  2. Neese,F.
     Software update: the ORCA program system, version 4.0
     WIRES Comput. Molec. Sci., 2018 8(1)1-6
     doi.org/10.1002/wcms.1327
  3. Neese,F.; Wennmohs,F.; Becker,U.; Riplinger,C.
     The ORCA quantum chemistry program package
     J. Chem. Phys., 2020 152 Art. No. L224108
     doi.org/10.1063/5.0004608

List of optional additional citations

  1. Neese,F.
     Approximate second-order SCF convergence for spin unrestricted wavefunctions
     Chem. Phys. Lett., 2000 325(1-3)93-98
     doi.org/10.1016/s0009-2614(00)00662-x

Timings for individual modules:

Sum of individual times          ...       84.132 sec (=   1.402 min)
Startup calculation              ...        3.172 sec (=   0.053 min)   3.8 %
SCF iterations                   ...       31.094 sec (=   0.518 min)  37.0 %
Property calculations            ...        0.253 sec (=   0.004 min)   0.3 %
SCF Gradient evaluation          ...       49.614 sec (=   0.827 min)  59.0 %
                             ****ORCA TERMINATED NORMALLY****
TOTAL RUN TIME: 0 days 0 hours 1 minutes 24 seconds 988 msec
  ------------------------------------------------------------------------
          * successful ORCA run, taking over control again...

         :::::::::::::::::::::::::::::::::::::::::::::::::::::
         ::                  ORCA SUMMARY                   ::
         :::::::::::::::::::::::::::::::::::::::::::::::::::::
         :: total energy           -2932.485025698944 Eh    ::
         :: gradient norm              0.000674308512 Eh/a0 ::
         :: HOMO-LUMO gap              0.000000000000 eV    ::
         :::::::::::::::::::::::::::::::::::::::::::::::::::::

           -------------------------------------------------
          |                Property Printout                |
           -------------------------------------------------
           -------------------------------------------------
          |                Geometry Summary                 |
           -------------------------------------------------

      molecular mass/u    :      384.4756129
   center of mass at/Å    :        0.0067190       0.0745631      -0.0608682
  moments of inertia/u·Å² :        0.1350185E+04   0.3553079E+04   0.3622262E+04
rotational constants/cm⁻¹ :        0.1248542E-01   0.4744514E-02   0.4653897E-02

 * 34 selected distances

     #   Z          #   Z                                           value/Å
     1   6 C        2   6 C                                       1.5091468
     3   8 O        4  15 P                                       1.6082676
     4  15 P        5  16 S                                       1.9475718
     4  15 P        6   8 O                                       1.6107365
     7   6 C        8   6 C                                       1.5071000
     4  15 P        9  16 S                                       2.1235642 (max)
    11  16 S       12  15 P                                       2.1215357
    12  15 P       13  16 S                                       1.9470059
    12  15 P       14   8 O                                       1.6112054
    15   6 C       16   6 C                                       1.5063259
    12  15 P       17   8 O                                       1.6019359
    18   6 C       19   6 C                                       1.5068493
     1   6 C       20   1 H                                       1.0940043
     1   6 C       21   1 H                                       1.0938280
     1   6 C       22   1 H                                       1.0949740
     2   6 C       23   1 H                                       1.0914530 (min)
     2   6 C       24   1 H                                       1.0944841
     7   6 C       25   1 H                                       1.0938398
     7   6 C       26   1 H                                       1.0930583
     8   6 C       27   1 H                                       1.0939616
     8   6 C       28   1 H                                       1.0945327
     8   6 C       29   1 H                                       1.0934834
    10   6 C       30   1 H                                       1.0936618
    10   6 C       31   1 H                                       1.0944592
    15   6 C       32   1 H                                       1.0950430
    15   6 C       33   1 H                                       1.0941985
    16   6 C       34   1 H                                       1.0936340
    16   6 C       35   1 H                                       1.0935737
    16   6 C       36   1 H                                       1.0942086
    18   6 C       37   1 H                                       1.0941900
    18   6 C       38   1 H                                       1.0933279
    19   6 C       39   1 H                                       1.0938591
    19   6 C       40   1 H                                       1.0937870
    19   6 C       41   1 H                                       1.0945200

 * 4 distinct bonds (by element types)

   Z      Z             #   av. dist./Å        max./Å        min./Å
   1 H    6 C          22     1.0939128     1.0950430     1.0914530
   6 C    6 C           4     1.5073555     1.5091468     1.5063259
   8 O   15 P           4     1.6080364     1.6112054     1.6019359
  15 P   16 S           4     2.0349194     2.1235642     1.9470059


optimized geometry written to: xtbopt.coord


           -------------------------------------------------
          | TOTAL ENERGY            -2932.485025698944 Eh   |
          | GRADIENT NORM               0.000674308512 Eh/α |
           -------------------------------------------------

------------------------------------------------------------------------
 * finished run on 2025/04/10 at 09:03:57.812     
------------------------------------------------------------------------
 total:
 * wall-time:     0 d,  0 h, 11 min, 57.005 sec
 *  cpu-time:     0 d,  0 h,  0 min,  8.317 sec
 * ratio c/w:     0.012 speedup
 SCF:
 * wall-time:     0 d,  0 h,  1 min, 29.135 sec
 *  cpu-time:     0 d,  0 h,  0 min,  1.176 sec
 * ratio c/w:     0.013 speedup
 ANC optimizer:
 * wall-time:     0 d,  0 h, 10 min, 27.795 sec
 *  cpu-time:     0 d,  0 h,  0 min,  6.988 sec
 * ratio c/w:     0.011 speedup

