 Entering Gaussian System
 *********************************************
 Gaussian 98:
 frequency output generated by the xtb code
 *********************************************
                         Standard orientation:
 --------------------------------------------------------------------
  Center     Atomic     Atomic              Coordinates (Angstroms)
  Number     Number      Type              X           Y           Z
 --------------------------------------------------------------------
    1          6             0        5.371859   -2.059195   -2.061701
    2          6             0        4.935359   -1.262029   -0.842560
    3          8             0        3.621290   -1.661718   -0.406850
    4          6             0        2.573988   -1.108529   -0.985320
    5          8             0        2.626732   -0.255272   -1.842148
    6          6             0        1.281058   -1.696391   -0.450135
    7          6             0        0.263309   -0.589951   -0.208724
    8          1             0        0.198681    0.057254   -1.094685
    9          6             0        0.618698    0.317651    0.955776
   10          8             0       -0.213242    0.761638    1.717910
   11          8             0        1.907274    0.555410    1.002007
   12          6             0        2.419027    1.498143    1.970693
   13          6             0        2.298946    2.922696    1.455555
   14         16             0       -1.386269   -1.308927    0.078474
   15         15             0       -2.557204    0.457028    0.008736
   16         16             0       -1.803409    1.974493   -0.967594
   17          8             0       -3.933054   -0.104785   -0.601326
   18          6             0       -4.065351   -0.510896   -1.967768
   19          8             0       -3.050294    0.824201    1.461164
   20          6             0       -3.637298   -0.154390    2.340868
   21          1             0        4.709715   -1.852892   -2.899555
   22          1             0        6.382319   -1.773041   -2.334346
   23          1             0        5.346843   -3.123157   -1.843142
   24          1             0        4.916674   -0.191683   -1.065893
   25          1             0        5.579189   -1.462711    0.013742
   26          1             0        1.483533   -2.258641    0.460060
   27          1             0        0.881842   -2.375377   -1.206462
   28          1             0        1.869356    1.372047    2.907024
   29          1             0        3.462712    1.208272    2.096559
   30          1             0        2.810753    3.022143    0.501716
   31          1             0        1.251879    3.185848    1.316548
   32          1             0        2.742059    3.604429    2.174084
   33          1             0       -3.494688   -1.422221   -2.145774
   34          1             0       -3.718840    0.282866   -2.630919
   35          1             0       -5.127620   -0.691453   -2.115799
   36          1             0       -2.956897   -0.997523    2.462225
   37          1             0       -4.588689   -0.493820    1.935273
   38          1             0       -3.777290    0.363239    3.285966
 --------------------------------------------------------------------
     1 basis functions        1 primitive gaussians
     1 alpha electrons        1 beta electrons
 
 Harmonic frequencies (cm**-1), IR intensities (km*mol⁻¹),
 Raman scattering activities (A**4/amu), Raman depolarization ratios,
 reduced masses (AMU), force constants (mDyne/A) and normal coordinates:
                      1                      2                      3
                        a                      a                      a 
 Frequencies --    54.2540                58.5513                68.3670
 Red. masses --    19.3558                21.9193                14.6532
 Frc consts  --     0.0000                 0.0000                 0.0000
 IR Inten    --     1.4334                 6.4521                 8.2913
 Raman Activ --     0.0000                 0.0000                 0.0000
 Depolar     --     0.0000                 0.0000                 0.0000
 Atom AN      X      Y      Z        X      Y      Z        X      Y      Z
   1   6    -0.00  -0.04  -0.14     0.08  -0.16   0.13     0.00  -0.22  -0.12
   2   6     0.03  -0.09  -0.10     0.08  -0.15   0.12     0.04  -0.23  -0.10
   3   8     0.02  -0.09  -0.14     0.06  -0.11   0.10     0.02  -0.24  -0.15
   4   6     0.03   0.11   0.04     0.10  -0.06   0.03     0.04   0.10   0.12
   5   8     0.05   0.33   0.25     0.22  -0.09   0.02     0.10   0.43   0.46
   6   6     0.02   0.08  -0.02     0.04   0.02  -0.02     0.02   0.05   0.01
   7   6     0.02   0.06   0.05     0.06   0.06  -0.14    -0.01   0.01   0.02
   8   1    -0.01   0.02   0.02     0.03   0.01  -0.05     0.00   0.01   0.01
   9   6     0.03   0.06   0.04     0.01   0.10  -0.16    -0.04  -0.02   0.06
  10   8     0.01   0.30  -0.12    -0.03   0.22  -0.30    -0.04  -0.19   0.18
  11   8     0.08  -0.18   0.23     0.03   0.01  -0.06    -0.08   0.15  -0.05
  12   6     0.09  -0.15   0.18     0.01   0.00  -0.04    -0.07   0.19  -0.10
  13   6     0.14  -0.15   0.17     0.04   0.00  -0.03    -0.07   0.15  -0.22
  14  16     0.05   0.06   0.15     0.07   0.11  -0.30    -0.01  -0.03  -0.10
  15  15    -0.07  -0.03  -0.06    -0.07   0.04   0.09    -0.00  -0.03  -0.02
  16  16    -0.27  -0.16  -0.41    -0.45   0.30   0.21     0.10   0.04   0.17
  17   8    -0.04  -0.15   0.05    -0.03  -0.07   0.09     0.00   0.02  -0.05
  18   6    -0.07  -0.03   0.02    -0.02  -0.04   0.07     0.02  -0.05  -0.03
  19   8    -0.01   0.07  -0.05    -0.01  -0.14   0.12    -0.02  -0.04  -0.02
  20   6     0.04   0.08   0.01     0.03  -0.19   0.05    -0.02  -0.03  -0.01
  21   1    -0.00   0.00  -0.04     0.03  -0.04   0.03    -0.00  -0.06  -0.03
  22   1     0.00  -0.01  -0.04     0.03  -0.05   0.04     0.00  -0.07  -0.04
  23   1    -0.01  -0.01  -0.05     0.02  -0.05   0.04    -0.00  -0.06  -0.04
  24   1     0.02  -0.02  -0.01     0.04  -0.04   0.03     0.02  -0.07  -0.02
  25   1     0.01  -0.04  -0.03     0.01  -0.05   0.04     0.01  -0.08  -0.03
  26   1     0.00   0.00  -0.02    -0.01   0.02   0.00    -0.00  -0.00  -0.00
  27   1     0.01   0.04  -0.02     0.02  -0.00  -0.00     0.02   0.02  -0.01
  28   1     0.02  -0.03   0.05    -0.01   0.00  -0.01    -0.02   0.07  -0.03
  29   1     0.02  -0.05   0.05    -0.00  -0.00  -0.00    -0.02   0.06  -0.02
  30   1     0.04  -0.05   0.05     0.02  -0.00  -0.01    -0.02   0.02  -0.07
  31   1     0.04  -0.03   0.05     0.02   0.01  -0.02    -0.02   0.04  -0.07
  32   1     0.05  -0.05   0.05     0.01  -0.00  -0.01    -0.02   0.06  -0.08
  33   1    -0.03  -0.01  -0.02     0.00  -0.01   0.02     0.01  -0.02   0.01
  34   1    -0.02   0.00   0.02    -0.01  -0.01   0.02     0.00  -0.02  -0.02
  35   1    -0.02   0.00   0.00    -0.00  -0.02   0.02     0.01  -0.02  -0.01
  36   1     0.01   0.02  -0.00     0.01  -0.05  -0.00    -0.00  -0.00   0.00
  37   1     0.00   0.02   0.02     0.01  -0.05   0.01    -0.00  -0.01  -0.00
  38   1     0.03   0.03   0.00     0.00  -0.07   0.02    -0.01  -0.00  -0.00
                      4                      5                      6
                        a                      a                      a 
 Frequencies --    73.9849                71.3938                67.9356
 Red. masses --    18.6141                17.9478                12.4516
 Frc consts  --     0.0000                 0.0000                 0.0000
 IR Inten    --     2.1545                 5.0019                 2.9303
 Raman Activ --     0.0000                 0.0000                 0.0000
 Depolar     --     0.0000                 0.0000                 0.0000
 Atom AN      X      Y      Z        X      Y      Z        X      Y      Z
   1   6    -0.00   0.05  -0.10     0.03   0.11   0.05     0.08   0.12   0.29
   2   6    -0.01   0.02  -0.08     0.02   0.06   0.09    -0.06   0.12   0.24
   3   8     0.01  -0.04  -0.08     0.04   0.02   0.08    -0.12   0.12   0.08
   4   6    -0.03  -0.01   0.02     0.03   0.02   0.06    -0.05   0.14   0.00
   5   8    -0.10   0.06   0.09     0.05   0.09   0.14     0.04   0.30   0.14
   6   6     0.01  -0.06   0.05     0.03  -0.05  -0.03    -0.09   0.02  -0.22
   7   6    -0.03  -0.09  -0.01    -0.02  -0.08  -0.11    -0.10  -0.03  -0.09
   8   1    -0.02  -0.05  -0.02     0.01  -0.02  -0.03    -0.06   0.00  -0.01
   9   6    -0.07   0.08  -0.13    -0.10  -0.07  -0.09     0.03  -0.07  -0.10
  10   8    -0.18   0.44  -0.46    -0.18  -0.08  -0.18     0.13  -0.03  -0.04
  11   8    -0.06  -0.14   0.10    -0.13  -0.07  -0.00     0.06  -0.16  -0.21
  12   6    -0.11  -0.01   0.00    -0.18  -0.04   0.02     0.17  -0.16  -0.23
  13   6    -0.13  -0.05  -0.12    -0.19  -0.04   0.01     0.26  -0.16  -0.26
  14  16    -0.01  -0.12   0.21    -0.07  -0.12  -0.38    -0.10  -0.07   0.11
  15  15     0.14  -0.01   0.14     0.14   0.04   0.05    -0.07  -0.04   0.05
  16  16     0.31  -0.03   0.23     0.16  -0.14  -0.22     0.03  -0.08   0.07
  17   8     0.13   0.08  -0.05    -0.04   0.15   0.24    -0.06   0.02   0.01
  18   6     0.16   0.05  -0.04    -0.19   0.07   0.24    -0.02   0.05  -0.00
  19   8    -0.06  -0.06   0.06     0.29   0.09   0.09    -0.03  -0.01   0.04
  20   6    -0.16  -0.08  -0.05     0.24   0.12   0.13    -0.09   0.01   0.02
  21   1    -0.00   0.01  -0.03     0.00   0.04   0.02     0.04   0.03   0.06
  22   1    -0.00   0.02  -0.03     0.01   0.04   0.01     0.03   0.04   0.11
  23   1     0.01   0.01  -0.03     0.01   0.03   0.01     0.02   0.03   0.08
  24   1    -0.02   0.01  -0.02     0.00   0.02   0.04    -0.01   0.03   0.07
  25   1     0.00   0.01  -0.03     0.01   0.01   0.02    -0.04   0.03   0.09
  26   1     0.01  -0.00   0.02    -0.00  -0.01  -0.00    -0.04  -0.04  -0.09
  27   1     0.01  -0.03   0.02     0.03  -0.02  -0.01    -0.01   0.04  -0.10
  28   1    -0.04   0.02  -0.00    -0.06  -0.01  -0.00     0.06  -0.03  -0.06
  29   1    -0.03   0.01   0.02    -0.05  -0.00   0.02     0.04  -0.07  -0.08
  30   1    -0.03  -0.03  -0.03    -0.05  -0.01   0.00     0.07  -0.06  -0.08
  31   1    -0.04  -0.02  -0.05    -0.05  -0.01  -0.00     0.08  -0.03  -0.07
  32   1    -0.04   0.00  -0.05    -0.06  -0.01   0.00     0.09  -0.05  -0.08
  33   1     0.05   0.01  -0.00    -0.07   0.01   0.06    -0.01   0.01  -0.00
  34   1     0.05   0.01  -0.01    -0.07   0.01   0.05     0.00   0.02   0.01
  35   1     0.05   0.01  -0.02    -0.06   0.03   0.10    -0.00   0.02  -0.01
  36   1    -0.06  -0.03  -0.02     0.06   0.03   0.04    -0.03  -0.00   0.01
  37   1    -0.04  -0.01  -0.04     0.06   0.04   0.04    -0.03   0.01  -0.00
  38   1    -0.06  -0.04  -0.01     0.07   0.05   0.03    -0.02   0.00   0.00
                      7                      8                      9
                        a                      a                      a 
 Frequencies --    89.7613                79.9849                86.7487
 Red. masses --    14.9795                11.0888                12.8005
 Frc consts  --     0.0000                 0.0000                 0.0000
 IR Inten    --     7.0917                 2.0665                 0.4165
 Raman Activ --     0.0000                 0.0000                 0.0000
 Depolar     --     0.0000                 0.0000                 0.0000
 Atom AN      X      Y      Z        X      Y      Z        X      Y      Z
   1   6     0.00  -0.19   0.08     0.19  -0.32   0.22     0.21   0.32  -0.04
   2   6     0.01  -0.15   0.06     0.00   0.02  -0.07    -0.04  -0.07   0.12
   3   8    -0.06  -0.03  -0.03    -0.06   0.13  -0.20    -0.06  -0.37  -0.15
   4   6     0.03   0.06  -0.11    -0.02   0.13  -0.21    -0.03  -0.17  -0.03
   5   8     0.18   0.05  -0.12    -0.01   0.15  -0.24     0.04  -0.03   0.13
   6   6    -0.02   0.10  -0.19    -0.02   0.09  -0.21    -0.07  -0.13  -0.10
   7   6    -0.02   0.08  -0.12    -0.02   0.05  -0.04     0.01  -0.06  -0.05
   8   1    -0.05   0.02  -0.04    -0.02   0.04   0.01    -0.00  -0.02  -0.01
   9   6    -0.00   0.11  -0.15    -0.02  -0.05   0.03     0.10  -0.06  -0.08
  10   8     0.01  -0.01  -0.07    -0.07  -0.06  -0.00     0.15  -0.08  -0.04
  11   8    -0.03   0.28  -0.25    -0.02  -0.12   0.15     0.11  -0.02  -0.14
  12   6    -0.06   0.05  -0.01    -0.09  -0.05   0.12     0.02  -0.02  -0.08
  13   6    -0.10   0.17   0.32    -0.16  -0.08   0.05    -0.33   0.02   0.12
  14  16     0.10  -0.06   0.20     0.01   0.05  -0.01    -0.02   0.10   0.20
  15  15     0.02  -0.12   0.13     0.04   0.07   0.04     0.00   0.12   0.01
  16  16     0.10  -0.30  -0.07     0.07   0.09   0.08    -0.10   0.14  -0.04
  17   8     0.00  -0.05   0.09     0.04  -0.00   0.03     0.03   0.00   0.02
  18   6    -0.05   0.26  -0.01     0.13  -0.36   0.12     0.10  -0.16   0.05
  19   8     0.02  -0.04   0.08    -0.02   0.12  -0.01    -0.02   0.13  -0.01
  20   6    -0.17   0.00  -0.00    -0.04   0.14   0.02    -0.02   0.10  -0.02
  21   1     0.02  -0.04   0.02     0.09  -0.16   0.02     0.08   0.13  -0.02
  22   1     0.01  -0.08   0.04     0.06  -0.11   0.08     0.06   0.15   0.04
  23   1    -0.02  -0.05   0.02     0.05  -0.08   0.15     0.09   0.08  -0.09
  24   1     0.04  -0.04   0.02     0.01  -0.01  -0.10    -0.04  -0.00   0.12
  25   1    -0.02  -0.06   0.03    -0.03   0.07   0.02    -0.03  -0.06   0.04
  26   1    -0.02   0.01  -0.06     0.01   0.01  -0.08    -0.03  -0.05  -0.03
  27   1    -0.01   0.05  -0.07    -0.01   0.04  -0.07    -0.03  -0.02  -0.04
  28   1    -0.02  -0.05  -0.01    -0.03  -0.01   0.03     0.04  -0.07  -0.01
  29   1    -0.01   0.02  -0.02    -0.02   0.00   0.04     0.03   0.05  -0.07
  30   1    -0.03   0.11   0.10    -0.04  -0.03   0.01    -0.13   0.07   0.02
  31   1    -0.03   0.05   0.11    -0.05  -0.04   0.00    -0.12  -0.05   0.08
  32   1    -0.03   0.00   0.14    -0.06  -0.01   0.00    -0.11   0.01   0.05
  33   1    -0.04   0.07  -0.06     0.06  -0.11   0.11     0.05  -0.04   0.05
  34   1     0.00   0.11   0.04     0.03  -0.14  -0.02     0.02  -0.06  -0.01
  35   1    -0.02   0.11  -0.01     0.04  -0.14   0.04     0.03  -0.07   0.01
  36   1    -0.08  -0.02   0.00    -0.01   0.04   0.02    -0.00   0.03  -0.00
  37   1    -0.06   0.04  -0.02    -0.01   0.03   0.00    -0.00   0.02  -0.01
  38   1    -0.05  -0.00   0.00    -0.02   0.05  -0.00    -0.02   0.03  -0.01
                     10                     11                     12
                        a                      a                      a 
 Frequencies --    95.8022                91.5977               100.5185
 Red. masses --    11.1615                10.6489                10.7161
 Frc consts  --     0.0000                 0.0000                 0.0000
 IR Inten    --     5.2526                 8.1079                 6.8273
 Raman Activ --     0.0000                 0.0000                 0.0000
 Depolar     --     0.0000                 0.0000                 0.0000
 Atom AN      X      Y      Z        X      Y      Z        X      Y      Z
   1   6     0.22   0.01   0.03    -0.28   0.09  -0.19    -0.33  -0.15   0.01
   2   6     0.10   0.04  -0.04     0.04  -0.03   0.01    -0.03  -0.04   0.05
   3   8     0.11  -0.03  -0.10     0.07   0.10   0.19    -0.04   0.19   0.22
   4   6     0.08  -0.04  -0.07     0.08   0.03   0.07     0.01   0.10   0.05
   5   8     0.06  -0.06  -0.09     0.16  -0.02   0.03     0.08   0.06   0.00
   6   6     0.09  -0.03  -0.02     0.05   0.03  -0.01    -0.02   0.04  -0.09
   7   6     0.09  -0.04   0.07     0.04   0.03  -0.06     0.01   0.03   0.02
   8   1     0.03   0.01   0.04     0.02   0.01  -0.02    -0.01   0.03   0.02
   9   6     0.07  -0.11   0.13     0.03   0.00  -0.04     0.12  -0.03   0.04
  10   8     0.04  -0.08   0.08     0.05  -0.03  -0.01     0.20   0.10   0.03
  11   8     0.09  -0.17   0.25     0.04  -0.01  -0.05     0.17  -0.20   0.05
  12   6    -0.03   0.10   0.02     0.06  -0.07   0.00     0.11  -0.02  -0.09
  13   6    -0.18  -0.03  -0.29     0.07  -0.04   0.07    -0.48  -0.05  -0.06
  14  16     0.08  -0.02  -0.02     0.05   0.03  -0.16     0.04   0.05   0.08
  15  15    -0.00  -0.02   0.07     0.01   0.02   0.02     0.02   0.01  -0.08
  16  16    -0.18  -0.02  -0.05     0.13  -0.00   0.08     0.03   0.05  -0.02
  17   8    -0.03  -0.03   0.12    -0.02  -0.01   0.10     0.01   0.03  -0.05
  18   6    -0.17   0.34   0.01    -0.09  -0.33   0.19    -0.07   0.05  -0.05
  19   8     0.05   0.00   0.06     0.00   0.05   0.00     0.05  -0.07  -0.02
  20   6    -0.36   0.11  -0.10    -0.47   0.16  -0.18     0.17  -0.15  -0.04
  21   1     0.07  -0.02  -0.01    -0.12   0.08  -0.01    -0.12  -0.02   0.03
  22   1     0.06   0.01   0.02    -0.08   0.00  -0.09    -0.10  -0.09  -0.05
  23   1     0.07   0.00   0.02    -0.11   0.02  -0.09    -0.13  -0.04   0.01
  24   1     0.01   0.01  -0.03     0.04   0.00   0.04     0.03  -0.01   0.00
  25   1     0.02   0.03   0.00     0.04  -0.07  -0.04     0.01  -0.03  -0.01
  26   1     0.03  -0.02  -0.01    -0.00   0.01   0.00    -0.02  -0.02  -0.04
  27   1     0.01   0.00  -0.01     0.03   0.01  -0.01     0.00   0.04  -0.06
  28   1    -0.01   0.07   0.01     0.02  -0.03  -0.00     0.11  -0.05   0.01
  29   1     0.00   0.07   0.03     0.01  -0.03  -0.01     0.06   0.09  -0.10
  30   1    -0.05  -0.05  -0.09     0.02  -0.00   0.02    -0.21   0.03  -0.05
  31   1    -0.06  -0.05  -0.10     0.02  -0.01   0.02    -0.17  -0.11   0.05
  32   1    -0.07   0.05  -0.13     0.02  -0.02   0.03    -0.16   0.03  -0.05
  33   1    -0.07   0.10  -0.08    -0.02  -0.10   0.10    -0.02   0.01  -0.03
  34   1    -0.04   0.14   0.05    -0.05  -0.13  -0.00    -0.03   0.02  -0.02
  35   1    -0.06   0.13   0.01    -0.03  -0.11   0.09    -0.02   0.02   0.00
  36   1    -0.17  -0.02  -0.01    -0.21  -0.02  -0.04     0.07  -0.03  -0.03
  37   1    -0.11   0.11  -0.08    -0.14   0.14  -0.11     0.05  -0.06   0.00
  38   1    -0.11   0.03  -0.03    -0.13   0.04  -0.05     0.05  -0.06  -0.00
                     13                     14                     15
                        a                      a                      a 
 Frequencies --   121.1380               115.0232               146.1676
 Red. masses --    13.7525                12.2375                16.4095
 Frc consts  --     0.0000                 0.0000                 0.0000
 IR Inten    --     8.8583                 6.4221                 5.5092
 Raman Activ --     0.0000                 0.0000                 0.0000
 Depolar     --     0.0000                 0.0000                 0.0000
 Atom AN      X      Y      Z        X      Y      Z        X      Y      Z
   1   6     0.22  -0.04   0.12    -0.07   0.20  -0.05     0.12   0.03  -0.04
   2   6    -0.04   0.04  -0.03    -0.05  -0.19   0.21     0.11  -0.00  -0.02
   3   8    -0.04  -0.11  -0.15    -0.15  -0.16  -0.01     0.13  -0.01  -0.01
   4   6    -0.07  -0.04  -0.00     0.01  -0.02  -0.15     0.11   0.00  -0.00
   5   8    -0.17  -0.00   0.04     0.28  -0.09  -0.21     0.16  -0.04  -0.04
   6   6    -0.04   0.01   0.12    -0.10   0.14  -0.23     0.08   0.03   0.02
   7   6     0.01   0.07   0.07    -0.01   0.16   0.01     0.02  -0.01  -0.01
   8   1     0.02   0.01   0.02    -0.02   0.08   0.03    -0.01  -0.01  -0.01
   9   6     0.06   0.10   0.04    -0.03   0.05   0.11     0.00   0.02  -0.04
  10   8     0.14   0.22   0.06    -0.09   0.07   0.06     0.01   0.09  -0.08
  11   8     0.10   0.05  -0.00    -0.03  -0.02   0.27     0.02  -0.05  -0.01
  12   6     0.14   0.03  -0.02    -0.09   0.13   0.13     0.04  -0.05  -0.01
  13   6     0.01   0.05   0.09     0.09   0.03  -0.21    -0.06  -0.03   0.06
  14  16    -0.03   0.12  -0.13     0.04   0.10   0.00    -0.01  -0.06   0.03
  15  15    -0.09   0.04  -0.09    -0.05  -0.01   0.02    -0.21  -0.16  -0.16
  16  16     0.28  -0.10  -0.03     0.20  -0.15  -0.01     0.16  -0.02   0.38
  17   8    -0.17   0.17   0.04    -0.04   0.03  -0.00    -0.16  -0.06  -0.15
  18   6    -0.36  -0.11   0.13    -0.04  -0.08   0.03    -0.36  -0.01  -0.12
  19   8     0.03  -0.15   0.02    -0.07  -0.04   0.02    -0.21   0.08  -0.20
  20   6    -0.04  -0.30  -0.20     0.12  -0.13   0.03     0.09   0.30   0.25
  21   1     0.09  -0.07   0.00    -0.01   0.15   0.00     0.03   0.01  -0.01
  22   1     0.06   0.02   0.06    -0.01   0.07   0.02     0.03   0.01  -0.01
  23   1     0.10  -0.01   0.07    -0.04   0.04  -0.12     0.04   0.01  -0.02
  24   1    -0.05   0.00  -0.04     0.03  -0.03   0.16     0.03   0.00   0.00
  25   1    -0.03   0.07   0.02    -0.04  -0.16   0.05     0.03  -0.01  -0.01
  26   1    -0.00   0.02   0.04    -0.04  -0.01  -0.09     0.03   0.02   0.01
  27   1    -0.03  -0.01   0.06    -0.06   0.09  -0.09     0.03  -0.00   0.01
  28   1     0.07  -0.01   0.01    -0.06   0.11   0.02     0.03  -0.03   0.01
  29   1     0.05   0.02  -0.04    -0.04   0.02   0.09     0.02  -0.00  -0.02
  30   1    -0.02   0.04   0.02     0.06  -0.06  -0.05    -0.03   0.01   0.01
  31   1    -0.00  -0.00   0.06     0.04   0.02  -0.11    -0.02  -0.02   0.04
  32   1     0.01   0.01   0.03     0.02   0.04  -0.09    -0.01  -0.01   0.02
  33   1    -0.12  -0.04   0.06    -0.01  -0.02   0.03    -0.13  -0.01  -0.07
  34   1    -0.13  -0.07  -0.02    -0.01  -0.03  -0.01    -0.12  -0.00  -0.04
  35   1    -0.11  -0.03   0.10    -0.01  -0.03   0.01    -0.11   0.02   0.01
  36   1    -0.02  -0.10  -0.10     0.06  -0.02  -0.01     0.07   0.13   0.13
  37   1    -0.01  -0.05  -0.08     0.04  -0.07   0.02     0.02   0.01   0.15
  38   1    -0.01  -0.14  -0.03     0.03  -0.05   0.01     0.05   0.17   0.03
                     16                     17                     18
                        a                      a                      a 
 Frequencies --   165.1244               180.5191               172.5557
 Red. masses --    19.0014                18.4448                10.9778
 Frc consts  --     0.0000                 0.0000                 0.0000
 IR Inten    --     7.5346                 1.9597                 0.3099
 Raman Activ --     0.0000                 0.0000                 0.0000
 Depolar     --     0.0000                 0.0000                 0.0000
 Atom AN      X      Y      Z        X      Y      Z        X      Y      Z
   1   6    -0.00  -0.03  -0.01     0.12  -0.04  -0.10    -0.13  -0.04   0.04
   2   6     0.07   0.01  -0.01     0.20   0.01  -0.10    -0.09   0.11  -0.04
   3   8     0.07   0.06   0.04     0.24   0.08   0.05    -0.03   0.01   0.04
   4   6     0.06   0.01  -0.01     0.17   0.03   0.05    -0.05  -0.09   0.02
   5   8     0.10   0.02  -0.01     0.23  -0.07  -0.03    -0.15   0.03   0.15
   6   6     0.05  -0.06  -0.08     0.13   0.04   0.07    -0.04  -0.19  -0.12
   7   6    -0.00  -0.12  -0.03    -0.02  -0.03  -0.04     0.14  -0.04  -0.11
   8   1    -0.04  -0.04  -0.01    -0.00  -0.02  -0.02     0.06  -0.01  -0.03
   9   6    -0.03  -0.07  -0.07    -0.05  -0.04  -0.03     0.20  -0.07  -0.11
  10   8    -0.10  -0.18  -0.09    -0.06  -0.14   0.02     0.15  -0.14  -0.18
  11   8    -0.07   0.04  -0.04    -0.07  -0.06  -0.08     0.21   0.03   0.05
  12   6    -0.18  -0.00   0.07     0.00  -0.10  -0.07    -0.14   0.10   0.16
  13   6     0.10  -0.01  -0.01    -0.05  -0.09  -0.04     0.04   0.07   0.00
  14  16     0.03  -0.07   0.52    -0.17   0.18   0.12     0.14   0.23  -0.08
  15  15     0.15   0.08  -0.14    -0.25   0.22   0.18    -0.08   0.05   0.07
  16  16    -0.08   0.30  -0.01     0.06  -0.18  -0.21     0.10  -0.10  -0.01
  17   8     0.05   0.08   0.00    -0.16   0.27  -0.01     0.01  -0.11   0.03
  18   6    -0.35  -0.05   0.08     0.12   0.01   0.04    -0.06   0.03   0.00
  19   8     0.06   0.02  -0.10    -0.34   0.07   0.11    -0.23   0.04   0.01
  20   6     0.10  -0.15  -0.25    -0.01  -0.19   0.04    -0.03  -0.04   0.05
  21   1    -0.01  -0.00   0.00     0.02  -0.02  -0.02    -0.06  -0.06   0.02
  22   1    -0.00  -0.02  -0.01     0.03  -0.01  -0.05    -0.05  -0.00  -0.03
  23   1    -0.01  -0.01   0.00     0.04  -0.01  -0.02    -0.01  -0.00   0.06
  24   1     0.03   0.00  -0.01     0.06  -0.00  -0.04    -0.06   0.02  -0.05
  25   1     0.02  -0.00  -0.01     0.07   0.01  -0.04    -0.01   0.08  -0.02
  26   1     0.01  -0.03  -0.03     0.04   0.03   0.03    -0.04  -0.08  -0.04
  27   1     0.03  -0.01  -0.04     0.06  -0.01   0.03    -0.02  -0.02  -0.06
  28   1    -0.12   0.02  -0.02     0.02  -0.04  -0.01    -0.13   0.05  -0.01
  29   1    -0.07  -0.03   0.09     0.00  -0.03  -0.04    -0.05   0.03   0.15
  30   1     0.09  -0.03   0.02    -0.03  -0.02  -0.02     0.11  -0.00   0.05
  31   1     0.05   0.03  -0.07    -0.02  -0.03   0.01     0.03   0.01  -0.11
  32   1     0.01  -0.01   0.01    -0.01  -0.03  -0.02    -0.06   0.03   0.03
  33   1    -0.13  -0.02   0.00     0.05  -0.00   0.08    -0.01   0.02  -0.03
  34   1    -0.15  -0.04  -0.03     0.07  -0.03  -0.01    -0.03   0.03   0.02
  35   1    -0.12  -0.01   0.11     0.04  -0.01  -0.04    -0.02   0.01   0.01
  36   1     0.04  -0.03  -0.10     0.07   0.00  -0.00     0.14   0.14   0.22
  37   1     0.04  -0.05  -0.09     0.03  -0.13  -0.00     0.12  -0.25  -0.10
  38   1     0.01  -0.09  -0.05    -0.05  -0.08   0.02    -0.26   0.07  -0.07
                     19                     20                     21
                        a                      a                      a 
 Frequencies --   125.2666               143.3766               215.8531
 Red. masses --     4.8320                 4.5287                12.3459
 Frc consts  --     0.0000                 0.0000                 0.0000
 IR Inten    --     0.8024                 2.7421                10.6695
 Raman Activ --     0.0000                 0.0000                 0.0000
 Depolar     --     0.0000                 0.0000                 0.0000
 Atom AN      X      Y      Z        X      Y      Z        X      Y      Z
   1   6    -0.04  -0.02   0.02    -0.02   0.01  -0.01     0.01   0.01   0.02
   2   6    -0.02   0.08  -0.04     0.01   0.00   0.00    -0.03   0.01   0.01
   3   8     0.03   0.01   0.04     0.01   0.02  -0.01    -0.03  -0.03  -0.00
   4   6    -0.00  -0.05   0.02     0.01   0.00  -0.02    -0.03  -0.01   0.02
   5   8    -0.04   0.00   0.08     0.00   0.01  -0.01    -0.05  -0.01   0.02
   6   6    -0.01  -0.11  -0.07     0.01  -0.04  -0.04    -0.02   0.05   0.07
   7   6     0.07  -0.04  -0.07     0.02  -0.05   0.03     0.01   0.10  -0.07
   8   1     0.03  -0.01  -0.02    -0.01  -0.01   0.01     0.02   0.02  -0.03
   9   6     0.11  -0.05  -0.07     0.06  -0.02   0.00    -0.10   0.04  -0.01
  10   8     0.09  -0.09  -0.11     0.08   0.04  -0.02    -0.17  -0.11   0.02
  11   8     0.12   0.01   0.02     0.07   0.02   0.02    -0.12  -0.02  -0.02
  12   6    -0.13   0.06   0.10    -0.03   0.06   0.05     0.08  -0.08  -0.08
  13   6     0.01   0.04  -0.01     0.01   0.05   0.03    -0.03  -0.09  -0.05
  14  16     0.04   0.15   0.01    -0.01  -0.12   0.02     0.13   0.22  -0.05
  15  15    -0.14   0.03   0.01    -0.03  -0.07  -0.04     0.12   0.09   0.09
  16  16     0.05  -0.07   0.01    -0.12  -0.00   0.01     0.14   0.03   0.01
  17   8    -0.07   0.00  -0.05    -0.12   0.28  -0.09     0.24  -0.46   0.14
  18   6     0.02  -0.02  -0.05     0.04  -0.06  -0.01    -0.10   0.03   0.04
  19   8    -0.09  -0.01   0.01     0.12  -0.09   0.02    -0.26   0.16  -0.07
  20   6     0.04   0.00   0.10    -0.02   0.03   0.05     0.05  -0.06  -0.09
  21   1    -0.03  -0.04   0.01    -0.00   0.01  -0.00     0.00  -0.01   0.00
  22   1    -0.02   0.00  -0.02    -0.00  -0.01  -0.00    -0.00   0.02   0.01
  23   1     0.01  -0.00   0.04    -0.02   0.00  -0.01     0.02   0.00   0.01
  24   1    -0.03   0.02  -0.04     0.01   0.00   0.01    -0.02   0.00  -0.00
  25   1     0.01   0.06  -0.01     0.00  -0.01  -0.00    -0.01   0.01   0.00
  26   1    -0.02  -0.04  -0.02     0.01  -0.02  -0.02    -0.01   0.04   0.04
  27   1    -0.00  -0.01  -0.04     0.00   0.00  -0.02    -0.01  -0.01   0.04
  28   1    -0.11   0.03  -0.01    -0.04   0.02  -0.00     0.08  -0.03   0.01
  29   1    -0.05   0.02   0.11    -0.01   0.02   0.04     0.03  -0.03  -0.09
  30   1     0.08  -0.01   0.04     0.04   0.02   0.03    -0.10  -0.04  -0.06
  31   1     0.01   0.01  -0.09     0.01   0.01  -0.03    -0.02  -0.02   0.08
  32   1    -0.05   0.02   0.02    -0.03   0.02   0.03     0.06  -0.02  -0.06
  33   1     0.01  -0.01   0.00    -0.37  -0.29   0.20    -0.28  -0.14  -0.03
  34   1     0.02  -0.01  -0.01     0.48  -0.24  -0.03     0.20  -0.05   0.06
  35   1     0.01  -0.00  -0.03    -0.04   0.45  -0.16    -0.08   0.32  -0.02
  36   1    -0.19  -0.21  -0.35    -0.01   0.01   0.07     0.03  -0.02  -0.12
  37   1    -0.22   0.34   0.28     0.01  -0.01  -0.01    -0.01  -0.01   0.02
  38   1     0.47  -0.13   0.17    -0.05   0.04  -0.01     0.08  -0.07   0.01
                     22                     23                     24
                        a                      a                      a 
 Frequencies --   220.0625               232.5848               279.3470
 Red. masses --     7.7148                 9.0978                16.3372
 Frc consts  --     0.0000                 0.0000                 0.0000
 IR Inten    --     2.5051                44.9290                 7.9400
 Raman Activ --     0.0000                 0.0000                 0.0000
 Depolar     --     0.0000                 0.0000                 0.0000
 Atom AN      X      Y      Z        X      Y      Z        X      Y      Z
   1   6     0.07   0.01  -0.03    -0.01  -0.02   0.02     0.03  -0.03  -0.03
   2   6     0.11  -0.17   0.11     0.13  -0.14   0.15     0.06   0.01  -0.04
   3   8    -0.02   0.11  -0.07    -0.02   0.15  -0.06     0.07   0.05   0.03
   4   6    -0.03   0.12  -0.00    -0.02   0.04  -0.10     0.04  -0.00  -0.01
   5   8    -0.23   0.06  -0.09    -0.25   0.12  -0.06     0.12  -0.01  -0.01
   6   6     0.06   0.11   0.26     0.09  -0.18  -0.03    -0.00  -0.11  -0.14
   7   6    -0.04   0.07  -0.05     0.10  -0.21   0.09    -0.05  -0.19   0.17
   8   1     0.01  -0.02  -0.04     0.04  -0.05   0.03    -0.03  -0.02   0.07
   9   6     0.02   0.05  -0.10     0.07  -0.11   0.05     0.03  -0.08   0.09
  10   8     0.20   0.01   0.08    -0.08  -0.06  -0.15     0.07   0.19  -0.01
  11   8     0.05  -0.04  -0.16     0.05   0.03   0.11     0.04   0.00   0.02
  12   6    -0.21  -0.12   0.04     0.15   0.13  -0.03     0.01   0.10  -0.03
  13   6    -0.08  -0.16  -0.08     0.06   0.17   0.07     0.04   0.14   0.07
  14  16    -0.01   0.11   0.02    -0.01  -0.10  -0.09    -0.38  -0.13  -0.09
  15  15    -0.07  -0.00  -0.04     0.06   0.06   0.09    -0.18   0.04  -0.05
  16  16     0.05  -0.02   0.05    -0.03   0.02  -0.08     0.08  -0.00   0.15
  17   8    -0.04  -0.14   0.06     0.06   0.10  -0.03    -0.12  -0.32   0.23
  18   6     0.03   0.01  -0.00    -0.06  -0.01   0.02     0.13   0.06   0.08
  19   8     0.11   0.02   0.01    -0.27   0.03  -0.02     0.05   0.28  -0.06
  20   6     0.03   0.00  -0.05    -0.03  -0.03   0.06     0.14  -0.01  -0.29
  21   1     0.14   0.20  -0.06     0.14   0.24  -0.05     0.01  -0.00  -0.01
  22   1     0.10  -0.15   0.13     0.10  -0.22   0.16     0.01  -0.02  -0.01
  23   1    -0.19  -0.02  -0.12    -0.28  -0.02  -0.11    -0.01  -0.01  -0.01
  24   1     0.13  -0.03   0.11     0.14  -0.02   0.12     0.02   0.00  -0.02
  25   1    -0.01  -0.16   0.04    -0.01  -0.16   0.05     0.02   0.01  -0.02
  26   1     0.05   0.13   0.13     0.07  -0.06  -0.03     0.00  -0.10  -0.09
  27   1     0.04  -0.06   0.15     0.02  -0.04  -0.01    -0.00   0.03  -0.10
  28   1    -0.16  -0.03  -0.04     0.10   0.03   0.02    -0.00   0.03  -0.01
  29   1    -0.07  -0.03   0.12     0.05   0.05  -0.07     0.00   0.03  -0.00
  30   1     0.17  -0.02   0.09    -0.10   0.05  -0.04     0.09   0.09   0.07
  31   1    -0.01  -0.11  -0.25     0.01   0.09   0.15     0.02   0.02  -0.06
  32   1    -0.22  -0.01   0.06     0.13   0.02  -0.02    -0.06   0.02   0.09
  33   1     0.00   0.00  -0.01    -0.01   0.00   0.01     0.03   0.02  -0.01
  34   1     0.03   0.02   0.03    -0.05  -0.01  -0.02     0.10   0.05   0.10
  35   1     0.01   0.02  -0.03    -0.02  -0.02   0.04     0.04   0.05  -0.06
  36   1     0.01   0.00  -0.00     0.00  -0.00  -0.03     0.07   0.01  -0.13
  37   1     0.02  -0.00  -0.04    -0.03  -0.01   0.06     0.06  -0.01  -0.11
  38   1    -0.01  -0.00  -0.02     0.04  -0.02   0.03     0.01  -0.08  -0.05
                     25                     26                     27
                        a                      a                      a 
 Frequencies --   257.0865               261.3336               299.8102
 Red. masses --    11.3488                 5.4087                12.6384
 Frc consts  --     0.0000                 0.0000                 0.0000
 IR Inten    --    12.5859                 7.8768                16.7211
 Raman Activ --     0.0000                 0.0000                 0.0000
 Depolar     --     0.0000                 0.0000                 0.0000
 Atom AN      X      Y      Z        X      Y      Z        X      Y      Z
   1   6    -0.01   0.00   0.01    -0.00   0.01  -0.00     0.04  -0.00  -0.02
   2   6    -0.02  -0.02   0.02     0.11  -0.24   0.20    -0.01   0.05  -0.07
   3   8    -0.03  -0.02  -0.01    -0.07   0.10  -0.05     0.03  -0.01   0.02
   4   6     0.00   0.03  -0.02    -0.02   0.12  -0.08     0.02   0.00   0.03
   5   8     0.07   0.02  -0.04    -0.19   0.12  -0.13     0.13  -0.03   0.00
   6   6     0.01   0.03  -0.01     0.10   0.01   0.11    -0.03   0.02  -0.03
   7   6    -0.04  -0.04   0.12     0.02  -0.06   0.01    -0.10  -0.05   0.08
   8   1    -0.02   0.00   0.05     0.01  -0.03  -0.01    -0.04  -0.01   0.03
   9   6    -0.01  -0.01   0.09     0.07  -0.03  -0.05     0.05  -0.00  -0.00
  10   8     0.05   0.13   0.11     0.11  -0.02  -0.03     0.34   0.22   0.17
  11   8    -0.00  -0.01  -0.06     0.08  -0.00  -0.02     0.07   0.03  -0.17
  12   6     0.07  -0.02  -0.09    -0.09   0.02   0.05    -0.31  -0.03   0.09
  13   6     0.00   0.02   0.02    -0.00   0.00  -0.00    -0.02  -0.05  -0.01
  14  16    -0.07  -0.22  -0.14    -0.01  -0.09  -0.04    -0.27  -0.10  -0.09
  15  15     0.25   0.06   0.16    -0.02  -0.01   0.02     0.13   0.10   0.07
  16  16    -0.05   0.07  -0.15    -0.02  -0.01   0.03     0.04   0.10  -0.13
  17   8     0.25   0.07  -0.07    -0.03   0.03   0.04     0.21  -0.12  -0.05
  18   6    -0.11  -0.02   0.02     0.02   0.03   0.03    -0.07  -0.04  -0.04
  19   8    -0.34   0.01  -0.03    -0.09   0.10  -0.04    -0.10  -0.09   0.05
  20   6    -0.06  -0.03   0.12     0.02  -0.00  -0.07    -0.06  -0.03   0.14
  21   1    -0.07  -0.07   0.03    -0.26  -0.23   0.15     0.06   0.04  -0.04
  22   1    -0.04   0.09  -0.06    -0.16   0.32  -0.26     0.04  -0.05   0.04
  23   1     0.10   0.00   0.02     0.39   0.00   0.04    -0.05  -0.00  -0.01
  24   1    -0.01  -0.01   0.01     0.13  -0.05   0.14    -0.02   0.01  -0.04
  25   1    -0.01  -0.01   0.01    -0.01  -0.19   0.06     0.01   0.04  -0.02
  26   1     0.02  -0.01  -0.02     0.08   0.06   0.05    -0.01  -0.02  -0.02
  27   1    -0.00   0.02  -0.01     0.04  -0.06   0.08    -0.00   0.03  -0.03
  28   1     0.03  -0.01  -0.02    -0.06   0.01  -0.01    -0.21  -0.00  -0.04
  29   1     0.02  -0.00  -0.03    -0.03   0.01   0.06    -0.11  -0.02   0.16
  30   1     0.30   0.14   0.18    -0.10  -0.06  -0.06    -0.19  -0.14  -0.12
  31   1     0.01  -0.14  -0.32     0.00   0.06   0.11     0.00   0.13   0.20
  32   1    -0.34   0.03   0.20     0.13  -0.01  -0.07     0.25  -0.04  -0.13
  33   1    -0.06  -0.02  -0.02     0.01   0.01   0.01    -0.06  -0.03  -0.05
  34   1    -0.06  -0.02  -0.04     0.01   0.01   0.01    -0.03  -0.01  -0.02
  35   1    -0.05   0.01   0.08     0.01   0.00  -0.00    -0.03   0.02   0.04
  36   1     0.00   0.00  -0.00     0.02   0.01  -0.05    -0.02  -0.01   0.05
  37   1    -0.04  -0.02   0.09     0.01  -0.01  -0.01    -0.02  -0.01   0.06
  38   1     0.03  -0.01   0.04     0.01  -0.02  -0.01    -0.00   0.01   0.03
                     28                     29                     30
                        a                      a                      a 
 Frequencies --   322.7929               358.1246               395.0167
 Red. masses --    17.6315                11.4569                17.8309
 Frc consts  --     0.0000                 0.0000                 0.0000
 IR Inten    --    18.1779                18.3865                 5.4865
 Raman Activ --     0.0000                 0.0000                 0.0000
 Depolar     --     0.0000                 0.0000                 0.0000
 Atom AN      X      Y      Z        X      Y      Z        X      Y      Z
   1   6    -0.05   0.01   0.04    -0.26   0.05   0.17     0.09  -0.00  -0.06
   2   6    -0.12   0.09  -0.05    -0.22   0.15   0.07    -0.04  -0.05  -0.06
   3   8    -0.04  -0.11  -0.02    -0.13  -0.22  -0.24    -0.05   0.04   0.09
   4   6    -0.01  -0.03   0.02     0.03   0.06  -0.18    -0.04   0.07   0.09
   5   8     0.07  -0.03   0.03     0.35   0.14  -0.12     0.05  -0.04  -0.01
   6   6    -0.01   0.09   0.07     0.23   0.05   0.26    -0.07   0.13   0.09
   7   6     0.00   0.12  -0.07     0.04  -0.13   0.02    -0.12   0.09  -0.16
   8   1    -0.01   0.02  -0.03     0.01  -0.06  -0.01    -0.05   0.01  -0.06
   9   6     0.04   0.08  -0.05     0.06  -0.07  -0.04     0.09  -0.02  -0.13
  10   8     0.12   0.03   0.07     0.00  -0.11  -0.11     0.04  -0.19  -0.13
  11   8     0.06   0.02  -0.03     0.08  -0.06   0.04     0.15  -0.12   0.17
  12   6    -0.06  -0.03   0.07     0.03   0.04  -0.01     0.09   0.12   0.04
  13   6    -0.03  -0.07  -0.03     0.02   0.06   0.03     0.04   0.13   0.03
  14  16     0.26  -0.31  -0.09    -0.13  -0.05   0.02    -0.34   0.05  -0.02
  15  15     0.09  -0.17   0.10    -0.08   0.09  -0.04     0.10  -0.05   0.26
  16  16    -0.18  -0.13   0.13     0.07   0.08  -0.05    -0.15  -0.22   0.11
  17   8    -0.08   0.29   0.07    -0.03  -0.08   0.03     0.21   0.01  -0.26
  18   6     0.06   0.07   0.13     0.01   0.01  -0.00    -0.13  -0.09  -0.21
  19   8    -0.29   0.35  -0.18     0.02  -0.05   0.03     0.17   0.20   0.15
  20   6     0.12   0.02  -0.26    -0.02  -0.02   0.04     0.07   0.03  -0.12
  21   1     0.05   0.05  -0.03    -0.07   0.01   0.05     0.06  -0.00  -0.04
  22   1     0.03  -0.08   0.08    -0.06  -0.05   0.03     0.03   0.03   0.03
  23   1    -0.11   0.01   0.01    -0.13   0.02   0.09     0.04  -0.01  -0.04
  24   1    -0.09   0.02  -0.05    -0.12   0.04  -0.00    -0.01  -0.02  -0.03
  25   1    -0.02   0.08  -0.01    -0.06   0.10   0.03    -0.01  -0.01  -0.02
  26   1    -0.01   0.06   0.04     0.20   0.18   0.15    -0.03   0.10   0.07
  27   1    -0.00  -0.01   0.05     0.07  -0.15   0.22     0.02  -0.02   0.06
  28   1    -0.06  -0.01  -0.00     0.01   0.01   0.00     0.04   0.04   0.02
  29   1    -0.02  -0.01   0.06     0.01   0.02  -0.00     0.03   0.05   0.00
  30   1    -0.06  -0.07  -0.04     0.00   0.03   0.01     0.01   0.05   0.01
  31   1    -0.01   0.00   0.04     0.01   0.02   0.01     0.01   0.04   0.02
  32   1     0.05  -0.01  -0.06     0.01   0.01   0.02     0.01   0.03   0.02
  33   1     0.05   0.04   0.07     0.00   0.00  -0.01    -0.07  -0.04  -0.08
  34   1     0.00   0.01   0.02     0.01   0.01   0.02    -0.07  -0.05  -0.10
  35   1     0.03  -0.02   0.02     0.00   0.01  -0.02    -0.05  -0.01   0.03
  36   1     0.08   0.03  -0.16    -0.01  -0.01   0.02     0.02   0.00  -0.06
  37   1     0.03  -0.02  -0.04    -0.01  -0.00   0.01     0.03   0.03  -0.09
  38   1     0.05  -0.07  -0.03    -0.00   0.00   0.01    -0.02  -0.05  -0.01
                     31                     32                     33
                        a                      a                      a 
 Frequencies --   403.8574               448.3166               444.8103
 Red. masses --    16.1474                27.2251                12.9049
 Frc consts  --     0.0000                 0.0000                 0.0000
 IR Inten    --    21.0426               131.2964                 4.4764
 Raman Activ --     0.0000                 0.0000                 0.0000
 Depolar     --     0.0000                 0.0000                 0.0000
 Atom AN      X      Y      Z        X      Y      Z        X      Y      Z
   1   6     0.15  -0.01  -0.10    -0.06   0.00   0.04    -0.02   0.00   0.02
   2   6    -0.06  -0.09  -0.09     0.07   0.05   0.04     0.04   0.02   0.02
   3   8    -0.07   0.06   0.15     0.06  -0.02  -0.09     0.04  -0.01  -0.03
   4   6    -0.06   0.08   0.14     0.04  -0.03  -0.06     0.01  -0.03  -0.03
   5   8    -0.00  -0.07   0.01     0.04   0.03  -0.01    -0.02   0.01   0.01
   6   6    -0.11   0.17   0.05     0.01  -0.06   0.00    -0.01  -0.03  -0.03
   7   6    -0.14   0.13  -0.19     0.02  -0.03   0.04     0.02  -0.00   0.01
   8   1    -0.08   0.02  -0.06     0.03  -0.01   0.01    -0.03  -0.04  -0.02
   9   6     0.08   0.01  -0.14     0.01  -0.01   0.03     0.10   0.21  -0.08
  10   8     0.05  -0.18  -0.10    -0.01   0.02  -0.00    -0.06  -0.10  -0.08
  11   8     0.15  -0.12   0.17    -0.01   0.03  -0.03     0.08   0.52  -0.01
  12   6     0.08   0.11   0.05    -0.01  -0.02   0.00     0.28  -0.02   0.38
  13   6     0.03   0.12   0.02    -0.01  -0.02  -0.00    -0.07  -0.29  -0.10
  14  16    -0.15  -0.19   0.06    -0.36   0.50   0.02    -0.26  -0.16  -0.01
  15  15     0.09  -0.05  -0.23     0.39  -0.37  -0.12    -0.01   0.03   0.01
  16  16     0.13   0.22  -0.11    -0.15  -0.18   0.13     0.03   0.04  -0.03
  17   8    -0.09  -0.04   0.25     0.06   0.15   0.10     0.00  -0.04  -0.00
  18   6     0.11   0.09   0.22     0.06   0.07   0.16    -0.00  -0.01  -0.01
  19   8    -0.19  -0.22  -0.18    -0.09  -0.14  -0.26     0.01   0.00   0.03
  20   6    -0.07  -0.03   0.10     0.01   0.03  -0.04    -0.01  -0.01   0.01
  21   1     0.09  -0.00  -0.06    -0.04   0.00   0.03    -0.02   0.00   0.02
  22   1     0.05   0.04   0.04    -0.02  -0.03  -0.03    -0.01  -0.01  -0.02
  23   1     0.07  -0.01  -0.06    -0.03   0.00   0.03    -0.02   0.00   0.01
  24   1    -0.02  -0.03  -0.04     0.03   0.02   0.02     0.01   0.01   0.01
  25   1    -0.01  -0.01  -0.03     0.01   0.00   0.02     0.01  -0.00   0.01
  26   1    -0.07   0.09   0.05     0.02  -0.02  -0.00    -0.01  -0.02  -0.02
  27   1     0.02   0.00   0.03    -0.01  -0.02   0.01    -0.01   0.01  -0.02
  28   1     0.04   0.04   0.02    -0.01  -0.01  -0.00     0.10  -0.04   0.11
  29   1     0.03   0.05   0.01    -0.00  -0.01   0.00     0.08  -0.02   0.05
  30   1     0.01   0.05   0.01    -0.00  -0.01  -0.00    -0.05  -0.21  -0.06
  31   1     0.01   0.03   0.01    -0.00  -0.01  -0.00    -0.05  -0.24  -0.08
  32   1     0.00   0.03   0.01    -0.00  -0.00  -0.00    -0.10   0.11  -0.17
  33   1     0.05   0.03   0.06     0.02   0.02   0.05    -0.00  -0.00  -0.01
  34   1     0.06   0.04   0.10     0.01   0.01   0.03     0.00   0.00   0.00
  35   1     0.04   0.02  -0.00     0.02   0.01   0.04    -0.00   0.00  -0.00
  36   1    -0.02  -0.00   0.06    -0.00   0.01   0.01    -0.00  -0.00   0.00
  37   1    -0.04  -0.03   0.09    -0.01  -0.00   0.04    -0.00   0.00  -0.00
  38   1     0.02   0.05   0.00     0.04   0.05  -0.03    -0.00  -0.01   0.00
                     34                     35                     36
                        a                      a                      a 
 Frequencies --   461.4370               563.1818               617.9087
 Red. masses --    12.2871                11.5506                11.8508
 Frc consts  --     0.0000                 0.0000                 0.0000
 IR Inten    --     6.8191                37.2912                18.5954
 Raman Activ --     0.0000                 0.0000                 0.0000
 Depolar     --     0.0000                 0.0000                 0.0000
 Atom AN      X      Y      Z        X      Y      Z        X      Y      Z
   1   6     0.19  -0.01  -0.15     0.04  -0.02  -0.05    -0.03   0.02   0.03
   2   6    -0.35  -0.19  -0.16     0.00  -0.02  -0.03    -0.18  -0.07   0.01
   3   8    -0.31   0.18   0.29    -0.04   0.24   0.13    -0.02  -0.20   0.04
   4   6    -0.12   0.16   0.02    -0.07  -0.31  -0.35     0.16   0.29   0.23
   5   8     0.23   0.07  -0.06     0.16   0.16   0.13    -0.20  -0.05  -0.16
   6   6     0.07  -0.11   0.07    -0.04  -0.32  -0.06     0.33  -0.04  -0.10
   7   6     0.12  -0.19   0.22    -0.01  -0.05  -0.29     0.07  -0.20  -0.23
   8   1     0.07  -0.04   0.07     0.02  -0.09  -0.13     0.03  -0.13  -0.12
   9   6     0.05  -0.10   0.10    -0.16   0.18  -0.15    -0.16   0.11  -0.19
  10   8    -0.08   0.01  -0.11     0.17   0.12   0.28     0.19   0.08   0.20
  11   8     0.00   0.15  -0.13    -0.18  -0.03   0.18    -0.19  -0.00   0.16
  12   6    -0.00  -0.05   0.03     0.03   0.04   0.05     0.03   0.04   0.07
  13   6    -0.02  -0.09  -0.02     0.01   0.03  -0.00     0.01   0.02  -0.00
  14  16     0.11   0.15  -0.04    -0.00  -0.01   0.02    -0.03   0.04   0.02
  15  15     0.01  -0.03  -0.01     0.00   0.00   0.00    -0.04   0.11  -0.07
  16  16    -0.03  -0.05   0.04    -0.00   0.00  -0.00    -0.05  -0.11   0.06
  17   8    -0.01   0.04   0.00     0.01  -0.00   0.00     0.10   0.02   0.01
  18   6     0.00   0.01   0.01    -0.00   0.00   0.00     0.01   0.02   0.04
  19   8     0.00  -0.01  -0.02    -0.01   0.00   0.00     0.01  -0.05  -0.05
  20   6     0.00   0.01  -0.01    -0.00  -0.00   0.00     0.00   0.01  -0.01
  21   1     0.17  -0.02  -0.13     0.03  -0.01  -0.03     0.02   0.01  -0.02
  22   1     0.07   0.12   0.13     0.01   0.02   0.01    -0.00   0.04   0.06
  23   1     0.14  -0.02  -0.11     0.04  -0.01  -0.03     0.01  -0.00  -0.02
  24   1    -0.09  -0.06  -0.08     0.05  -0.00  -0.00    -0.12  -0.03  -0.03
  25   1    -0.07  -0.01  -0.06    -0.01  -0.04  -0.01    -0.01   0.06  -0.01
  26   1     0.11  -0.03   0.00     0.09   0.09   0.08     0.04  -0.11  -0.08
  27   1     0.02  -0.04   0.03    -0.08  -0.24   0.16     0.23   0.06  -0.17
  28   1    -0.02  -0.03  -0.01     0.07   0.03   0.05     0.08   0.02   0.06
  29   1    -0.00  -0.02   0.02     0.01  -0.00  -0.06     0.01  -0.01  -0.07
  30   1    -0.01  -0.05  -0.01     0.01   0.00   0.01     0.01  -0.01   0.00
  31   1    -0.01  -0.04  -0.01     0.00   0.00  -0.02     0.00  -0.01  -0.02
  32   1    -0.01   0.00  -0.03    -0.01   0.02  -0.00    -0.01   0.02  -0.01
  33   1     0.00   0.00   0.01    -0.00   0.00  -0.00    -0.00   0.00   0.01
  34   1     0.00   0.00  -0.00    -0.00   0.00  -0.00    -0.00  -0.00   0.00
  35   1     0.00  -0.00   0.00    -0.00   0.00   0.00    -0.00   0.01   0.03
  36   1    -0.00   0.00  -0.00     0.00   0.00  -0.00    -0.00   0.00   0.01
  37   1    -0.00   0.00   0.00    -0.00  -0.00   0.00    -0.00   0.00   0.01
  38   1     0.00   0.01  -0.00     0.00  -0.00   0.00     0.01   0.02  -0.01
                     37                     38                     39
                        a                      a                      a 
 Frequencies --   638.9341               677.4380               699.3487
 Red. masses --    23.7446                13.0223                11.3998
 Frc consts  --     0.0000                 0.0000                 0.0000
 IR Inten    --   234.3873                14.9179                12.3353
 Raman Activ --     0.0000                 0.0000                 0.0000
 Depolar     --     0.0000                 0.0000                 0.0000
 Atom AN      X      Y      Z        X      Y      Z        X      Y      Z
   1   6    -0.01   0.00   0.00    -0.01  -0.00  -0.01    -0.00  -0.00   0.00
   2   6    -0.06  -0.03   0.00    -0.13  -0.10   0.02    -0.03   0.00  -0.01
   3   8    -0.00  -0.05   0.03     0.09  -0.12   0.37    -0.04   0.06  -0.06
   4   6     0.06   0.05   0.03     0.25  -0.28  -0.33    -0.03   0.01   0.00
   5   8    -0.06   0.00  -0.04    -0.32   0.15   0.04     0.07   0.00  -0.00
   6   6     0.11  -0.02  -0.03     0.28   0.23  -0.15     0.02  -0.11   0.09
   7   6     0.09  -0.01  -0.05     0.20   0.19   0.02     0.18   0.04   0.29
   8   1     0.03  -0.02  -0.03    -0.00   0.10   0.04     0.05  -0.14  -0.03
   9   6    -0.02   0.05  -0.02     0.05   0.03   0.11     0.00   0.65  -0.25
  10   8     0.03   0.02   0.06    -0.11  -0.01  -0.02    -0.18  -0.20   0.10
  11   8    -0.04  -0.02   0.03     0.08  -0.02  -0.05     0.21  -0.21   0.04
  12   6    -0.02  -0.01  -0.02    -0.04  -0.05  -0.09    -0.06  -0.06  -0.15
  13   6     0.00   0.00  -0.00    -0.01  -0.02  -0.00    -0.02   0.00  -0.01
  14  16    -0.06   0.09   0.00    -0.19  -0.08   0.04    -0.08  -0.05  -0.02
  15  15     0.24  -0.47   0.25    -0.01   0.06  -0.02    -0.04   0.01  -0.02
  16  16     0.17   0.37  -0.22    -0.01  -0.04   0.02    -0.00  -0.01   0.00
  17   8    -0.44  -0.08  -0.02     0.03  -0.00  -0.00     0.05   0.01   0.00
  18   6    -0.06  -0.07  -0.19     0.00   0.00   0.02     0.01   0.00   0.02
  19   8    -0.04   0.19   0.18     0.01  -0.02  -0.01     0.01  -0.00   0.01
  20   6    -0.02  -0.03   0.04     0.00   0.00  -0.00    -0.00  -0.00   0.00
  21   1     0.01   0.00  -0.01     0.04   0.03  -0.03     0.00  -0.01  -0.00
  22   1    -0.00   0.02   0.02     0.00   0.05   0.06    -0.00   0.01   0.01
  23   1     0.01  -0.00  -0.01     0.03  -0.01  -0.07     0.01   0.00   0.01
  24   1    -0.04  -0.01  -0.01    -0.14  -0.04  -0.08     0.03   0.00   0.01
  25   1    -0.00   0.02  -0.01     0.06   0.11  -0.03    -0.03  -0.03   0.00
  26   1     0.03  -0.03  -0.03     0.11   0.12  -0.02     0.02  -0.20  -0.09
  27   1     0.05   0.02  -0.04    -0.01   0.02   0.04    -0.09   0.14  -0.08
  28   1     0.00   0.00   0.00    -0.05  -0.01  -0.05    -0.09   0.01  -0.08
  29   1    -0.00  -0.00  -0.01    -0.01   0.00   0.03    -0.02   0.01   0.08
  30   1     0.00   0.01   0.00    -0.00   0.02   0.00    -0.01   0.07   0.00
  31   1     0.00   0.01   0.00     0.00   0.01   0.01     0.00   0.04   0.03
  32   1     0.00  -0.01   0.01     0.01  -0.04   0.02     0.02  -0.07   0.05
  33   1     0.02  -0.00  -0.03    -0.00  -0.00   0.00    -0.00  -0.00   0.00
  34   1     0.02   0.01  -0.01    -0.00  -0.00   0.00    -0.00  -0.00   0.00
  35   1    -0.00  -0.04  -0.15    -0.00   0.00   0.01    -0.00   0.00   0.02
  36   1     0.01  -0.01  -0.03    -0.00  -0.00   0.00    -0.00  -0.00   0.00
  37   1     0.01  -0.00  -0.03    -0.00   0.00   0.00    -0.00   0.00   0.00
  38   1    -0.03  -0.07   0.04     0.00   0.01  -0.00     0.00  -0.00   0.00
                     40                     41                     42
                        a                      a                      a 
 Frequencies --   729.6314               776.0026               798.4730
 Red. masses --    22.9276                22.9961                11.7070
 Frc consts  --     0.0000                 0.0000                 0.0000
 IR Inten    --   327.1860               244.0030                17.3204
 Raman Activ --     0.0000                 0.0000                 0.0000
 Depolar     --     0.0000                 0.0000                 0.0000
 Atom AN      X      Y      Z        X      Y      Z        X      Y      Z
   1   6    -0.00   0.00  -0.00    -0.00  -0.00   0.00    -0.04   0.02   0.02
   2   6     0.00   0.00  -0.00    -0.00   0.00  -0.00    -0.15   0.04  -0.07
   3   8    -0.01   0.01  -0.01    -0.01   0.01  -0.02    -0.04   0.15  -0.20
   4   6    -0.01  -0.00   0.00    -0.01   0.00   0.01    -0.05   0.02   0.15
   5   8     0.01  -0.01   0.00     0.01  -0.01   0.01     0.08  -0.12   0.08
   6   6    -0.01   0.00   0.01    -0.01  -0.00   0.01     0.10  -0.11   0.02
   7   6     0.00   0.01   0.01     0.03   0.02  -0.02     0.48   0.29  -0.32
   8   1     0.01  -0.01  -0.01     0.02   0.00  -0.01     0.21   0.10  -0.07
   9   6     0.01   0.03  -0.01     0.01  -0.00   0.02     0.05  -0.11   0.23
  10   8    -0.00  -0.01   0.02    -0.01   0.00   0.00    -0.06   0.09   0.02
  11   8     0.00  -0.01   0.00     0.00   0.00  -0.00     0.00   0.09   0.02
  12   6    -0.00  -0.00  -0.01    -0.00  -0.00  -0.01    -0.06  -0.06  -0.12
  13   6    -0.00  -0.00  -0.00     0.00  -0.00  -0.00    -0.01  -0.05  -0.01
  14  16     0.02  -0.05   0.00    -0.01  -0.04   0.01    -0.22  -0.15   0.09
  15  15     0.41   0.49   0.24     0.35   0.16  -0.58    -0.05   0.02   0.02
  16  16    -0.09  -0.19   0.10    -0.10  -0.19   0.14     0.01   0.01  -0.01
  17   8    -0.48  -0.14   0.00    -0.13  -0.04   0.04     0.04  -0.00  -0.01
  18   6    -0.07  -0.07  -0.16    -0.02  -0.02  -0.07     0.00   0.00   0.03
  19   8     0.01  -0.23  -0.25    -0.07   0.34   0.37     0.01  -0.03  -0.02
  20   6     0.05   0.06  -0.09    -0.14  -0.17   0.25     0.01   0.02  -0.02
  21   1    -0.00  -0.00  -0.00     0.00  -0.00  -0.00     0.05  -0.11  -0.07
  22   1     0.00  -0.00  -0.00     0.00  -0.00   0.00     0.01   0.01   0.08
  23   1    -0.00   0.00   0.00     0.00   0.00   0.01     0.02   0.03   0.12
  24   1     0.01   0.00   0.00     0.01   0.00   0.01     0.12   0.05   0.15
  25   1    -0.00  -0.01   0.00    -0.01  -0.01  -0.00    -0.09  -0.22  -0.03
  26   1    -0.01  -0.01  -0.00    -0.01  -0.00   0.00    -0.06  -0.04   0.02
  27   1    -0.01   0.01  -0.00    -0.00   0.00  -0.00     0.04   0.01  -0.03
  28   1    -0.00  -0.00  -0.00    -0.01   0.00  -0.01    -0.03   0.01  -0.04
  29   1    -0.00   0.00   0.00    -0.00  -0.00   0.01    -0.02  -0.01   0.00
  30   1     0.00   0.00   0.00    -0.00   0.01  -0.00    -0.00   0.04   0.00
  31   1     0.00   0.00   0.00    -0.00  -0.00   0.00     0.00   0.01   0.02
  32   1     0.00  -0.01   0.00    -0.00  -0.01   0.00     0.01  -0.07   0.04
  33   1     0.03   0.00  -0.02     0.01  -0.00  -0.01    -0.00  -0.00  -0.00
  34   1     0.03   0.01   0.01     0.01   0.00   0.00    -0.00  -0.00   0.00
  35   1     0.00  -0.05  -0.18     0.00  -0.01  -0.06    -0.00   0.00   0.02
  36   1    -0.01   0.00   0.02    -0.01  -0.03  -0.01     0.00   0.00   0.00
  37   1    -0.00   0.01   0.02    -0.01  -0.04   0.00     0.00   0.00   0.00
  38   1     0.05   0.10  -0.06    -0.08  -0.16   0.12     0.01   0.01  -0.01
                     43                     44                     45
                        a                      a                      a 
 Frequencies --   804.9130               821.7257               869.6358
 Red. masses --     5.5552                 5.0662                 8.0976
 Frc consts  --     0.0000                 0.0000                 0.0000
 IR Inten    --    21.2313                 6.1374                33.3484
 Raman Activ --     0.0000                 0.0000                 0.0000
 Depolar     --     0.0000                 0.0000                 0.0000
 Atom AN      X      Y      Z        X      Y      Z        X      Y      Z
   1   6    -0.01   0.01   0.00     0.08  -0.07   0.01    -0.03  -0.02   0.06
   2   6    -0.03   0.02  -0.02     0.21  -0.10   0.14    -0.06  -0.06   0.02
   3   8     0.00   0.04  -0.01    -0.10  -0.02  -0.02     0.03   0.14  -0.10
   4   6     0.00  -0.10  -0.06    -0.10   0.15   0.06     0.00  -0.15  -0.09
   5   8     0.00  -0.00   0.05     0.06   0.04  -0.09     0.03  -0.02   0.07
   6   6     0.00   0.15   0.10    -0.13  -0.18   0.04     0.01   0.18   0.19
   7   6     0.09   0.05   0.19     0.22   0.14  -0.11     0.07   0.02   0.12
   8   1     0.02   0.01   0.05     0.12   0.03  -0.03     0.04  -0.02   0.01
   9   6     0.07  -0.04  -0.17     0.06  -0.00   0.09    -0.01  -0.17  -0.21
  10   8     0.22  -0.09  -0.14    -0.02   0.02   0.00     0.28  -0.06  -0.13
  11   8    -0.14   0.10   0.15     0.02   0.07   0.05    -0.30   0.14   0.22
  12   6    -0.29  -0.04  -0.02    -0.09  -0.04  -0.08     0.06  -0.03  -0.11
  13   6    -0.06  -0.06   0.01    -0.02  -0.05  -0.01     0.08  -0.06  -0.05
  14  16    -0.02  -0.01  -0.01    -0.08  -0.07   0.03    -0.01  -0.00   0.00
  15  15    -0.00  -0.00  -0.01    -0.01   0.02   0.00    -0.00  -0.00   0.00
  16  16    -0.00   0.00   0.00     0.00  -0.00  -0.00     0.00   0.00  -0.00
  17   8    -0.00   0.00   0.00     0.01  -0.00  -0.01    -0.00   0.00   0.00
  18   6     0.00  -0.00   0.00     0.00   0.00   0.01     0.00  -0.00  -0.00
  19   8    -0.00   0.01   0.01     0.00  -0.01  -0.00    -0.00   0.00  -0.01
  20   6    -0.00  -0.00   0.00     0.00   0.01  -0.01    -0.00  -0.00   0.00
  21   1     0.02  -0.04  -0.02    -0.14   0.28   0.20    -0.02   0.08   0.04
  22   1     0.00  -0.00   0.02    -0.03   0.03  -0.15    -0.02   0.07   0.03
  23   1     0.00   0.01   0.04    -0.01  -0.08  -0.33     0.03  -0.03  -0.11
  24   1     0.03   0.02   0.04    -0.13  -0.11  -0.35     0.01  -0.03  -0.09
  25   1    -0.02  -0.06  -0.01     0.03   0.41   0.15    -0.05   0.06   0.05
  26   1    -0.01  -0.06  -0.04    -0.04  -0.02   0.03    -0.07  -0.13  -0.05
  27   1    -0.08   0.15  -0.03    -0.05  -0.06   0.03    -0.08   0.23  -0.07
  28   1     0.30  -0.20   0.19     0.04  -0.04   0.01    -0.10   0.25  -0.06
  29   1     0.02   0.15  -0.43    -0.00   0.04  -0.08    -0.06  -0.24   0.10
  30   1     0.16  -0.24   0.07     0.04  -0.03   0.02    -0.12   0.26  -0.06
  31   1     0.08   0.26  -0.17     0.02   0.07  -0.02    -0.06  -0.23   0.16
  32   1     0.11  -0.09   0.00     0.03  -0.07   0.03    -0.09  -0.03   0.07
  33   1     0.00  -0.00   0.00    -0.00  -0.00  -0.00     0.00  -0.00  -0.00
  34   1    -0.00   0.00   0.00     0.00  -0.00   0.00    -0.00   0.00   0.00
  35   1    -0.00  -0.00   0.00     0.00   0.00   0.01     0.00  -0.00  -0.00
  36   1     0.00   0.00   0.00     0.00   0.00   0.00     0.00  -0.00   0.00
  37   1    -0.00  -0.00  -0.00    -0.00  -0.00   0.00    -0.00  -0.00   0.00
  38   1    -0.00  -0.00   0.00     0.00   0.00  -0.00     0.00  -0.00   0.00
                     46                     47                     48
                        a                      a                      a 
 Frequencies --   882.2837               907.0392               947.2101
 Red. masses --     9.5706                 9.7305                10.4385
 Frc consts  --     0.0000                 0.0000                 0.0000
 IR Inten    --    10.2464                 7.8810                 7.4965
 Raman Activ --     0.0000                 0.0000                 0.0000
 Depolar     --     0.0000                 0.0000                 0.0000
 Atom AN      X      Y      Z        X      Y      Z        X      Y      Z
   1   6     0.12   0.02  -0.16    -0.13   0.00   0.14    -0.16   0.06   0.08
   2   6     0.23   0.17  -0.02    -0.19  -0.14  -0.02    -0.08  -0.11  -0.03
   3   8    -0.19  -0.27   0.26     0.25   0.14  -0.20     0.33  -0.14   0.10
   4   6    -0.07   0.16   0.03     0.06  -0.01   0.10     0.26   0.18  -0.10
   5   8    -0.04   0.07  -0.12    -0.01  -0.10   0.08    -0.02   0.27  -0.29
   6   6    -0.09  -0.04  -0.12     0.01  -0.05  -0.21    -0.33  -0.29   0.25
   7   6     0.06  -0.03   0.05    -0.26  -0.11  -0.00    -0.06   0.12  -0.03
   8   1    -0.03   0.01   0.03    -0.21   0.03   0.05     0.10  -0.02  -0.05
   9   6     0.10   0.05  -0.02     0.14   0.14   0.09     0.01  -0.06   0.02
  10   8     0.09  -0.03  -0.05    -0.06  -0.01   0.01     0.01   0.00  -0.03
  11   8    -0.05   0.24   0.28     0.15   0.25   0.23    -0.00   0.03   0.02
  12   6    -0.09  -0.08  -0.24    -0.11  -0.05  -0.23    -0.01  -0.00  -0.01
  13   6     0.00  -0.17  -0.06    -0.04  -0.20  -0.05     0.00  -0.01  -0.01
  14  16    -0.01  -0.01  -0.01     0.06   0.05  -0.03     0.01  -0.03   0.01
  15  15    -0.00   0.00   0.00     0.01  -0.00   0.00    -0.00   0.01  -0.00
  16  16    -0.00  -0.00  -0.00    -0.00  -0.00   0.00     0.00  -0.00  -0.00
  17   8     0.00  -0.00  -0.00    -0.00   0.00   0.00     0.00  -0.00  -0.01
  18   6    -0.00   0.00   0.00    -0.00  -0.00  -0.01     0.00   0.00   0.01
  19   8    -0.00  -0.00  -0.00     0.00   0.00  -0.00    -0.01  -0.01   0.01
  20   6     0.00   0.00  -0.00    -0.00  -0.00   0.00     0.01   0.01  -0.01
  21   1     0.00  -0.14  -0.05     0.03   0.07   0.01     0.09  -0.07  -0.10
  22   1     0.06  -0.19  -0.15    -0.04   0.16   0.17    -0.01   0.11   0.21
  23   1    -0.08   0.05   0.20     0.07  -0.03  -0.11     0.05   0.02   0.07
  24   1    -0.04   0.07   0.17     0.04  -0.05  -0.09    -0.06  -0.02   0.02
  25   1     0.11  -0.06  -0.07    -0.06  -0.01   0.01     0.14  -0.03  -0.13
  26   1     0.08   0.11   0.03     0.01   0.16   0.05    -0.23  -0.14   0.06
  27   1    -0.03  -0.13   0.08     0.13  -0.20   0.05    -0.18   0.02   0.03
  28   1    -0.03   0.13  -0.04     0.00   0.05  -0.03     0.01   0.01   0.00
  29   1    -0.04  -0.08  -0.01    -0.01   0.05  -0.04    -0.00  -0.00  -0.01
  30   1    -0.03   0.16  -0.00     0.03   0.08   0.02    -0.00   0.01   0.00
  31   1    -0.01  -0.04   0.09     0.01   0.06   0.04     0.00  -0.00   0.01
  32   1    -0.00  -0.19   0.13     0.04  -0.24   0.13     0.00  -0.02   0.01
  33   1     0.00   0.00  -0.00     0.00  -0.00  -0.00    -0.00   0.00   0.00
  34   1    -0.00   0.00   0.00    -0.00   0.00  -0.00    -0.00   0.00   0.00
  35   1    -0.00  -0.00   0.00    -0.00  -0.00  -0.00     0.00   0.00   0.00
  36   1     0.00   0.00   0.00    -0.00  -0.00  -0.00     0.00   0.00  -0.00
  37   1    -0.00   0.00   0.00    -0.00  -0.00  -0.00     0.00   0.00  -0.00
  38   1     0.00   0.00  -0.00    -0.00  -0.00   0.00     0.00   0.00  -0.00
                     49                     50                     51
                        a                      a                      a 
 Frequencies --   970.9814               985.4773              1023.7677
 Red. masses --     8.2581                14.4483                14.1127
 Frc consts  --     0.0000                 0.0000                 0.0000
 IR Inten    --    18.5491               320.9019               170.5078
 Raman Activ --     0.0000                 0.0000                 0.0000
 Depolar     --     0.0000                 0.0000                 0.0000
 Atom AN      X      Y      Z        X      Y      Z        X      Y      Z
   1   6    -0.08   0.02   0.08    -0.01   0.00   0.01    -0.00   0.00   0.00
   2   6    -0.01  -0.05  -0.04    -0.00  -0.00  -0.00     0.00  -0.00  -0.00
   3   8     0.15  -0.02  -0.06     0.01   0.00  -0.01     0.00  -0.00   0.00
   4   6    -0.02   0.17   0.20    -0.01   0.01   0.02    -0.00   0.00  -0.00
   5   8    -0.03  -0.08   0.00    -0.00  -0.01   0.01     0.00   0.01  -0.01
   6   6    -0.12  -0.07  -0.33    -0.01   0.00  -0.04    -0.00  -0.01   0.01
   7   6     0.28   0.12   0.28     0.02   0.01   0.03     0.02   0.01  -0.01
   8   1    -0.01   0.18   0.19    -0.00   0.01   0.02    -0.00   0.00  -0.00
   9   6    -0.04   0.05  -0.19     0.00   0.01  -0.02    -0.01  -0.01  -0.00
  10   8     0.13  -0.07  -0.06     0.01  -0.01  -0.01    -0.01   0.00   0.00
  11   8    -0.22  -0.13  -0.05    -0.02  -0.01  -0.01     0.01   0.01   0.00
  12   6     0.00  -0.05   0.08     0.00  -0.00   0.01    -0.00  -0.01  -0.01
  13   6     0.05   0.16   0.02     0.00   0.02   0.00     0.00   0.00   0.00
  14  16    -0.04  -0.03   0.00     0.00  -0.00   0.00    -0.01  -0.00   0.00
  15  15    -0.00   0.01   0.01     0.03  -0.02  -0.15    -0.08  -0.01   0.02
  16  16    -0.00  -0.00   0.00     0.00  -0.00  -0.01    -0.00  -0.00   0.00
  17   8    -0.01  -0.01  -0.02     0.05   0.06   0.21     0.18   0.22   0.65
  18   6     0.00   0.01   0.02    -0.02  -0.05  -0.19    -0.07  -0.16  -0.58
  19   8     0.03   0.03  -0.05    -0.30  -0.36   0.53     0.08   0.09  -0.22
  20   6    -0.02  -0.04   0.03     0.22   0.41  -0.37    -0.08  -0.14   0.09
  21   1     0.03   0.01  -0.01     0.00   0.00   0.00     0.00  -0.00  -0.00
  22   1    -0.02   0.08   0.11    -0.00   0.01   0.01    -0.00   0.00   0.00
  23   1     0.03  -0.00  -0.02     0.00  -0.00  -0.00     0.00   0.00   0.00
  24   1     0.03  -0.02  -0.03     0.01  -0.00  -0.00    -0.00  -0.00   0.00
  25   1     0.03  -0.02  -0.04     0.00  -0.00  -0.00     0.00   0.00  -0.00
  26   1     0.15   0.26   0.05     0.02   0.03   0.00    -0.01  -0.00   0.00
  27   1    -0.17  -0.24   0.20    -0.01  -0.02   0.02    -0.01   0.00   0.00
  28   1     0.01  -0.02   0.02     0.00  -0.00   0.00    -0.00  -0.00  -0.00
  29   1    -0.03  -0.13  -0.04    -0.00  -0.01  -0.00     0.00   0.00   0.00
  30   1    -0.04  -0.01  -0.03    -0.00   0.00  -0.00    -0.00  -0.00  -0.00
  31   1    -0.02  -0.08  -0.01    -0.00  -0.01   0.00     0.00   0.00  -0.00
  32   1    -0.05   0.19  -0.09    -0.01   0.02  -0.01     0.00   0.00  -0.00
  33   1     0.00   0.00   0.00     0.00  -0.01  -0.02     0.02  -0.03  -0.05
  34   1     0.00  -0.00   0.00     0.00  -0.00  -0.03     0.01  -0.00  -0.07
  35   1     0.00   0.00   0.00    -0.01  -0.01  -0.03    -0.02  -0.03  -0.09
  36   1    -0.00  -0.01   0.01     0.03   0.08  -0.05    -0.00  -0.02   0.03
  37   1    -0.01  -0.00   0.00     0.04   0.03  -0.01    -0.03  -0.03   0.04
  38   1    -0.00  -0.00   0.00     0.03   0.02  -0.04     0.02   0.04  -0.02
                     52                     53                     54
                        a                      a                      a 
 Frequencies --  1038.5531              1045.8312              1084.4031
 Red. masses --     8.6494                 9.1232                 6.1892
 Frc consts  --     0.0000                 0.0000                 0.0000
 IR Inten    --    39.0303                28.8648                39.9782
 Raman Activ --     0.0000                 0.0000                 0.0000
 Depolar     --     0.0000                 0.0000                 0.0000
 Atom AN      X      Y      Z        X      Y      Z        X      Y      Z
   1   6     0.09  -0.04  -0.10     0.24  -0.14  -0.31    -0.04  -0.15  -0.15
   2   6    -0.13   0.03   0.11    -0.44   0.09   0.35    -0.08   0.12   0.22
   3   8     0.04   0.04  -0.01     0.23   0.11  -0.06     0.22  -0.03  -0.03
   4   6     0.07  -0.02  -0.03     0.17   0.04   0.03    -0.13   0.06   0.07
   5   8     0.00   0.02  -0.02    -0.01   0.01  -0.03    -0.01  -0.05   0.02
   6   6     0.02  -0.07   0.05    -0.03  -0.13  -0.02    -0.14   0.24  -0.09
   7   6    -0.11   0.01  -0.04    -0.01   0.10   0.08     0.07  -0.16  -0.08
   8   1    -0.10   0.00  -0.00    -0.03   0.11   0.09     0.15  -0.33  -0.24
   9   6     0.12   0.05   0.09    -0.03  -0.00  -0.06    -0.07  -0.11   0.04
  10   8    -0.01  -0.01  -0.02     0.03  -0.02  -0.02    -0.04   0.05   0.04
  11   8     0.08   0.14   0.21    -0.07  -0.06  -0.07     0.10   0.09   0.03
  12   6    -0.14  -0.53  -0.13     0.03   0.18   0.05     0.07  -0.20   0.07
  13   6     0.06   0.42   0.00    -0.00  -0.13   0.00    -0.08   0.11  -0.13
  14  16     0.01   0.01  -0.01    -0.00  -0.01   0.00     0.01   0.01   0.00
  15  15     0.00   0.00  -0.00     0.00   0.00  -0.00    -0.00  -0.01   0.01
  16  16    -0.00  -0.00   0.00    -0.00  -0.00   0.00     0.00   0.00  -0.00
  17   8    -0.00  -0.00  -0.00     0.00   0.00   0.00    -0.00   0.00  -0.00
  18   6     0.00   0.00   0.00     0.00  -0.00  -0.00    -0.00   0.00   0.00
  19   8    -0.00  -0.00   0.00    -0.00   0.00   0.00    -0.00   0.00  -0.01
  20   6     0.00   0.00  -0.00     0.00  -0.00  -0.00     0.01   0.00   0.01
  21   1    -0.02  -0.02   0.01    -0.06  -0.05   0.01     0.06  -0.04  -0.09
  22   1     0.02  -0.07  -0.10     0.05  -0.20  -0.28    -0.00   0.05   0.07
  23   1    -0.03  -0.01  -0.00    -0.07  -0.03  -0.03     0.07  -0.05  -0.10
  24   1    -0.04   0.01   0.05    -0.12   0.04   0.15     0.00   0.03   0.05
  25   1    -0.06   0.01   0.05    -0.19   0.04   0.16     0.03   0.03   0.03
  26   1    -0.10  -0.04   0.03    -0.09   0.02   0.05     0.29   0.04  -0.11
  27   1     0.12  -0.02  -0.04    -0.04  -0.06   0.04    -0.38   0.10   0.13
  28   1    -0.01  -0.19  -0.02     0.01   0.07   0.01    -0.01  -0.06   0.00
  29   1    -0.05  -0.24  -0.06     0.01   0.06   0.00     0.04   0.03   0.08
  30   1    -0.06  -0.02  -0.06     0.01   0.01   0.02     0.03   0.09  -0.00
  31   1    -0.02  -0.05  -0.07     0.00  -0.00   0.03     0.01   0.14  -0.02
  32   1    -0.07   0.34  -0.18     0.01  -0.09   0.05     0.04  -0.09   0.05
  33   1    -0.00  -0.00   0.00    -0.00  -0.00  -0.00    -0.00  -0.00   0.00
  34   1    -0.00  -0.00  -0.00    -0.00   0.00   0.00     0.00   0.00   0.00
  35   1     0.00  -0.00   0.00    -0.00   0.00   0.00     0.00  -0.00  -0.00
  36   1     0.00   0.00  -0.00    -0.00  -0.00   0.00    -0.01  -0.01   0.00
  37   1     0.00   0.00   0.00    -0.00   0.00   0.00     0.00   0.01  -0.01
  38   1    -0.00   0.00  -0.00     0.00   0.00  -0.00    -0.01  -0.01   0.00
                     55                     56                     57
                        a                      a                      a 
 Frequencies --  1093.1781              1093.6192              1101.8574
 Red. masses --     7.4507                 6.9461                 7.7748
 Frc consts  --     0.0000                 0.0000                 0.0000
 IR Inten    --     7.0891                66.5559                88.7147
 Raman Activ --     0.0000                 0.0000                 0.0000
 Depolar     --     0.0000                 0.0000                 0.0000
 Atom AN      X      Y      Z        X      Y      Z        X      Y      Z
   1   6    -0.10  -0.17  -0.14    -0.18  -0.27  -0.20     0.02  -0.00   0.02
   2   6     0.05   0.19   0.19     0.17   0.32   0.25    -0.01   0.02  -0.06
   3   8    -0.02  -0.04  -0.03    -0.19  -0.07  -0.04    -0.10   0.03  -0.01
   4   6     0.00  -0.00   0.01     0.03  -0.03  -0.03     0.25  -0.05  -0.03
   5   8    -0.00  -0.01   0.00     0.01   0.01  -0.01    -0.02   0.03  -0.01
   6   6    -0.06   0.08  -0.01     0.10  -0.12   0.05    -0.28   0.26  -0.01
   7   6     0.06  -0.09  -0.03    -0.05   0.09   0.05     0.41  -0.43  -0.02
   8   1     0.01  -0.07  -0.04    -0.07   0.18   0.13    -0.11  -0.09   0.03
   9   6    -0.01   0.00   0.01     0.03   0.05  -0.02    -0.04   0.05  -0.02
  10   8    -0.02   0.01   0.03     0.02  -0.02  -0.03    -0.03   0.03   0.07
  11   8     0.06  -0.01   0.10    -0.07  -0.03  -0.07    -0.00  -0.01  -0.01
  12   6    -0.12   0.28  -0.36     0.04  -0.09   0.19     0.07  -0.05   0.04
  13   6     0.14  -0.19   0.35    -0.05   0.07  -0.17    -0.05   0.03  -0.05
  14  16     0.00   0.00  -0.00    -0.00  -0.00  -0.00    -0.00   0.02  -0.01
  15  15     0.00  -0.00   0.00    -0.00   0.00  -0.00    -0.01  -0.00   0.00
  16  16    -0.00   0.00  -0.00     0.00  -0.00   0.00    -0.00   0.00  -0.00
  17   8    -0.00  -0.00  -0.00     0.00   0.00   0.00    -0.00  -0.00  -0.00
  18   6    -0.00   0.01   0.00    -0.01  -0.01   0.00    -0.00   0.00  -0.00
  19   8    -0.00  -0.00   0.00     0.01  -0.01  -0.00    -0.02  -0.00  -0.00
  20   6     0.00   0.00   0.00    -0.01   0.01   0.00     0.03   0.00   0.01
  21   1     0.10  -0.04  -0.13     0.17  -0.06  -0.21    -0.02   0.03   0.03
  22   1    -0.01   0.11   0.14    -0.03   0.19   0.25    -0.00  -0.00  -0.03
  23   1     0.11  -0.06  -0.13     0.19  -0.10  -0.20    -0.01  -0.00  -0.02
  24   1     0.04   0.05   0.03     0.07   0.07   0.03     0.03   0.01  -0.01
  25   1     0.03   0.03   0.03     0.06   0.05   0.04    -0.08  -0.03   0.03
  26   1    -0.03   0.03   0.01    -0.12  -0.03   0.05    -0.50   0.22   0.18
  27   1    -0.02   0.02   0.01     0.21  -0.05  -0.07     0.08  -0.04   0.01
  28   1    -0.06   0.01  -0.12     0.04   0.01   0.07    -0.02  -0.03  -0.01
  29   1    -0.04   0.04  -0.06     0.01  -0.04   0.00     0.02   0.03   0.06
  30   1    -0.05  -0.32   0.01     0.02   0.16  -0.01     0.02   0.02   0.01
  31   1    -0.01  -0.28  -0.03     0.00   0.11   0.02     0.01   0.08  -0.02
  32   1    -0.05   0.27  -0.17     0.02  -0.12   0.08     0.03  -0.05   0.02
  33   1     0.00   0.00   0.01     0.00   0.00  -0.01     0.00   0.00   0.01
  34   1     0.00  -0.01  -0.01     0.00   0.00   0.01     0.00  -0.00  -0.00
  35   1     0.00  -0.01  -0.00    -0.00   0.00  -0.01     0.00  -0.00  -0.00
  36   1    -0.00  -0.00  -0.00     0.01   0.01  -0.02    -0.02  -0.02   0.01
  37   1     0.00   0.00  -0.00    -0.00  -0.02   0.01     0.01   0.03  -0.04
  38   1    -0.00  -0.00   0.00     0.00  -0.01   0.01    -0.02  -0.01   0.00
                     58                     59                     60
                        a                      a                      a 
 Frequencies --  1093.4176              1102.2239              1106.3550
 Red. masses --     3.5108                 4.0409                 3.5353
 Frc consts  --     0.0000                 0.0000                 0.0000
 IR Inten    --     0.2430                 7.9864                 1.3843
 Raman Activ --     0.0000                 0.0000                 0.0000
 Depolar     --     0.0000                 0.0000                 0.0000
 Atom AN      X      Y      Z        X      Y      Z        X      Y      Z
   1   6     0.01   0.00   0.00     0.01   0.01   0.01    -0.00   0.00  -0.00
   2   6    -0.01  -0.00  -0.00    -0.01  -0.01  -0.01     0.00  -0.00   0.01
   3   8     0.00   0.00  -0.00     0.01   0.00   0.00     0.00   0.00  -0.00
   4   6     0.01  -0.00  -0.00    -0.00   0.00   0.00    -0.01  -0.00  -0.00
   5   8    -0.00   0.00   0.00     0.00   0.00  -0.00     0.00  -0.00   0.00
   6   6    -0.03   0.03  -0.00     0.00  -0.00   0.00     0.01  -0.00   0.00
   7   6     0.03  -0.04  -0.01     0.00   0.01   0.00    -0.00   0.01   0.00
   8   1    -0.00  -0.02  -0.01    -0.01  -0.00  -0.00    -0.01   0.00   0.00
   9   6    -0.00   0.00   0.00     0.00  -0.00   0.00     0.00   0.00   0.00
  10   8    -0.00   0.00   0.01    -0.00   0.00  -0.00     0.00  -0.00  -0.00
  11   8     0.00   0.00   0.00    -0.00  -0.00  -0.00    -0.00  -0.00  -0.00
  12   6     0.00  -0.00  -0.00    -0.00   0.01  -0.00     0.00  -0.01   0.01
  13   6    -0.00   0.00   0.00     0.00  -0.00   0.00    -0.00   0.00  -0.01
  14  16    -0.00   0.01  -0.00    -0.01   0.00   0.00    -0.00   0.00  -0.00
  15  15     0.01  -0.00   0.00    -0.01   0.02   0.03     0.01  -0.01   0.00
  16  16    -0.00   0.00   0.00     0.00   0.00  -0.00     0.00   0.00  -0.00
  17   8    -0.04  -0.02  -0.03     0.07  -0.01   0.02     0.05  -0.20   0.03
  18   6     0.04   0.01   0.01    -0.10   0.03  -0.01    -0.11   0.38  -0.08
  19   8     0.19   0.01   0.09     0.06  -0.20  -0.17    -0.01   0.04   0.03
  20   6    -0.36   0.02  -0.17    -0.10   0.31   0.22     0.01  -0.05  -0.04
  21   1    -0.00   0.00   0.01    -0.01   0.00   0.01     0.00  -0.00  -0.00
  22   1     0.00  -0.01  -0.01     0.00  -0.01  -0.01     0.00  -0.00   0.00
  23   1    -0.00   0.00   0.00    -0.01   0.00   0.01     0.00   0.00   0.00
  24   1     0.00  -0.00   0.00    -0.00  -0.00   0.00    -0.00  -0.00  -0.00
  25   1    -0.01  -0.00   0.00    -0.00  -0.00  -0.00     0.00   0.00   0.00
  26   1    -0.03   0.02   0.01     0.01  -0.00  -0.00     0.00  -0.01  -0.00
  27   1    -0.01   0.00   0.00    -0.00  -0.00   0.00     0.00   0.00  -0.00
  28   1    -0.00  -0.00  -0.00     0.00  -0.00   0.00     0.00   0.00   0.00
  29   1     0.00   0.00   0.01    -0.00  -0.00  -0.00     0.00  -0.00  -0.00
  30   1     0.00  -0.00   0.00    -0.00  -0.00  -0.00    -0.00   0.01  -0.00
  31   1     0.00   0.00  -0.00    -0.00  -0.00   0.00     0.00   0.01   0.00
  32   1     0.00  -0.00  -0.00    -0.00   0.00  -0.00     0.00  -0.01   0.01
  33   1    -0.03  -0.01  -0.02     0.06   0.04   0.13     0.07   0.02   0.64
  34   1    -0.02  -0.01  -0.03     0.06  -0.02   0.01     0.04  -0.30  -0.45
  35   1    -0.00   0.02   0.06     0.01  -0.07  -0.15     0.03  -0.26  -0.03
  36   1     0.34   0.33  -0.17     0.18   0.17  -0.41    -0.02  -0.02   0.06
  37   1    -0.13  -0.46   0.46     0.15  -0.09  -0.21    -0.03   0.01   0.04
  38   1     0.28   0.06  -0.02    -0.19  -0.50   0.34     0.04   0.08  -0.06
                     61                     62                     63
                        a                      a                      a 
 Frequencies --  1113.2401              1140.8416              1142.4918
 Red. masses --     4.1184                 7.0878                 6.1400
 Frc consts  --     0.0000                 0.0000                 0.0000
 IR Inten    --     7.8110                65.8515               112.1498
 Raman Activ --     0.0000                 0.0000                 0.0000
 Depolar     --     0.0000                 0.0000                 0.0000
 Atom AN      X      Y      Z        X      Y      Z        X      Y      Z
   1   6    -0.00  -0.00  -0.00    -0.04   0.08  -0.09    -0.07   0.14  -0.13
   2   6     0.00   0.00   0.00     0.02  -0.16   0.17     0.06  -0.24   0.24
   3   8    -0.00  -0.00  -0.00     0.15   0.06  -0.06     0.12   0.11  -0.10
   4   6    -0.00   0.00   0.00    -0.27  -0.01  -0.04    -0.29  -0.03  -0.05
   5   8     0.00  -0.00   0.00     0.03  -0.00   0.01     0.04  -0.02   0.03
   6   6     0.01  -0.00   0.00    -0.03   0.08   0.02     0.01   0.05   0.03
   7   6     0.00   0.01  -0.00     0.16  -0.06  -0.07     0.06  -0.07   0.00
   8   1    -0.02  -0.00  -0.00    -0.28  -0.18  -0.10     0.06   0.20   0.15
   9   6     0.01   0.00   0.00     0.26   0.13   0.20    -0.13  -0.02  -0.12
  10   8    -0.00   0.00  -0.00    -0.04   0.00  -0.00     0.05  -0.01   0.00
  11   8    -0.00  -0.00  -0.00    -0.07  -0.14  -0.17    -0.05   0.06   0.11
  12   6    -0.00   0.00   0.01    -0.23   0.11   0.17     0.22  -0.06  -0.12
  13   6     0.00  -0.00  -0.00     0.15  -0.03  -0.06    -0.15   0.02   0.06
  14  16     0.00  -0.00   0.00    -0.00   0.01  -0.02    -0.01  -0.00   0.01
  15  15     0.03   0.02   0.00    -0.01   0.00  -0.00     0.00   0.00  -0.00
  16  16     0.00  -0.00  -0.00     0.00  -0.00   0.00    -0.00  -0.00   0.00
  17   8    -0.24  -0.06   0.10     0.00   0.01   0.00    -0.01  -0.00  -0.00
  18   6     0.37   0.10  -0.13    -0.00  -0.01  -0.00     0.00  -0.00   0.00
  19   8    -0.01  -0.05  -0.07     0.00   0.00   0.00    -0.00  -0.00   0.00
  20   6     0.01   0.06   0.07     0.00  -0.00   0.00    -0.00   0.00   0.00
  21   1     0.00  -0.00  -0.00     0.04  -0.12  -0.09     0.06  -0.17  -0.14
  22   1    -0.00   0.00   0.00     0.03  -0.05   0.04     0.04  -0.07   0.06
  23   1     0.00  -0.00  -0.00    -0.01   0.05   0.14    -0.02   0.08   0.21
  24   1     0.00   0.00   0.00    -0.16  -0.05  -0.01    -0.24  -0.08  -0.03
  25   1     0.00  -0.00  -0.00     0.18   0.12  -0.05     0.25   0.19  -0.06
  26   1    -0.00  -0.00  -0.00    -0.04   0.01   0.00    -0.05   0.01   0.02
  27   1    -0.00   0.00   0.00     0.09   0.01  -0.04     0.17  -0.00  -0.07
  28   1     0.00   0.00   0.00     0.14   0.09   0.16    -0.13  -0.07  -0.14
  29   1    -0.00  -0.00  -0.00    -0.07  -0.13  -0.25     0.06   0.09   0.21
  30   1    -0.00   0.00  -0.00    -0.07   0.16  -0.05     0.07  -0.15   0.05
  31   1     0.00   0.00   0.00    -0.02  -0.16   0.11     0.02   0.16  -0.10
  32   1    -0.00  -0.00   0.00    -0.08   0.01   0.04     0.08  -0.02  -0.03
  33   1    -0.23  -0.15  -0.13     0.00   0.00  -0.01    -0.00  -0.00  -0.00
  34   1    -0.23  -0.11  -0.36     0.00   0.01   0.01    -0.00   0.00  -0.00
  35   1    -0.02   0.13   0.63    -0.00   0.00  -0.01    -0.00   0.00   0.00
  36   1     0.01   0.00  -0.07    -0.00  -0.00   0.00     0.00   0.00  -0.00
  37   1     0.04   0.02  -0.09    -0.00   0.00  -0.00     0.00   0.00  -0.00
  38   1    -0.07  -0.12   0.08    -0.00   0.01  -0.00    -0.00  -0.01   0.00
                     64                     65                     66
                        a                      a                      a 
 Frequencies --  1147.2648              1178.4756              1193.4130
 Red. masses --     3.6322                 9.6342                 8.8007
 Frc consts  --     0.0000                 0.0000                 0.0000
[...]
  15  15     0.00   0.00  -0.00     0.00  -0.00   0.00     0.00   0.00  -0.00
  16  16    -0.00  -0.00   0.00    -0.00   0.00  -0.00    -0.00  -0.00   0.00
  17   8    -0.00   0.00  -0.00    -0.00  -0.00  -0.00    -0.00  -0.00  -0.01
  18   6     0.00   0.00  -0.00     0.00  -0.00   0.00     0.07   0.18  -0.15
  19   8    -0.00   0.00   0.00     0.00   0.00   0.00    -0.00  -0.00   0.00
  20   6    -0.00   0.00  -0.00     0.00   0.00   0.00     0.01  -0.02   0.00
  21   1     0.01   0.00   0.01     0.00  -0.00   0.00    -0.00   0.00  -0.00
  22   1    -0.01  -0.00   0.00    -0.00  -0.00  -0.00    -0.00  -0.00   0.00
  23   1    -0.00  -0.06   0.01     0.00   0.00  -0.00     0.00  -0.00   0.00
  24   1    -0.02   0.94  -0.21    -0.00  -0.01   0.00     0.00  -0.00   0.00
  25   1     0.02  -0.04   0.02     0.00  -0.00   0.00    -0.00   0.00  -0.00
  26   1     0.00  -0.00   0.00     0.00  -0.00   0.00     0.00  -0.00   0.00
  27   1    -0.00  -0.01  -0.01    -0.00  -0.00  -0.00     0.00   0.01   0.01
  28   1    -0.00  -0.00   0.01    -0.49  -0.10   0.82    -0.00  -0.00   0.00
  29   1     0.00  -0.00   0.00     0.06  -0.00  -0.02    -0.00   0.00  -0.00
  30   1     0.00  -0.00  -0.00     0.03   0.01  -0.06     0.00   0.00  -0.00
  31   1    -0.00   0.00  -0.00     0.01  -0.00   0.01    -0.00   0.00   0.00
  32   1     0.00   0.00   0.00    -0.01  -0.01  -0.01    -0.00  -0.00  -0.00
  33   1     0.00   0.00  -0.00    -0.00   0.00   0.00    -0.00   0.05  -0.01
  34   1    -0.00  -0.00   0.00     0.00   0.00  -0.00    -0.31  -0.70   0.58
  35   1    -0.00   0.00  -0.00     0.00  -0.00   0.00     0.07   0.04  -0.01
  36   1     0.00  -0.00   0.00    -0.00   0.00  -0.00    -0.06   0.07  -0.01
  37   1    -0.00   0.00  -0.00    -0.00  -0.00  -0.00     0.02   0.00   0.01
  38   1    -0.00   0.00  -0.00     0.00  -0.00  -0.00     0.00  -0.01  -0.01
                     94                     95                     96
                        a                      a                      a 
 Frequencies --  2976.5320              2978.3868              2985.3472
 Red. masses --     1.6281                 1.7478                 1.6929
 Frc consts  --     0.0000                 0.0000                 0.0000
 IR Inten    --    11.5593                 1.3201                 9.2947
 Raman Activ --     0.0000                 0.0000                 0.0000
 Depolar     --     0.0000                 0.0000                 0.0000
 Atom AN      X      Y      Z        X      Y      Z        X      Y      Z
   1   6    -0.00  -0.00   0.00    -0.00  -0.00   0.00     0.00  -0.00   0.00
   2   6     0.00   0.00   0.00    -0.00   0.00  -0.00     0.00  -0.00   0.00
   3   8     0.00   0.00   0.00    -0.00   0.00  -0.00     0.00  -0.00   0.00
   4   6    -0.00  -0.00   0.00     0.01   0.01   0.00    -0.00  -0.00  -0.00
   5   8     0.00   0.00  -0.00    -0.00  -0.00   0.00     0.00   0.00  -0.00
   6   6    -0.00  -0.00  -0.00     0.10   0.15   0.18    -0.00  -0.00  -0.00
   7   6    -0.00  -0.00   0.00     0.00   0.00   0.01     0.00  -0.00  -0.00
   8   1    -0.00   0.00  -0.00    -0.00   0.01  -0.01     0.00  -0.00  -0.00
   9   6    -0.00   0.00   0.00     0.00  -0.00  -0.00     0.00   0.00   0.00
  10   8     0.00  -0.00  -0.00    -0.00   0.00   0.00     0.00  -0.00  -0.00
  11   8     0.00   0.00  -0.00    -0.00  -0.00  -0.00    -0.00  -0.00  -0.00
  12   6    -0.00   0.00  -0.00    -0.00   0.00   0.00    -0.00   0.00   0.00
  13   6    -0.00   0.00  -0.00     0.00   0.00   0.00    -0.00  -0.00  -0.00
  14  16     0.00  -0.00  -0.00    -0.00   0.00   0.00    -0.00  -0.00   0.00
  15  15    -0.00   0.00   0.00     0.00  -0.00  -0.00     0.00   0.00   0.00
  16  16    -0.00  -0.00   0.00     0.00  -0.00   0.00     0.00  -0.00   0.00
  17   8    -0.00  -0.00  -0.00    -0.00  -0.00  -0.00    -0.00  -0.00  -0.01
  18   6     0.00   0.02  -0.01     0.00  -0.00  -0.00     0.11  -0.22  -0.03
  19   8     0.00   0.01  -0.01     0.00  -0.00   0.00    -0.00   0.00   0.00
  20   6    -0.14   0.18  -0.04    -0.00   0.00  -0.00    -0.01   0.00  -0.00
  21   1    -0.00  -0.00  -0.00    -0.00   0.00  -0.00    -0.00   0.00  -0.00
  22   1     0.00   0.00  -0.00     0.00   0.00  -0.00    -0.00  -0.00   0.00
  23   1    -0.00   0.00  -0.00     0.00   0.00  -0.00     0.00   0.00   0.00
  24   1     0.00  -0.00   0.00    -0.00  -0.01   0.00     0.00   0.00   0.00
  25   1    -0.00   0.00  -0.00     0.00  -0.00   0.01    -0.01   0.00  -0.01
  26   1    -0.00   0.00  -0.00     0.01   0.03   0.01    -0.00   0.00  -0.00
  27   1     0.00   0.01   0.01    -0.36  -0.59  -0.67     0.01   0.02   0.02
  28   1    -0.00   0.00   0.00     0.00   0.00  -0.00     0.00   0.00  -0.00
  29   1     0.01  -0.00   0.00     0.01  -0.00   0.00     0.01  -0.00   0.00
  30   1    -0.00  -0.00   0.00     0.00   0.00  -0.00    -0.00  -0.00   0.00
  31   1     0.00   0.00  -0.00    -0.00   0.00  -0.00     0.00  -0.00  -0.00
  32   1    -0.00  -0.00  -0.00    -0.00  -0.00  -0.00     0.00   0.00   0.00
  33   1     0.01  -0.01  -0.00    -0.01   0.02   0.00    -0.51   0.80   0.15
  34   1    -0.03  -0.07   0.06    -0.00  -0.01   0.01     0.03  -0.00  -0.02
  35   1     0.01   0.00  -0.00     0.00  -0.00  -0.00     0.10  -0.02   0.01
  36   1     0.61  -0.73   0.10     0.01  -0.01   0.00     0.01  -0.01   0.00
  37   1    -0.09   0.00  -0.03    -0.00   0.00   0.00     0.01   0.00   0.00
  38   1    -0.03   0.06   0.07    -0.00   0.00   0.00    -0.00   0.00   0.00
                     97                     98                     99
                        a                      a                      a 
 Frequencies --  2989.5637              2994.2860              2998.1493
 Red. masses --     1.7577                 1.7471                 1.7037
 Frc consts  --     0.0000                 0.0000                 0.0000
 IR Inten    --     6.6612                 9.2857                 5.9926
 Raman Activ --     0.0000                 0.0000                 0.0000
 Depolar     --     0.0000                 0.0000                 0.0000
 Atom AN      X      Y      Z        X      Y      Z        X      Y      Z
   1   6    -0.00   0.00   0.00     0.02  -0.01   0.02     0.00   0.00  -0.00
   2   6    -0.00   0.00  -0.01    -0.15   0.06  -0.20     0.00  -0.00   0.00
   3   8    -0.00   0.00   0.00    -0.01   0.00  -0.00     0.00   0.00  -0.00
   4   6    -0.00  -0.00  -0.00     0.00  -0.00  -0.00     0.00  -0.00   0.00
   5   8     0.00   0.00   0.00     0.00  -0.00   0.00     0.00   0.00  -0.00
   6   6    -0.00  -0.00  -0.00    -0.00  -0.00  -0.00     0.00  -0.00   0.00
   7   6    -0.00   0.00  -0.00    -0.00  -0.00  -0.00    -0.00  -0.00  -0.00
   8   1     0.00  -0.00   0.00     0.00  -0.00  -0.00    -0.00  -0.00   0.00
   9   6     0.00   0.00   0.00    -0.00  -0.00  -0.00    -0.00   0.00   0.00
  10   8     0.00  -0.00  -0.00     0.00   0.00   0.00     0.00  -0.00  -0.00
  11   8    -0.01  -0.00  -0.00     0.00   0.00   0.00     0.00  -0.00  -0.00
  12   6    -0.25   0.07  -0.02     0.01  -0.00   0.00    -0.00   0.00   0.00
  13   6     0.04  -0.00   0.00    -0.00  -0.00  -0.00     0.00  -0.00  -0.00
  14  16    -0.00   0.00  -0.00    -0.00   0.00  -0.00     0.00   0.00   0.00
  15  15     0.00  -0.00  -0.00     0.00  -0.00   0.00    -0.00   0.00   0.00
  16  16    -0.00  -0.00  -0.00    -0.00   0.00   0.00     0.00  -0.00   0.00
  17   8    -0.00   0.00   0.00    -0.00  -0.00  -0.00    -0.00  -0.00  -0.00
  18   6    -0.00   0.00   0.00     0.00  -0.00  -0.00     0.00   0.00  -0.00
  19   8    -0.00  -0.00   0.00     0.00   0.00  -0.00     0.01   0.00  -0.01
  20   6    -0.00  -0.00  -0.00     0.00   0.00   0.00     0.24   0.04   0.07
  21   1    -0.00   0.00  -0.00    -0.07   0.02  -0.09     0.00  -0.00   0.00
  22   1     0.00   0.00   0.00    -0.02  -0.01   0.01    -0.00  -0.00   0.00
  23   1    -0.00   0.00   0.00     0.00   0.02  -0.00     0.00  -0.00  -0.00
  24   1    -0.00  -0.00  -0.00    -0.02  -0.01  -0.02     0.00   0.00  -0.00
  25   1     0.01  -0.00   0.02     0.57  -0.19   0.75    -0.00   0.00  -0.00
  26   1    -0.00  -0.00   0.00     0.00  -0.00   0.01    -0.00   0.00  -0.00
  27   1     0.00   0.01   0.01     0.00   0.00   0.00     0.00   0.00   0.00
  28   1    -0.01   0.01  -0.03     0.00   0.00  -0.00     0.00   0.00  -0.00
  29   1     0.92  -0.24   0.10    -0.02   0.01  -0.00     0.02  -0.00   0.00
  30   1    -0.01  -0.00   0.03    -0.00  -0.00   0.00    -0.00  -0.00   0.00
  31   1    -0.13   0.03  -0.02     0.00  -0.00   0.00    -0.01   0.00  -0.00
  32   1    -0.00  -0.01  -0.01     0.00   0.00   0.00     0.00  -0.00  -0.00
  33   1     0.01  -0.01  -0.00    -0.01   0.01   0.00    -0.01   0.01   0.00
  34   1    -0.00  -0.00   0.00    -0.00  -0.00   0.00    -0.00  -0.01   0.01
  35   1     0.00   0.00   0.00     0.01   0.00   0.00    -0.01  -0.00  -0.00
  36   1    -0.00   0.00  -0.00     0.00  -0.00   0.00    -0.03   0.07   0.01
  37   1     0.02   0.01   0.01    -0.00  -0.00  -0.00    -0.83  -0.29  -0.37
  38   1    -0.00  -0.00  -0.00     0.00  -0.00  -0.00     0.01   0.06   0.13
                    100                    101                    102
                        a                      a                      a 
 Frequencies --  3018.8033              3022.5005              3030.4393
 Red. masses --     1.7424                 1.7969                 1.8354
 Frc consts  --     0.0000                 0.0000                 0.0000
 IR Inten    --     1.0879                 1.8716                 0.4878
 Raman Activ --     0.0000                 0.0000                 0.0000
 Depolar     --     0.0000                 0.0000                 0.0000
 Atom AN      X      Y      Z        X      Y      Z        X      Y      Z
   1   6    -0.00   0.00  -0.00    -0.00   0.00  -0.00    -0.00  -0.00  -0.00
   2   6     0.00   0.00   0.00     0.00  -0.00   0.00     0.00  -0.00   0.00
   3   8     0.00  -0.00   0.00     0.00   0.00   0.00     0.00   0.00   0.00
   4   6    -0.00   0.00  -0.01     0.00   0.00  -0.00     0.00   0.00  -0.00
   5   8    -0.00  -0.00   0.00    -0.00  -0.00   0.00    -0.00  -0.00   0.00
   6   6    -0.05   0.13  -0.21     0.00   0.00   0.00    -0.00   0.00  -0.00
   7   6    -0.00   0.01  -0.01     0.00  -0.00   0.00    -0.00   0.00  -0.00
   8   1     0.00  -0.01   0.02     0.00   0.00  -0.00    -0.00  -0.00   0.00
   9   6    -0.00  -0.00  -0.00    -0.00   0.00   0.00    -0.00  -0.00   0.00
  10   8    -0.00   0.00   0.00    -0.00  -0.00  -0.00     0.00   0.00  -0.00
  11   8     0.00   0.00   0.00    -0.00   0.00   0.00     0.00   0.00  -0.00
  12   6    -0.00   0.00  -0.00     0.00  -0.00   0.00     0.00  -0.00  -0.00
  13   6    -0.00   0.00  -0.00    -0.00   0.00  -0.00     0.02  -0.00  -0.00
  14  16    -0.00   0.00  -0.00     0.00  -0.00   0.00     0.00  -0.00  -0.00
  15  15     0.00  -0.00  -0.00    -0.00   0.00   0.00     0.00   0.00   0.00
  16  16    -0.00   0.00  -0.00     0.00   0.00   0.00     0.00   0.00  -0.00
  17   8    -0.00  -0.00  -0.00    -0.00  -0.00  -0.01    -0.00  -0.00  -0.00
  18   6     0.00  -0.00   0.00    -0.26  -0.03  -0.02     0.00   0.00  -0.00
  19   8     0.00   0.00  -0.00     0.00   0.00   0.00    -0.00  -0.00   0.01
  20   6     0.00  -0.00  -0.00     0.00   0.00   0.00    -0.01   0.15   0.23
  21   1     0.01  -0.00   0.02     0.01  -0.00   0.01     0.00  -0.00   0.00
  22   1     0.00   0.00  -0.00     0.00   0.00  -0.00     0.00   0.00  -0.00
  23   1    -0.00  -0.00  -0.00    -0.00  -0.00  -0.00    -0.00   0.00  -0.00
  24   1    -0.00  -0.00   0.00    -0.00   0.00  -0.00    -0.00  -0.00   0.00
  25   1    -0.00   0.00  -0.00    -0.00   0.00  -0.00    -0.00   0.00  -0.00
  26   1     0.18  -0.49   0.81    -0.00   0.00  -0.00     0.00  -0.01   0.01
  27   1    -0.01   0.00  -0.04    -0.00  -0.00  -0.00     0.00   0.00   0.00
  28   1     0.00  -0.00  -0.00     0.00   0.00  -0.00    -0.00  -0.00   0.00
  29   1     0.00  -0.00  -0.00    -0.00   0.00  -0.00    -0.01   0.00  -0.00
  30   1    -0.00  -0.00   0.00    -0.00   0.00  -0.00    -0.01  -0.00   0.02
  31   1     0.00  -0.00   0.00     0.01  -0.00   0.00    -0.06   0.01  -0.01
  32   1     0.00   0.00   0.00     0.00   0.00   0.00     0.00  -0.00  -0.00
  33   1    -0.00   0.00   0.00     0.01  -0.08  -0.01    -0.00   0.00   0.00
  34   1     0.00   0.00  -0.00    -0.02   0.04  -0.04    -0.00  -0.00   0.00
  35   1     0.00   0.00  -0.00     0.94   0.16   0.12    -0.01  -0.00  -0.00
  36   1     0.00  -0.00  -0.00     0.00  -0.00   0.00     0.05  -0.04   0.04
  37   1    -0.00  -0.00  -0.00    -0.01  -0.00  -0.00    -0.12  -0.02  -0.03
  38   1    -0.00   0.01   0.01     0.00  -0.00  -0.01     0.12  -0.46  -0.82
                    103                    104                    105
                        a                      a                      a 
 Frequencies --  3032.1768              3040.4947              3046.7832
 Red. masses --     1.8155                 1.8040                 1.6089
 Frc consts  --     0.0000                 0.0000                 0.0000
 IR Inten    --    40.6542                35.3991                21.7256
 Raman Activ --     0.0000                 0.0000                 0.0000
 Depolar     --     0.0000                 0.0000                 0.0000
 Atom AN      X      Y      Z        X      Y      Z        X      Y      Z
   1   6    -0.00   0.00  -0.00    -0.16   0.08  -0.20    -0.00   0.00  -0.00
   2   6    -0.00  -0.00  -0.00    -0.02   0.01  -0.03    -0.00   0.00  -0.00
   3   8    -0.00   0.00   0.00    -0.00   0.00  -0.00    -0.00  -0.00   0.00
   4   6    -0.00   0.00  -0.00     0.00  -0.00  -0.00     0.00  -0.00  -0.00
   5   8     0.00  -0.00   0.00    -0.00   0.00   0.00    -0.00  -0.00   0.00
   6   6     0.00  -0.00   0.00     0.00  -0.00   0.00    -0.00   0.00  -0.00
   7   6    -0.00   0.00  -0.00    -0.00  -0.00   0.00     0.00  -0.00   0.00
   8   1    -0.00  -0.00   0.00    -0.00   0.00  -0.00    -0.00   0.00  -0.00
   9   6    -0.00   0.00   0.00     0.00   0.00   0.00    -0.00  -0.00   0.00
  10   8     0.00  -0.00  -0.00     0.00  -0.00  -0.00     0.00   0.00  -0.00
  11   8    -0.00  -0.00  -0.00    -0.00  -0.00  -0.00    -0.00   0.00   0.00
  12   6    -0.05   0.01   0.00     0.00  -0.00   0.00    -0.01  -0.00   0.02
  13   6    -0.26   0.05   0.01     0.00  -0.00  -0.00    -0.08  -0.04   0.22
  14  16     0.00   0.00  -0.00     0.00  -0.00  -0.00    -0.00  -0.00  -0.00
  15  15    -0.00  -0.00   0.00    -0.00   0.00   0.00     0.00   0.00  -0.00
  16  16    -0.00   0.00   0.00    -0.00   0.00   0.00    -0.00  -0.00   0.00
  17   8     0.00   0.00   0.00     0.00   0.00   0.00    -0.00  -0.00  -0.00
  18   6     0.00   0.00   0.00     0.00  -0.00   0.00    -0.00  -0.00   0.00
  19   8    -0.00  -0.00   0.00     0.00   0.00  -0.00    -0.00  -0.00   0.00
  20   6     0.00   0.01   0.01    -0.00  -0.00  -0.00     0.00   0.00   0.00
  21   1     0.00  -0.00   0.00     0.58  -0.18   0.72     0.00   0.00   0.00
  22   1     0.00   0.00  -0.00     0.00   0.02  -0.03    -0.00   0.00   0.00
  23   1    -0.00  -0.01   0.00    -0.03  -0.13   0.01    -0.00  -0.01   0.00
  24   1    -0.00   0.00  -0.00    -0.00  -0.02   0.00    -0.00  -0.00   0.00
  25   1     0.00  -0.00   0.00     0.07  -0.02   0.09     0.00  -0.00   0.00
  26   1    -0.00   0.00  -0.00    -0.00   0.01  -0.02     0.00  -0.00   0.00
  27   1    -0.00  -0.00   0.00     0.00  -0.00   0.00     0.00   0.00   0.00
  28   1     0.01   0.00  -0.03     0.00  -0.00  -0.00     0.03   0.00  -0.05
  29   1     0.13  -0.03   0.01    -0.00   0.00  -0.00    -0.00  -0.00   0.00
  30   1     0.05   0.02  -0.16    -0.00  -0.00   0.01     0.46   0.08  -0.83
  31   1     0.90  -0.22   0.12    -0.00   0.00  -0.00    -0.19   0.04   0.01
  32   1    -0.03   0.01   0.01     0.00   0.00   0.00     0.00   0.02   0.05
  33   1     0.00   0.00  -0.00    -0.00   0.00   0.00    -0.00   0.00   0.00
  34   1    -0.00  -0.00   0.00    -0.00  -0.00   0.00     0.00   0.00  -0.00
  35   1    -0.02  -0.00  -0.00    -0.01  -0.00  -0.00     0.00   0.00   0.00
  36   1     0.00  -0.00   0.00     0.00  -0.00   0.00     0.00  -0.00   0.00
  37   1    -0.01  -0.00  -0.00     0.00   0.00   0.00    -0.00  -0.00  -0.00
  38   1     0.01  -0.03  -0.05    -0.00   0.00   0.00     0.00  -0.00  -0.01
                    106                    107                    108
                        a                      a                      a 
 Frequencies --  3050.6287              3062.5701              3063.5428
 Red. masses --     1.6327                 1.7365                 1.7239
 Frc consts  --     0.0000                 0.0000                 0.0000
 IR Inten    --    23.1299                14.9087                18.5037
 Raman Activ --     0.0000                 0.0000                 0.0000
 Depolar     --     0.0000                 0.0000                 0.0000
 Atom AN      X      Y      Z        X      Y      Z        X      Y      Z
   1   6    -0.02  -0.24   0.02    -0.02  -0.00   0.01    -0.23  -0.08   0.07
   2   6     0.00  -0.02   0.00    -0.00  -0.00   0.00    -0.01  -0.00  -0.00
   3   8     0.00  -0.00   0.00     0.00   0.00   0.00     0.00   0.00   0.00
   4   6    -0.00  -0.00  -0.00    -0.00   0.00  -0.00     0.00  -0.00   0.00
   5   8    -0.00   0.00  -0.00     0.00  -0.00  -0.00     0.00   0.00  -0.00
   6   6    -0.00  -0.00   0.00     0.00  -0.00   0.00    -0.00  -0.00   0.00
   7   6    -0.00   0.00  -0.00    -0.00   0.00  -0.00    -0.00   0.00  -0.00
   8   1    -0.00  -0.00   0.00     0.00  -0.00   0.00    -0.00  -0.00   0.00
   9   6    -0.00  -0.00   0.00     0.00   0.00  -0.00    -0.00  -0.00  -0.00
  10   8     0.00  -0.00  -0.00    -0.00   0.00   0.00    -0.00   0.00   0.00
  11   8    -0.00  -0.00  -0.00    -0.00  -0.00   0.00    -0.00   0.00  -0.00
  12   6    -0.00  -0.00   0.00    -0.00  -0.00  -0.01     0.00   0.00   0.00
  13   6    -0.00  -0.00   0.00    -0.10  -0.16  -0.18     0.01   0.01   0.01
  14  16     0.00  -0.00   0.00     0.00  -0.00  -0.00     0.00   0.00   0.00
  15  15    -0.00   0.00  -0.00     0.00  -0.00  -0.00     0.00  -0.00  -0.00
  16  16     0.00  -0.00  -0.00    -0.00  -0.00  -0.00    -0.00   0.00   0.00
  17   8    -0.00   0.00  -0.00    -0.00  -0.00   0.00    -0.00   0.00   0.00
  18   6     0.00   0.00  -0.00     0.00   0.00  -0.00     0.00  -0.00  -0.00
  19   8    -0.00   0.00  -0.00    -0.00   0.00   0.00    -0.00   0.00  -0.00
  20   6     0.00  -0.00  -0.00     0.00   0.00   0.00     0.00  -0.00  -0.00
  21   1     0.09  -0.06   0.12    -0.01   0.00  -0.00    -0.04  -0.01  -0.01
  22   1    -0.03  -0.04   0.01     0.06   0.02  -0.02     0.90   0.26  -0.23
  23   1     0.02   0.93  -0.20    -0.00  -0.01   0.00    -0.03   0.02  -0.00
  24   1    -0.00   0.05  -0.01    -0.00  -0.00  -0.00    -0.00   0.01  -0.00
  25   1    -0.00  -0.00  -0.00    -0.00  -0.00   0.00     0.01  -0.00   0.01
  26   1    -0.00   0.00  -0.00    -0.00   0.00  -0.00    -0.00   0.00  -0.00
  27   1     0.00   0.00   0.00    -0.00  -0.00  -0.00     0.00   0.00   0.00
  28   1     0.00   0.00  -0.00    -0.01  -0.00   0.01     0.00   0.00  -0.00
  29   1     0.00  -0.00   0.00     0.02  -0.00   0.00    -0.00   0.00  -0.00
  30   1     0.01   0.00  -0.01    -0.03  -0.02   0.01     0.00   0.00  -0.00
  31   1     0.00  -0.00   0.00    -0.02  -0.02  -0.02     0.00   0.00   0.00
  32   1     0.00   0.01   0.01     0.40   0.60   0.64    -0.03  -0.04  -0.05
  33   1    -0.00   0.00   0.00     0.00  -0.00  -0.00    -0.00   0.00   0.00
  34   1    -0.00  -0.00   0.00    -0.00  -0.00   0.00    -0.00  -0.00   0.00
  35   1    -0.00  -0.00  -0.00    -0.00  -0.00  -0.00    -0.00  -0.00  -0.00
  36   1    -0.00   0.00  -0.00     0.00  -0.00  -0.00    -0.00   0.00  -0.00
  37   1     0.00   0.00   0.00    -0.00  -0.00  -0.00    -0.00  -0.00  -0.00
  38   1    -0.00   0.00   0.00     0.00  -0.00  -0.00    -0.00   0.00   0.00
