      -----------------------------------------------------------      
     |                   =====================                   |     
     |                           x T B                           |     
     |                   =====================                   |     
     |                         S. Grimme                         |     
     |          Mulliken Center for Theoretical Chemistry        |     
     |                    University of Bonn                     |     
      -----------------------------------------------------------      

   * xtb version 6.7.1 (edcfbbe) compiled by 'albert@albert-system' on 2024-07-22

   xtb is free software: you can redistribute it and/or modify it under
   the terms of the GNU Lesser General Public License as published by
   the Free Software Foundation, either version 3 of the License, or
   (at your option) any later version.
   
   xtb is distributed in the hope that it will be useful,
   but WITHOUT ANY WARRANTY; without even the implied warranty of
   MERCHANTABILITY or FITNESS FOR A PARTICULAR PURPOSE.  See the
   GNU Lesser General Public License for more details.
   
   Cite this work as:
   * C. Bannwarth, E. Caldeweyher, S. Ehlert, A. Hansen, P. Pracht,
     J. Seibert, S. Spicher, S. Grimme, WIREs Comput. Mol. Sci., 2020, 11,
     e01493. DOI: 10.1002/wcms.1493
   
   for GFN2-xTB:
   * C. Bannwarth, S. Ehlert and S. Grimme., J. Chem. Theory Comput., 2019,
     15, 1652-1671. DOI: 10.1021/acs.jctc.8b01176
   for GFN1-xTB:
   * S. Grimme, C. Bannwarth, P. Shushkov, J. Chem. Theory Comput., 2017,
     13, 1989-2009. DOI: 10.1021/acs.jctc.7b00118
   for GFN0-xTB:
   * P. Pracht, E. Caldeweyher, S. Ehlert, S. Grimme, ChemRxiv, 2019, preprint.
     DOI: 10.26434/chemrxiv.8326202.v1
   for GFN-FF:
   * S. Spicher and S. Grimme, Angew. Chem. Int. Ed., 2020, 59, 15665-15673.
     DOI: 10.1002/anie.202004239
   
   for ALPB and GBSA implicit solvation:
   * S. Ehlert, M. Stahn, S. Spicher, S. Grimme, J. Chem. Theory Comput.,
     2021, 17, 4250-4261. DOI: 10.1021/acs.jctc.1c00471
   
   for ddCOSMO and CPCM-X implicit solvation:
   * M. Stahn, S. Ehlert, S. Grimme, J. Phys. Chem. A,
     2023, XX, XXXX-XXXX. DOI: 10.1021/acs.jpca.3c04382
   
   for DFT-D4:
   * E. Caldeweyher, C. Bannwarth and S. Grimme, J. Chem. Phys., 2017,
     147, 034112. DOI: 10.1063/1.4993215
   * E. Caldeweyher, S. Ehlert, A. Hansen, H. Neugebauer, S. Spicher,
     C. Bannwarth and S. Grimme, J. Chem. Phys., 2019, 150, 154122.
     DOI: 10.1063/1.5090222
   * E. Caldeweyher, J.-M. Mewes, S. Ehlert and S. Grimme, Phys. Chem. Chem. Phys.
     2020, 22, 8499-8512. DOI: 10.1039/D0CP00502A
   
   for sTDA-xTB:
   * S. Grimme and C. Bannwarth, J. Chem. Phys., 2016, 145, 054103.
     DOI: 10.1063/1.4959605
   
   in the mass-spec context:
   * V. Asgeirsson, C. Bauer and S. Grimme, Chem. Sci., 2017, 8, 4879.
     DOI: 10.1039/c7sc00601b
   * J. Koopman and S. Grimme, ACS Omega 2019, 4, 12, 15120-15133.
     DOI: 10.1021/acsomega.9b02011
   
   for metadynamics refer to:
   * S. Grimme, J. Chem. Theory Comput., 2019, 155, 2847-2862
     DOI: 10.1021/acs.jctc.9b00143
   
   for SPH calculations refer to:
   * S. Spicher and S. Grimme, J. Chem. Theory Comput., 2021, 17, 1701-1714
     DOI: 10.1021/acs.jctc.0c01306
   
   for ONIOM refer to:
   * C. Plett, A. Katbashev, S. Ehlert, S. Grimme, M. Bursch,
     Phys. Chem. Chem. Phys., 2023, 25, 17860-17868. DOI: 10.1039/D3CP02178E
   
   for DIPRO refer to:
   * J. Kohn, N. Gildemeister, S. Grimme, D. Fazzi, A. Hansen,
     J. Chem. Phys., 2023, just accepted.
   
   for PTB refer to:
   * S. Grimme, M. Mueller, A. Hansen, J. Chem. Phys., 2023, 158, 124111.
     DOI: 10.1063/5.0137838
   
   with help from (in alphabetical order)
   P. Atkinson, C. Bannwarth, F. Bohle, G. Brandenburg, E. Caldeweyher
   M. Checinski, S. Dohm, S. Ehlert, S. Ehrlich, I. Gerasimov, C. Hölzer
   A. Katbashev, J. Kohn, J. Koopman, C. Lavigne, S. Lehtola, F. März, M. Müller,
   F. Musil, H. Neugebauer, J. Pisarek, C. Plett, P. Pracht, F. Pultar,
   J. Seibert, P. Shushkov, S. Spicher, M. Stahn, M. Steiner, T. Strunk,
   J. Stückrath, T. Rose, and J. Unsleber
   
 * started run on 2025/04/09 at 05:20:51.328     
   ID    Z sym.   atoms
    1    6 C      1, 2, 7, 8, 10, 15, 16, 18, 19
    2    8 O      3, 6, 14, 17
    3   15 P      4, 12
    4   16 S      5, 9, 11, 13
    5    1 H      20-41

           -------------------------------------------------
          |                Calculation Setup                |
           -------------------------------------------------

          program call               : /srv/scratch/z5358697/.xtb/bin/xtb gas.coord --gfn2 --sp --chrg 0 --norestart --parallel 1
          hostname                   : k163
          coordinate file            : gas.coord
          omp threads                :                     1


           -------------------------------------------------
          |                 G F N 2 - x T B                 |
           -------------------------------------------------

        Reference                      10.1021/acs.jctc.8b01176
      * Hamiltonian:
        H0-scaling (s, p, d)           1.850000    2.230000    2.230000
        zeta-weighting                 0.500000
      * Dispersion:
        s8                             2.700000
        a1                             0.520000
        a2                             5.000000
        s9                             5.000000
      * Repulsion:
        kExp                           1.500000    1.000000
        rExp                           1.000000
      * Coulomb:
        alpha                          2.000000
        third order                    shell-resolved
        anisotropic                    true
        a3                             3.000000
        a5                             4.000000
        cn-shift                       1.200000
        cn-exp                         4.000000
        max-rad                        5.000000


          ...................................................
          :                      SETUP                      :
          :.................................................:
          :  # basis functions                 134          :
          :  # atomic orbitals                 128          :
          :  # shells                           66          :
          :  # electrons                       116          :
          :  max. iterations                   250          :
          :  Hamiltonian                  GFN2-xTB          :
          :  restarted?                      false          :
          :  GBSA solvation                  false          :
          :  PC potential                    false          :
          :  electronic temp.          300.0000000     K    :
          :  accuracy                    1.0000000          :
          :  -> integral cutoff          0.2500000E+02      :
          :  -> integral neglect         0.1000000E-07      :
          :  -> SCF convergence          0.1000000E-05 Eh   :
          :  -> wf. convergence          0.1000000E-03 e    :
          :  Broyden damping             0.4000000          :
          :  net charge                          0          :
          :  unpaired electrons                  0          :
          ...................................................

 iter      E             dE          RMSdq      gap      omega  full diag
   1    -65.3894947 -0.653895E+02  0.634E+00    4.27       0.0  T
   2    -65.5540401 -0.164545E+00  0.393E+00    3.30       1.0  T
   3    -65.5722584 -0.182182E-01  0.135E+00    3.09       1.0  T
   4    -65.5741916 -0.193329E-02  0.512E-01    2.88       1.0  T
   5    -65.5749369 -0.745279E-03  0.261E-01    2.98       1.0  T
   6    -65.5752517 -0.314794E-03  0.115E-01    2.95       1.0  T
   7    -65.5752936 -0.418551E-04  0.411E-02    2.96       1.0  T
   8    -65.5752992 -0.561202E-05  0.191E-02    2.97       1.0  T
   9    -65.5753001 -0.918438E-06  0.485E-03    2.97       3.2  T
  10    -65.5753001 -0.349777E-07  0.225E-03    2.97       7.0  T
  11    -65.5753001 -0.668024E-08  0.484E-04    2.97      32.2  T
  12    -65.5753001 -0.684878E-09  0.235E-04    2.97      66.4  T

   *** convergence criteria satisfied after 12 iterations ***

         #    Occupation            Energy/Eh            Energy/eV
      -------------------------------------------------------------
         1        2.0000           -0.7523034             -20.4712
       ...           ...                  ...                  ...
        52        2.0000           -0.4366650             -11.8823
        53        2.0000           -0.4057801             -11.0418
        54        2.0000           -0.3962343             -10.7821
        55        2.0000           -0.3759801             -10.2309
        56        2.0000           -0.3728020             -10.1445
        57        2.0000           -0.3688560             -10.0371
        58        2.0000           -0.3640809              -9.9071 (HOMO)
        59                         -0.2550884              -6.9413 (LUMO)
        60                         -0.2427038              -6.6043
        61                         -0.2069398              -5.6311
        62                         -0.1799456              -4.8966
        63                         -0.1646098              -4.4793
       ...                                ...                  ...
       128                          1.2850070              34.9668
      -------------------------------------------------------------
                  HL-Gap            0.1089925 Eh            2.9658 eV
             Fermi-level           -0.3095846 Eh           -8.4242 eV

 SCC (total)                   0 d,  0 h,  0 min,  0.056 sec
 SCC setup                      ...        0 min,  0.000 sec (  0.508%)
 Dispersion                     ...        0 min,  0.000 sec (  0.561%)
 classical contributions        ...        0 min,  0.000 sec (  0.107%)
 integral evaluation            ...        0 min,  0.008 sec ( 14.904%)
 iterations                     ...        0 min,  0.025 sec ( 44.527%)
 molecular gradient             ...        0 min,  0.022 sec ( 38.980%)
 printout                       ...        0 min,  0.000 sec (  0.386%)

         :::::::::::::::::::::::::::::::::::::::::::::::::::::
         ::                     SUMMARY                     ::
         :::::::::::::::::::::::::::::::::::::::::::::::::::::
         :: total energy             -65.014291491662 Eh    ::
         :: gradient norm              0.026451628458 Eh/a0 ::
         :: HOMO-LUMO gap              2.965837947305 eV    ::
         ::.................................................::
         :: SCC energy               -65.574342504665 Eh    ::
         :: -> isotropic ES            0.105327273307 Eh    ::
         :: -> anisotropic ES         -0.009307166311 Eh    ::
         :: -> anisotropic XC          0.030674700147 Eh    ::
         :: -> dispersion             -0.054377185863 Eh    ::
         :: repulsion energy           0.560051013002 Eh    ::
         :: add. restraining           0.000000000000 Eh    ::
         :: total charge               0.000000000000 e     ::
         :::::::::::::::::::::::::::::::::::::::::::::::::::::

           -------------------------------------------------
          |                Property Printout                |
           -------------------------------------------------

    * Orbital Energies and Occupations

         #    Occupation            Energy/Eh            Energy/eV
      -------------------------------------------------------------
         1        2.0000           -0.7523034             -20.4712
       ...           ...                  ...                  ...
        46        2.0000           -0.4633782             -12.6092
        47        2.0000           -0.4575579             -12.4508
        48        2.0000           -0.4561473             -12.4124
        49        2.0000           -0.4493590             -12.2277
        50        2.0000           -0.4468550             -12.1595
        51        2.0000           -0.4400689             -11.9749
        52        2.0000           -0.4366650             -11.8823
        53        2.0000           -0.4057801             -11.0418
        54        2.0000           -0.3962343             -10.7821
        55        2.0000           -0.3759801             -10.2309
        56        2.0000           -0.3728020             -10.1445
        57        2.0000           -0.3688560             -10.0371
        58        2.0000           -0.3640809              -9.9071 (HOMO)
        59                         -0.2550884              -6.9413 (LUMO)
        60                         -0.2427038              -6.6043
        61                         -0.2069398              -5.6311
        62                         -0.1799456              -4.8966
        63                         -0.1646098              -4.4793
        64                         -0.1515676              -4.1244
        65                         -0.1390641              -3.7841
        66                         -0.1362981              -3.7089
        67                         -0.1209505              -3.2912
        68                         -0.1171678              -3.1883
        69                         -0.0327665              -0.8916
       ...                                ...                  ...
       128                          1.2850070              34.9668
      -------------------------------------------------------------
                  HL-Gap            0.1089925 Eh            2.9658 eV
             Fermi-level           -0.3095846 Eh           -8.4242 eV

     #   Z          covCN         q      C6AA      α(0)
     1   6 C        3.751    -0.118    22.816     6.812
     2   6 C        3.867     0.083    19.167     6.226
     3   8 O        1.655    -0.249    18.137     5.749
     4  15 P        3.858     0.383   144.341    21.582
     5  16 S        0.925    -0.433   158.185    21.273
     6   8 O        1.656    -0.240    17.993     5.726
     7   6 C        3.862     0.083    19.162     6.225
     8   6 C        3.751    -0.113    22.718     6.797
     9  16 S        2.003    -0.116   145.908    20.330
    10   6 C        3.808     0.038    19.931     6.355
    11  16 S        2.003    -0.123   146.218    20.352
    12  15 P        3.819     0.381   144.414    21.587
    13  16 S        0.926    -0.430   158.045    21.264
    14   8 O        1.655    -0.253    18.208     5.760
    15   6 C        3.866     0.085    19.137     6.221
    16   6 C        3.751    -0.114    22.738     6.800
    17   8 O        1.655    -0.236    17.923     5.715
    18   6 C        3.820     0.080    19.232     6.241
    19   6 C        3.751    -0.114    22.752     6.802
    20   1 H        0.925     0.062     2.175     2.307
    21   1 H        0.925     0.063     2.162     2.299
    22   1 H        0.925     0.060     2.197     2.318
    23   1 H        0.924     0.061     2.183     2.311
    24   1 H        0.924     0.063     2.161     2.299
    25   1 H        0.924     0.073     2.048     2.238
    26   1 H        0.924     0.067     2.118     2.276
    27   1 H        0.925     0.058     2.222     2.331
    28   1 H        0.925     0.058     2.225     2.333
    29   1 H        0.925     0.059     2.215     2.327
    30   1 H        0.924     0.080     1.980     2.200
    31   1 H        0.925     0.081     1.974     2.197
    32   1 H        0.924     0.063     2.160     2.299
    33   1 H        0.924     0.059     2.207     2.323
    34   1 H        0.925     0.057     2.229     2.335
    35   1 H        0.925     0.062     2.177     2.307
    36   1 H        0.925     0.061     2.184     2.311
    37   1 H        0.924     0.073     2.049     2.239
    38   1 H        0.924     0.062     2.173     2.305
    39   1 H        0.925     0.069     2.096     2.264
    40   1 H        0.925     0.059     2.210     2.325
    41   1 H        0.925     0.053     2.282     2.362

 Mol. C6AA /au·bohr⁶  :      26550.515159
 Mol. C8AA /au·bohr⁸  :     863382.550957
 Mol. α(0) /au        :        258.324244


Wiberg/Mayer (AO) data.
largest (>0.10) Wiberg bond orders for each atom

 ---------------------------------------------------------------------------
     #   Z sym  total        # sym  WBO       # sym  WBO       # sym  WBO
 ---------------------------------------------------------------------------
     1   6 C    3.991 --     2 C    1.022    20 H    0.983    22 H    0.980
                            21 H    0.975
     2   6 C    3.911 --     1 C    1.022    24 H    0.970    23 H    0.968
                             3 O    0.908
     3   8 O    2.408 --     4 P    1.306     2 C    0.908
     4  15 P    5.272 --     5 S    1.514     6 O    1.326     3 O    1.306
                             9 S    0.985
     5  16 S    1.856 --     4 P    1.514     9 S    0.139
     6   8 O    2.414 --     4 P    1.326     7 C    0.893
     7   6 C    3.905 --     8 C    1.023    26 H    0.969    25 H    0.964
                             6 O    0.893
     8   6 C    3.992 --     7 C    1.023    29 H    0.984    28 H    0.980
                            27 H    0.976
     9  16 S    2.287 --    10 C    0.993     4 P    0.985     5 S    0.139
    10   6 C    3.962 --     9 S    0.993    11 S    0.980    31 H    0.969
                            30 H    0.946
    11  16 S    2.285 --    12 P    0.999    10 C    0.980    13 S    0.141
    12  15 P    5.281 --    13 S    1.507    17 O    1.333    14 O    1.306
                            11 S    0.999
    13  16 S    1.867 --    12 P    1.507    11 S    0.141
    14   8 O    2.394 --    12 P    1.306    15 C    0.899
    15   6 C    3.911 --    16 C    1.023    32 H    0.970    33 H    0.968
                            14 O    0.899
    16   6 C    3.991 --    15 C    1.023    36 H    0.984    34 H    0.980
                            35 H    0.976
    17   8 O    2.430 --    12 P    1.333    18 C    0.897
    18   6 C    3.901 --    19 C    1.020    38 H    0.970    37 H    0.963
                            17 O    0.897
    19   6 C    3.990 --    18 C    1.020    41 H    0.985    40 H    0.980
                            39 H    0.979
    20   1 H    0.996 --     1 C    0.983
    21   1 H    0.996 --     1 C    0.975
    22   1 H    0.996 --     1 C    0.980
    23   1 H    0.996 --     2 C    0.968
    24   1 H    0.996 --     2 C    0.970
    25   1 H    0.995 --     7 C    0.964
    26   1 H    0.995 --     7 C    0.969
    27   1 H    0.997 --     8 C    0.976
    28   1 H    0.996 --     8 C    0.980
    29   1 H    0.996 --     8 C    0.984
    30   1 H    0.993 --    10 C    0.946
    31   1 H    0.993 --    10 C    0.969
    32   1 H    0.995 --    15 C    0.970
    33   1 H    0.996 --    15 C    0.968
    34   1 H    0.996 --    16 C    0.980
    35   1 H    0.996 --    16 C    0.976
    36   1 H    0.996 --    16 C    0.984
    37   1 H    0.995 --    18 C    0.963
    38   1 H    0.996 --    18 C    0.970
    39   1 H    0.995 --    19 C    0.979
    40   1 H    0.995 --    19 C    0.980
    41   1 H    0.997 --    19 C    0.985
 ---------------------------------------------------------------------------

Topologies differ in total number of bonds
Writing topology from bond orders to xtbtopo.mol

molecular dipole:
                 x           y           z       tot (Debye)
 q only:       -0.004       0.243       0.033
   full:       -0.209       0.107       0.330       1.028
molecular quadrupole (traceless):
                xx          xy          yy          xz          yz          zz
 q only:       16.746       0.749      -7.853      -8.019      -0.980      -8.894
  q+dip:       22.006       3.446     -10.658      -3.675      -4.500     -11.349
   full:       21.990       3.649     -10.374      -5.682      -3.949     -11.616


           -------------------------------------------------
          | TOTAL ENERGY              -65.014291491662 Eh   |
          | GRADIENT NORM               0.026451628458 Eh/α |
          | HOMO-LUMO GAP               2.965837947305 eV   |
           -------------------------------------------------

------------------------------------------------------------------------
 * finished run on 2025/04/09 at 05:20:51.418     
------------------------------------------------------------------------
 total:
 * wall-time:     0 d,  0 h,  0 min,  0.089 sec
 *  cpu-time:     0 d,  0 h,  0 min,  0.069 sec
 * ratio c/w:     0.777 speedup
 SCF:
 * wall-time:     0 d,  0 h,  0 min,  0.056 sec
 *  cpu-time:     0 d,  0 h,  0 min,  0.056 sec
 * ratio c/w:     0.990 speedup

