      -----------------------------------------------------------      
     |                   =====================                   |     
     |                           x T B                           |     
     |                   =====================                   |     
     |                         S. Grimme                         |     
     |          Mulliken Center for Theoretical Chemistry        |     
     |                    University of Bonn                     |     
      -----------------------------------------------------------      

   * xtb version 6.7.1 (edcfbbe) compiled by 'albert@albert-system' on 2024-07-22

   xtb is free software: you can redistribute it and/or modify it under
   the terms of the GNU Lesser General Public License as published by
   the Free Software Foundation, either version 3 of the License, or
   (at your option) any later version.
   
   xtb is distributed in the hope that it will be useful,
   but WITHOUT ANY WARRANTY; without even the implied warranty of
   MERCHANTABILITY or FITNESS FOR A PARTICULAR PURPOSE.  See the
   GNU Lesser General Public License for more details.
   
   Cite this work as:
   * C. Bannwarth, E. Caldeweyher, S. Ehlert, A. Hansen, P. Pracht,
     J. Seibert, S. Spicher, S. Grimme, WIREs Comput. Mol. Sci., 2020, 11,
     e01493. DOI: 10.1002/wcms.1493
   
   for GFN2-xTB:
   * C. Bannwarth, S. Ehlert and S. Grimme., J. Chem. Theory Comput., 2019,
     15, 1652-1671. DOI: 10.1021/acs.jctc.8b01176
   for GFN1-xTB:
   * S. Grimme, C. Bannwarth, P. Shushkov, J. Chem. Theory Comput., 2017,
     13, 1989-2009. DOI: 10.1021/acs.jctc.7b00118
   for GFN0-xTB:
   * P. Pracht, E. Caldeweyher, S. Ehlert, S. Grimme, ChemRxiv, 2019, preprint.
     DOI: 10.26434/chemrxiv.8326202.v1
   for GFN-FF:
   * S. Spicher and S. Grimme, Angew. Chem. Int. Ed., 2020, 59, 15665-15673.
     DOI: 10.1002/anie.202004239
   
   for ALPB and GBSA implicit solvation:
   * S. Ehlert, M. Stahn, S. Spicher, S. Grimme, J. Chem. Theory Comput.,
     2021, 17, 4250-4261. DOI: 10.1021/acs.jctc.1c00471
   
   for ddCOSMO and CPCM-X implicit solvation:
   * M. Stahn, S. Ehlert, S. Grimme, J. Phys. Chem. A,
     2023, XX, XXXX-XXXX. DOI: 10.1021/acs.jpca.3c04382
   
   for DFT-D4:
   * E. Caldeweyher, C. Bannwarth and S. Grimme, J. Chem. Phys., 2017,
     147, 034112. DOI: 10.1063/1.4993215
   * E. Caldeweyher, S. Ehlert, A. Hansen, H. Neugebauer, S. Spicher,
     C. Bannwarth and S. Grimme, J. Chem. Phys., 2019, 150, 154122.
     DOI: 10.1063/1.5090222
   * E. Caldeweyher, J.-M. Mewes, S. Ehlert and S. Grimme, Phys. Chem. Chem. Phys.
     2020, 22, 8499-8512. DOI: 10.1039/D0CP00502A
   
   for sTDA-xTB:
   * S. Grimme and C. Bannwarth, J. Chem. Phys., 2016, 145, 054103.
     DOI: 10.1063/1.4959605
   
   in the mass-spec context:
   * V. Asgeirsson, C. Bauer and S. Grimme, Chem. Sci., 2017, 8, 4879.
     DOI: 10.1039/c7sc00601b
   * J. Koopman and S. Grimme, ACS Omega 2019, 4, 12, 15120-15133.
     DOI: 10.1021/acsomega.9b02011
   
   for metadynamics refer to:
   * S. Grimme, J. Chem. Theory Comput., 2019, 155, 2847-2862
     DOI: 10.1021/acs.jctc.9b00143
   
   for SPH calculations refer to:
   * S. Spicher and S. Grimme, J. Chem. Theory Comput., 2021, 17, 1701-1714
     DOI: 10.1021/acs.jctc.0c01306
   
   for ONIOM refer to:
   * C. Plett, A. Katbashev, S. Ehlert, S. Grimme, M. Bursch,
     Phys. Chem. Chem. Phys., 2023, 25, 17860-17868. DOI: 10.1039/D3CP02178E
   
   for DIPRO refer to:
   * J. Kohn, N. Gildemeister, S. Grimme, D. Fazzi, A. Hansen,
     J. Chem. Phys., 2023, just accepted.
   
   for PTB refer to:
   * S. Grimme, M. Mueller, A. Hansen, J. Chem. Phys., 2023, 158, 124111.
     DOI: 10.1063/5.0137838
   
   with help from (in alphabetical order)
   P. Atkinson, C. Bannwarth, F. Bohle, G. Brandenburg, E. Caldeweyher
   M. Checinski, S. Dohm, S. Ehlert, S. Ehrlich, I. Gerasimov, C. Hölzer
   A. Katbashev, J. Kohn, J. Koopman, C. Lavigne, S. Lehtola, F. März, M. Müller,
   F. Musil, H. Neugebauer, J. Pisarek, C. Plett, P. Pracht, F. Pultar,
   J. Seibert, P. Shushkov, S. Spicher, M. Stahn, M. Steiner, T. Strunk,
   J. Stückrath, T. Rose, and J. Unsleber
   
 * started run on 2025/04/09 at 09:47:03.532     
   ID    Z sym.   atoms
    1    6 C      1, 2, 4, 6, 7, 9, 12, 13, 18, 20
    2    8 O      3, 5, 10, 11, 17, 19
    3    1 H      8, 21-38
    4   16 S      14, 16
    5   15 P      15

           -------------------------------------------------
          |                Calculation Setup                |
           -------------------------------------------------

          program call               : /software/projects/pawsey0265/mwang1/xtb/bin/xtb xtb_rrho.coord --gfn2 --bhess vtight --chrg 0 --enso --norestart -I rrho-xcontrol-inp --parallel 1 --alpb water
          hostname                   : nid002043
          coordinate file            : xtb_rrho.coord
          omp threads                :                     1


           -------------------------------------------------
          |                 G F N 2 - x T B                 |
           -------------------------------------------------

        Reference                      10.1021/acs.jctc.8b01176
      * Hamiltonian:
        H0-scaling (s, p, d)           1.850000    2.230000    2.230000
        zeta-weighting                 0.500000
      * Dispersion:
        s8                             2.700000
        a1                             0.520000
        a2                             5.000000
        s9                             5.000000
      * Repulsion:
        kExp                           1.500000    1.000000
        rExp                           1.000000
      * Coulomb:
        alpha                          2.000000
        third order                    shell-resolved
        anisotropic                    true
        a3                             3.000000
        a5                             4.000000
        cn-shift                       1.200000
        cn-exp                         4.000000
        max-rad                        5.000000

      * Solvation model:               ALPB
        Solvent                        water
        Parameter file                 internal GFN2-xTB/ALPB
        Dielectric constant                8.0200E+01
        Reference state                gsolv [1 M gas/solution]
        Free energy shift                  1.0808E-03 Eh       6.7819E-01 kcal/mol
        Temperature                        2.9815E+02 K
        Density                            1.0000E+00 kg/L
        Solvent mass                       1.8000E+01 g/mol
        Interaction kernel             P16
        Born radius scaling (c1)           1.4744E+00
        Born radii integrator          GBOBC
        Born offset                        0.0000E+00 a0       0.0000E+00 AA
        H-bond correction              true
        Ion screening                  false
        Surface tension                    1.0000E-05 Eh       1.5569E+01 dyn/cm
        Grid points                               974 per atom

          ...................................................
          :                      SETUP                      :
          :.................................................:
          :  # basis functions                 113          :
          :  # atomic orbitals                 110          :
          :  # shells                           60          :
          :  # electrons                       112          :
          :  max. iterations                   250          :
          :  Hamiltonian                  GFN2-xTB          :
          :  restarted?                      false          :
          :  GBSA solvation                   true          :
          :  PC potential                    false          :
          :  electronic temp.          300.0000000     K    :
          :  accuracy                    1.0000000          :
          :  -> integral cutoff          0.2500000E+02      :
          :  -> integral neglect         0.1000000E-07      :
          :  -> SCF convergence          0.1000000E-05 Eh   :
          :  -> wf. convergence          0.1000000E-03 e    :
          :  Broyden damping             0.4000000          :
          :  net charge                          0          :
          :  unpaired electrons                  0          :
          ...................................................

 iter      E             dE          RMSdq      gap      omega  full diag
   1    -65.0579727 -0.650580E+02  0.586E+00    4.40       0.0  T
   2    -65.1966148 -0.138642E+00  0.307E+00    3.24       1.0  T
   3    -65.2065893 -0.997454E-02  0.125E+00    3.46       1.0  T
   4    -65.2133107 -0.672132E-02  0.469E-01    3.26       1.0  T
   5    -65.2141314 -0.820765E-03  0.217E-01    3.38       1.0  T
   6    -65.2142729 -0.141433E-03  0.962E-02    3.37       1.0  T
   7    -65.2142915 -0.186757E-04  0.329E-02    3.38       1.0  T
   8    -65.2142932 -0.167713E-05  0.125E-02    3.38       1.3  T
   9    -65.2142938 -0.609687E-06  0.413E-03    3.39       3.9  T
  10    -65.2142939 -0.613119E-07  0.213E-03    3.39       7.6  T
  11    -65.2142939 -0.137139E-07  0.569E-04    3.39      28.5  T
  12    -65.2142939 -0.100927E-08  0.248E-04    3.39      65.4  T

   *** convergence criteria satisfied after 12 iterations ***

         #    Occupation            Energy/Eh            Energy/eV
      -------------------------------------------------------------
         1        2.0000           -0.7718642             -21.0035
       ...           ...                  ...                  ...
        50        2.0000           -0.4548583             -12.3773
        51        2.0000           -0.4505675             -12.2606
        52        2.0000           -0.4472040             -12.1690
        53        2.0000           -0.4379503             -11.9172
        54        2.0000           -0.4126862             -11.2298
        55        2.0000           -0.3981623             -10.8345
        56        2.0000           -0.3967490             -10.7961 (HOMO)
        57                         -0.2723089              -7.4099 (LUMO)
        58                         -0.2663150              -7.2468
        59                         -0.2522343              -6.8636
        60                         -0.2048071              -5.5731
        61                         -0.1805559              -4.9132
       ...                                ...                  ...
       110                          1.2584901              34.2453
      -------------------------------------------------------------
                  HL-Gap            0.1244401 Eh            3.3862 eV
             Fermi-level           -0.3345289 Eh           -9.1030 eV

 SCC (total)                   0 d,  0 h,  0 min,  0.119 sec
 SCC setup                      ...        0 min,  0.003 sec (  2.535%)
 Dispersion                     ...        0 min,  0.000 sec (  0.328%)
 classical contributions        ...        0 min,  0.000 sec (  0.067%)
 integral evaluation            ...        0 min,  0.048 sec ( 40.220%)
 iterations                     ...        0 min,  0.035 sec ( 29.012%)
 molecular gradient             ...        0 min,  0.033 sec ( 27.529%)
 printout                       ...        0 min,  0.000 sec (  0.286%)

         :::::::::::::::::::::::::::::::::::::::::::::::::::::
         ::                     SUMMARY                     ::
         :::::::::::::::::::::::::::::::::::::::::::::::::::::
         :: total energy             -64.664775007166 Eh    ::
         :: total w/o Gsasa/hb       -64.665528925400 Eh    ::
         :: gradient norm              0.052911277191 Eh/a0 ::
         :: HOMO-LUMO gap              3.386186397341 eV    ::
         ::.................................................::
         :: SCC energy               -65.213743632856 Eh    ::
         :: -> isotropic ES            0.175059829000 Eh    ::
         :: -> anisotropic ES         -0.015357999580 Eh    ::
         :: -> anisotropic XC          0.018444019604 Eh    ::
         :: -> dispersion             -0.040404218674 Eh    ::
         :: -> Gsolv                  -0.032887036301 Eh    ::
         ::    -> Gelec               -0.033640954535 Eh    ::
         ::    -> Gsasa                0.005169186893 Eh    ::
         ::    -> Ghb                 -0.005496028358 Eh    ::
         ::    -> Gshift               0.001080759698 Eh    ::
         :: repulsion energy           0.548968625689 Eh    ::
         :: add. restraining           0.000000000000 Eh    ::
         :: total charge               0.000000000000 e     ::
         :::::::::::::::::::::::::::::::::::::::::::::::::::::

metadynamics with 1 initial structures loaded
           -------------------------------------------------
          |           Optimal kpush determination           |
           -------------------------------------------------
      ----------------------------------------------------------- 
     |                   =====================                   |
     |                        A N C O P T                        |
     |                   =====================                   |
     |               Approximate Normal Coordinate               |
     |                Rational Function Optimizer                |
      ----------------------------------------------------------- 
target rmsd / Å         0.100000
unbiased initial rmsd   0.213395
 
iter. min.        max.        rmsd       kpush
      ----------------------------------------------------------- 
     |                   =====================                   |
     |                        A N C O P T                        |
     |                   =====================                   |
     |               Approximate Normal Coordinate               |
     |                Rational Function Optimizer                |
      ----------------------------------------------------------- 
 1    0.000000    1.727273    0.013757   -0.863636
      ----------------------------------------------------------- 
     |                   =====================                   |
     |                        A N C O P T                        |
     |                   =====================                   |
     |               Approximate Normal Coordinate               |
     |                Rational Function Optimizer                |
      ----------------------------------------------------------- 
 2    0.000000    0.863636    0.019387   -0.431818
      ----------------------------------------------------------- 
     |                   =====================                   |
     |                        A N C O P T                        |
     |                   =====================                   |
     |               Approximate Normal Coordinate               |
     |                Rational Function Optimizer                |
      ----------------------------------------------------------- 
 3    0.000000    0.431818    0.028674   -0.215909
      ----------------------------------------------------------- 
     |                   =====================                   |
     |                        A N C O P T                        |
     |                   =====================                   |
     |               Approximate Normal Coordinate               |
     |                Rational Function Optimizer                |
      ----------------------------------------------------------- 
 4    0.000000    0.215909    0.044259   -0.107955
      ----------------------------------------------------------- 
     |                   =====================                   |
     |                        A N C O P T                        |
     |                   =====================                   |
     |               Approximate Normal Coordinate               |
     |                Rational Function Optimizer                |
      ----------------------------------------------------------- 
 5    0.000000    0.107955    0.067953   -0.053977
      ----------------------------------------------------------- 
     |                   =====================                   |
     |                        A N C O P T                        |
     |                   =====================                   |
     |               Approximate Normal Coordinate               |
     |                Rational Function Optimizer                |
      ----------------------------------------------------------- 
 6    0.000000    0.053977    0.097471   -0.026989
      ----------------------------------------------------------- 
     |                   =====================                   |
     |                        A N C O P T                        |
     |                   =====================                   |
     |               Approximate Normal Coordinate               |
     |                Rational Function Optimizer                |
      ----------------------------------------------------------- 
 7    0.000000    0.026989    0.127454   -0.013494
      ----------------------------------------------------------- 
     |                   =====================                   |
     |                        A N C O P T                        |
     |                   =====================                   |
     |               Approximate Normal Coordinate               |
     |                Rational Function Optimizer                |
      ----------------------------------------------------------- 
 8    0.013494    0.026989    0.110230   -0.020241
      ----------------------------------------------------------- 
     |                   =====================                   |
     |                        A N C O P T                        |
     |                   =====================                   |
     |               Approximate Normal Coordinate               |
     |                Rational Function Optimizer                |
      ----------------------------------------------------------- 
 9    0.020241    0.026989    0.103389   -0.023615
      ----------------------------------------------------------- 
     |                   =====================                   |
     |                        A N C O P T                        |
     |                   =====================                   |
     |               Approximate Normal Coordinate               |
     |                Rational Function Optimizer                |
      ----------------------------------------------------------- 
10    0.023615    0.026989    0.100415   -0.025302
final kpush: -0.025302
           -------------------------------------------------
          |            Biased Numerical Hessian             |
           -------------------------------------------------
kpush                :  -0.02530
alpha                :   1.00000
step length          :   0.00500
SCC accuracy         :   0.30000
Hessian scale factor :   1.00000
frozen atoms in %    :   0.00000    0
RMS gradient         :   0.00011
estimated CPU  time      0.15 min
estimated wall time      0.15 min

writing file <hessian>.

 projected vibrational frequencies (cm⁻¹)
eigval :       -0.00    -0.00    -0.00     0.00     0.00     0.00
eigval :       50.29    53.79    56.18    70.57    65.98    68.30
eigval :       76.77    79.22    77.31    96.62    95.08    91.36
eigval :      108.88   135.79   143.09   157.87   174.53   118.98
eigval :      177.53   122.24   211.45   211.17   245.43   266.46
eigval :      278.70   289.47   305.25   326.90   367.17   398.37
eigval :      407.58   429.12   451.51   458.80   592.49   624.88
eigval :      637.66   688.32   694.68   743.20   773.04   786.19
eigval :      804.84   829.16   869.16   895.59   908.41   948.37
eigval :      980.32   975.67  1022.68  1033.35  1051.12  1066.55
eigval :     1084.45  1093.67  1094.21  1093.74  1101.22  1106.11
eigval :     1113.28  1143.99  1146.75  1168.77  1190.54  1208.43
eigval :     1232.38  1248.47  1251.14  1270.63  1309.43  1310.75
eigval :     1366.25  1377.86  1391.38  1392.29  1418.70  1421.09
eigval :     1428.31  1428.90  1430.57  1435.05  1444.03  1464.76
eigval :     1465.46  1477.45  1479.24  1703.28  1715.26  2943.78
eigval :     2953.18  2955.02  2977.93  2981.95  2988.12  2992.97
eigval :     2995.89  3000.46  3008.74  3011.66  3025.76  3032.17
eigval :     3038.73  3043.47  3050.98  3054.08  3061.29  3064.21
           -------------------------------------------------
          |                Property Printout                |
           -------------------------------------------------

    * Orbital Energies and Occupations

         #    Occupation            Energy/Eh            Energy/eV
      -------------------------------------------------------------
         1        2.0000           -0.7770188             -21.1438
       ...           ...                  ...                  ...
        44        2.0000           -0.4763201             -12.9613
        45        2.0000           -0.4709028             -12.8139
        46        2.0000           -0.4673628             -12.7176
        47        2.0000           -0.4617759             -12.5656
        48        2.0000           -0.4577997             -12.4574
        49        2.0000           -0.4567055             -12.4276
        50        2.0000           -0.4555250             -12.3955
        51        2.0000           -0.4506346             -12.2624
        52        2.0000           -0.4462489             -12.1430
        53        2.0000           -0.4373093             -11.8998
        54        2.0000           -0.4114644             -11.1965
        55        2.0000           -0.3968444             -10.7987
        56        2.0000           -0.3945685             -10.7368 (HOMO)
        57                         -0.2689643              -7.3189 (LUMO)
        58                         -0.2644726              -7.1967
        59                         -0.2478507              -6.7444
        60                         -0.1985405              -5.4026
        61                         -0.1790935              -4.8734
        62                         -0.1627925              -4.4298
        63                         -0.1243403              -3.3835
        64                         -0.0523728              -1.4251
        65                         -0.0457695              -1.2455
        66                         -0.0328753              -0.8946
        67                         -0.0258231              -0.7027
       ...                                ...                  ...
       110                          1.2473279              33.9415
      -------------------------------------------------------------
                  HL-Gap            0.1256041 Eh            3.4179 eV
             Fermi-level           -0.3317664 Eh           -9.0278 eV

     #   Z          covCN         q      C6AA      α(0)
     1   6 C        3.751    -0.130    23.069     6.850
     2   6 C        3.695     0.070    19.576     6.330
     3   8 O        1.703    -0.260    18.314     5.778
     4   6 C        2.716     0.372    20.696     7.447
     5   8 O        0.856    -0.463    22.982     6.427
     6   6 C        3.856    -0.097    22.311     6.718
     7   6 C        3.859     0.017    20.257     6.401
     8   1 H        0.924     0.082     1.957     2.188
     9   6 C        2.744     0.371    20.717     7.453
    10   8 O        0.856    -0.469    23.108     6.445
    11   8 O        1.703    -0.245    18.063     5.738
    12   6 C        3.696     0.074    19.503     6.317
    13   6 C        3.750    -0.128    23.019     6.842
    14  16 S        1.968    -0.115   145.857    20.327
    15  15 P        3.870     0.378   144.531    21.596
    16  16 S        0.926    -0.487   160.804    21.448
    17   8 O        1.656    -0.256    18.266     5.770
    18   6 C        3.808     0.010    20.398     6.429
    19   8 O        1.654    -0.252    18.192     5.758
    20   6 C        3.833     0.004    20.485     6.439
    21   1 H        0.925     0.057     2.236     2.338
    22   1 H        0.925     0.077     2.013     2.219
    23   1 H        0.925     0.073     2.056     2.242
    24   1 H        0.924     0.059     2.208     2.324
    25   1 H        0.925     0.085     1.931     2.173
    26   1 H        0.925     0.103     1.759     2.074
    27   1 H        0.924     0.120     1.612     1.986
    28   1 H        0.924     0.059     2.208     2.324
    29   1 H        0.925     0.089     1.885     2.147
    30   1 H        0.925     0.053     2.278     2.360
    31   1 H        0.925     0.082     1.963     2.191
    32   1 H        0.925     0.078     1.997     2.210
    33   1 H        0.924     0.076     2.021     2.223
    34   1 H        0.925     0.115     1.656     2.013
    35   1 H        0.925     0.090     1.876     2.142
    36   1 H        0.925     0.098     1.804     2.101
    37   1 H        0.925     0.097     1.816     2.107
    38   1 H        0.925     0.115     1.653     2.010

 Mol. C6AA /au·bohr⁶  :      18239.327360
 Mol. C8AA /au·bohr⁸  :     514364.586562
 Mol. α(0) /au        :        207.884733


Wiberg/Mayer (AO) data.
largest (>0.10) Wiberg bond orders for each atom

 ---------------------------------------------------------------------------
     #   Z sym  total        # sym  WBO       # sym  WBO       # sym  WBO
 ---------------------------------------------------------------------------
     1   6 C    3.986 --     2 C    1.013    21 H    0.985    23 H    0.984
                            22 H    0.979
     2   6 C    3.901 --     1 C    1.013    24 H    0.971    25 H    0.969
                             3 O    0.909
     3   8 O    2.333 --     4 C    1.188     2 C    0.909     5 O    0.179
     4   6 C    3.915 --     5 O    1.710     3 O    1.188     6 C    0.956
     5   8 O    1.996 --     4 C    1.710     3 O    0.179
     6   6 C    3.977 --    26 H    0.969     7 C    0.964     4 C    0.956
                            27 H    0.949
     7   6 C    3.971 --     6 C    0.964    14 S    0.955     9 C    0.954
                             8 H    0.953
     8   1 H    0.993 --     7 C    0.953
     9   6 C    3.920 --    10 O    1.695    11 O    1.195     7 C    0.954
    10   8 O    1.998 --     9 C    1.695    11 O    0.176
    11   8 O    2.362 --     9 C    1.195    12 C    0.897    10 O    0.176
    12   6 C    3.891 --    13 C    1.013    28 H    0.971    29 H    0.968
                            11 O    0.897
    13   6 C    3.984 --    12 C    1.013    30 H    0.985    32 H    0.983
                            31 H    0.977
    14  16 S    2.263 --    15 P    0.979     7 C    0.955    16 S    0.131
    15  15 P    5.293 --    16 S    1.531    19 O    1.337    17 O    1.302
                            14 S    0.979
    16  16 S    1.839 --    15 P    1.531    14 S    0.131
    17   8 O    2.394 --    15 P    1.302    18 C    0.910
    18   6 C    3.881 --    33 H    0.977    35 H    0.976    34 H    0.971
                            17 O    0.910
    19   8 O    2.399 --    15 P    1.337    20 C    0.884
    20   6 C    3.866 --    37 H    0.977    38 H    0.971    36 H    0.971
                            19 O    0.884
    21   1 H    0.997 --     1 C    0.985
    22   1 H    0.994 --     1 C    0.979
    23   1 H    0.995 --     1 C    0.984
    24   1 H    0.996 --     2 C    0.971
    25   1 H    0.993 --     2 C    0.969
    26   1 H    0.989 --     6 C    0.969
    27   1 H    0.985 --     6 C    0.949
    28   1 H    0.996 --    12 C    0.971
    29   1 H    0.992 --    12 C    0.968
    30   1 H    0.997 --    13 C    0.985
    31   1 H    0.993 --    13 C    0.977
    32   1 H    0.994 --    13 C    0.983
    33   1 H    0.994 --    18 C    0.977
    34   1 H    0.987 --    18 C    0.971
    35   1 H    0.992 --    18 C    0.976
    36   1 H    0.990 --    20 C    0.971
    37   1 H    0.991 --    20 C    0.977
    38   1 H    0.987 --    20 C    0.971
 ---------------------------------------------------------------------------

Topologies differ in total number of bonds
Writing topology from bond orders to xtbtopo.mol

molecular dipole:
                 x           y           z       tot (Debye)
 q only:       -0.519      -2.882       2.987
   full:       -0.544      -2.390       2.943       9.735
molecular quadrupole (traceless):
                xx          xy          yy          xz          yz          zz
 q only:       25.822       5.827     -23.166       7.639       9.565      -2.656
  q+dip:       24.327       3.238     -21.500       7.718      10.667      -2.827
   full:       24.893       2.718     -21.130       7.571      10.812      -3.763

           -------------------------------------------------
          |                Geometry Summary                 |
           -------------------------------------------------

      molecular mass/u    :      330.3579996
   center of mass at/Å    :       -0.0241126       0.0156624      -0.0146969
  moments of inertia/u·Å² :        0.9784668E+03   0.2899035E+04   0.3264826E+04
rotational constants/cm⁻¹ :        0.1722862E-01   0.5814911E-02   0.5163409E-02

 * 34 selected distances

     #   Z          #   Z                                           value/Å
     1   6 C        2   6 C                                       1.5203763
     2   6 C        3   8 O                                       1.4413005
     3   8 O        4   6 C                                       1.3194729
     4   6 C        5   8 O                                       1.2093020
     6   6 C        7   6 C                                       1.5328241
     7   6 C        8   1 H                                       1.0941311
     9   6 C       10   8 O                                       1.2104742
     9   6 C       11   8 O                                       1.3149083
    11   8 O       12   6 C                                       1.4445901
    12   6 C       13   6 C                                       1.5202316
    14  16 S       15  15 P                                       2.1195380 (max)
    15  15 P       16  16 S                                       1.9592139
    15  15 P       17   8 O                                       1.6001513
    17   8 O       18   6 C                                       1.4328556
    15  15 P       19   8 O                                       1.5777010
    19   8 O       20   6 C                                       1.4438782
     1   6 C       21   1 H                                       1.0874442
     1   6 C       22   1 H                                       1.0849923 (min)
     1   6 C       23   1 H                                       1.0864268
     2   6 C       24   1 H                                       1.0938141
     2   6 C       25   1 H                                       1.0901446
     6   6 C       26   1 H                                       1.0895932
     6   6 C       27   1 H                                       1.0903775
    12   6 C       28   1 H                                       1.0938116
    12   6 C       29   1 H                                       1.0897783
    13   6 C       30   1 H                                       1.0880259
    13   6 C       31   1 H                                       1.0853885
    13   6 C       32   1 H                                       1.0861683
    18   6 C       33   1 H                                       1.0907617
    18   6 C       34   1 H                                       1.0875277
    18   6 C       35   1 H                                       1.0898296
    20   6 C       36   1 H                                       1.0899421
    20   6 C       37   1 H                                       1.0879034
    20   6 C       38   1 H                                       1.0865557

 * 5 distinct bonds (by element types)

   Z      Z             #   av. dist./Å        max./Å        min./Å
   1 H    6 C          19     1.0890851     1.0941311     1.0849923
   6 C    6 C           3     1.5244773     1.5328241     1.5202316
   6 C    8 O           8     1.3520977     1.4445901     1.2093020
   8 O   15 P           2     1.5889262     1.6001513     1.5777010
  15 P   16 S           2     2.0393759     2.1195380     1.9592139

           -------------------------------------------------
          |               Frequency Printout                |
           -------------------------------------------------
 projected vibrational frequencies (cm⁻¹)
eigval :       -0.00    -0.00    -0.00     0.00     0.00     0.00
eigval :       50.29    53.79    56.18    70.57    65.98    68.30
eigval :       76.77    79.22    77.31    96.62    95.08    91.36
eigval :      108.88   135.79   143.09   157.87   174.53   118.98
eigval :      177.53   122.24   211.45   211.17   245.43   266.46
eigval :      278.70   289.47   305.25   326.90   367.17   398.37
eigval :      407.58   429.12   451.51   458.80   592.49   624.88
eigval :      637.66   688.32   694.68   743.20   773.04   786.19
eigval :      804.84   829.16   869.16   895.59   908.41   948.37
eigval :      980.32   975.67  1022.68  1033.35  1051.12  1066.55
eigval :     1084.45  1093.67  1094.21  1093.74  1101.22  1106.11
eigval :     1113.28  1143.99  1146.75  1168.77  1190.54  1208.43
eigval :     1232.38  1248.47  1251.14  1270.63  1309.43  1310.75
eigval :     1366.25  1377.86  1391.38  1392.29  1418.70  1421.09
eigval :     1428.31  1428.90  1430.57  1435.05  1444.03  1464.76
eigval :     1465.46  1477.45  1479.24  1703.28  1715.26  2943.78
eigval :     2953.18  2955.02  2977.93  2981.95  2988.12  2992.97
eigval :     2995.89  3000.46  3008.74  3011.66  3025.76  3032.17
eigval :     3038.73  3043.47  3050.98  3054.08  3061.29  3064.21
 reduced masses (amu)
   1: 18.45   2: 14.67   3: 20.82   4: 13.48   5: 16.95   6: 15.75   7: 20.10   8: 19.94
   9: 16.66  10: 17.22  11: 13.74  12: 14.34  13: 13.13  14: 12.16  15: 10.80  16: 11.78
  17: 11.91  18:  9.96  19: 12.48  20: 15.37  21: 15.88  22: 18.90  23: 17.75  24:  4.19
  25: 13.54  26:  2.33  27:  8.58  28:  7.20  29: 11.89  30: 13.15  31: 10.71  32: 11.62
  33: 10.98  34: 18.06  35: 10.41  36: 18.97  37: 18.87  38: 15.01  39: 27.92  40: 11.11
  41: 10.75  42: 12.26  43: 24.27  44: 12.13  45: 12.50  46: 22.54  47: 22.58  48: 10.00
  49:  4.69  50:  6.29  51:  8.42  52: 10.58  53:  9.73  54: 10.35  55: 14.23  56:  8.06
  57: 14.13  58:  8.38  59:  9.70  60: 10.33  61:  5.39  62:  7.40  63:  7.02  64:  3.47
  65:  4.14  66:  3.57  67:  4.19  68:  6.94  69:  6.13  70:  6.17  71:  8.16  72:  7.51
  73:  4.59  74:  3.54  75:  3.86  76:  4.93  77:  3.34  78:  3.47  79:  2.33  80:  2.33
  81:  3.05  82:  3.02  83:  1.63  84:  1.95  85:  1.94  86:  1.94  87:  1.52  88:  1.57
  89:  1.57  90:  1.50  91:  1.50  92:  1.56  93:  1.55  94: 13.39  95: 13.35  96:  1.77
  97:  1.72  98:  1.72  99:  1.65 100:  1.61 101:  1.71 102:  1.74 103:  1.62 104:  1.74
 105:  1.70 106:  1.88 107:  1.81 108:  1.87 109:  1.77 110:  1.80 111:  1.63 112:  1.65
 113:  1.75 114:  1.74
 IR intensities (km·mol⁻¹)
   1:  1.06   2:  0.77   3:  0.49   4:  0.23   5:  0.44   6:  2.40   7:  1.21   8:  5.76
   9:  1.92  10:  2.77  11:  3.37  12:  0.89  13:  1.60  14:  5.86  15:  3.04  16:  0.74
  17: 10.35  18:  2.80  19:  5.22  20:  2.46  21:  5.27  22:  8.47  23:  2.61  24:  0.25
  25:  2.12  26:  0.65  27:  5.74  28: 10.64  29:  6.02  30: 31.38  31: 24.17  32:  4.27
  33: 16.71  34: 30.35  35: 15.72  36: 19.08  37:  1.99  38:  6.19  39:119.06  40:  9.48
  41: 13.73  42: 28.02  43:211.82  44: 17.65  45: 47.99  46:306.49  47:236.53  48: 27.13
  49: 21.51  50: 10.32  51: 13.05  52: 10.82  53: 11.59  54:  3.44  55:327.52  56: 22.09
  57:178.14  58: 37.26  59: 54.95  60: 12.96  61:120.33  62: 19.60  63: 59.75  64:  0.58
  65:  7.47  66:  1.29  67:  8.05  68: 49.45  69: 55.39  70: 75.48  71:213.56  72:317.07
  73: 45.85  74:  7.35  75: 87.29  76:156.52  77:  9.66  78: 12.65  79: 20.25  80: 19.71
  81: 10.23  82:  6.84  83: 12.65  84:  8.99  85:  3.73  86:  2.28  87: 13.13  88: 13.18
  89:  8.12  90: 12.23  91:  5.49  92:  3.12  93:  2.32  94:444.73  95:749.58  96:  4.14
  97: 25.09  98: 22.84  99: 12.32 100:  7.21 101:  8.60 102: 12.77 103:  1.29 104:  6.27
 105:  4.31 106:  2.15 107:  0.91 108:  0.39 109: 29.08 110: 32.73 111: 22.03 112: 17.45
 113: 13.33 114: 17.86
 Raman intensities (Ä⁴*amu⁻¹)
   1:  0.00   2:  0.00   3:  0.00   4:  0.00   5:  0.00   6:  0.00   7:  0.00   8:  0.00
   9:  0.00  10:  0.00  11:  0.00  12:  0.00  13:  0.00  14:  0.00  15:  0.00  16:  0.00
  17:  0.00  18:  0.00  19:  0.00  20:  0.00  21:  0.00  22:  0.00  23:  0.00  24:  0.00
  25:  0.00  26:  0.00  27:  0.00  28:  0.00  29:  0.00  30:  0.00  31:  0.00  32:  0.00
  33:  0.00  34:  0.00  35:  0.00  36:  0.00  37:  0.00  38:  0.00  39:  0.00  40:  0.00
  41:  0.00  42:  0.00  43:  0.00  44:  0.00  45:  0.00  46:  0.00  47:  0.00  48:  0.00
  49:  0.00  50:  0.00  51:  0.00  52:  0.00  53:  0.00  54:  0.00  55:  0.00  56:  0.00
  57:  0.00  58:  0.00  59:  0.00  60:  0.00  61:  0.00  62:  0.00  63:  0.00  64:  0.00
  65:  0.00  66:  0.00  67:  0.00  68:  0.00  69:  0.00  70:  0.00  71:  0.00  72:  0.00
  73:  0.00  74:  0.00  75:  0.00  76:  0.00  77:  0.00  78:  0.00  79:  0.00  80:  0.00
  81:  0.00  82:  0.00  83:  0.00  84:  0.00  85:  0.00  86:  0.00  87:  0.00  88:  0.00
  89:  0.00  90:  0.00  91:  0.00  92:  0.00  93:  0.00  94:  0.00  95:  0.00  96:  0.00
  97:  0.00  98:  0.00  99:  0.00 100:  0.00 101:  0.00 102:  0.00 103:  0.00 104:  0.00
 105:  0.00 106:  0.00 107:  0.00 108:  0.00 109:  0.00 110:  0.00 111:  0.00 112:  0.00
 113:  0.00 114:  0.00
 output can be read by thermo (or use thermo option).
 writing <g98.out> molden fake output.
 recommended (thermochemical) frequency scaling factor: 1.0
           -------------------------------------------------
          |             Thermodynamic Functions             |
           -------------------------------------------------

Molecule has no symmetry elements
It seems to be the C1 point group
c1  symmetry found (for desy threshold:  0.10E+00) used in thermo

          ...................................................
          :                      SETUP                      :
          :.................................................:
          :  # frequencies                         108      :
          :  # imaginary freq.                       0      :
          :  linear?                             false      :
          :  only rotor calc.                    false      :
          :  symmetry                               c1      :
          :  rotational number                       1      :
          :  scaling factor                  1.0000000      :
          :  rotor cutoff                    0.0000000 cm⁻¹ :
          :  imag. cutoff                 -100.0000000 cm⁻¹ :
          :.................................................:

    mode    ω/cm⁻¹     T·S(HO)/kcal·mol⁻¹    T·S(FR)/kcal·mol⁻¹   T·S(vib)
   ------------------------------------------------------------------------
       1     50.29    -1.43288 (100.00%)    -1.05479 (  0.00%)    -1.43288
       2     53.79    -1.39327 (100.00%)    -1.03488 (  0.00%)    -1.39327
       3     56.18    -1.36759 (100.00%)    -1.02197 (  0.00%)    -1.36759
       4     70.57    -1.23355 (100.00%)    -0.95444 (  0.00%)    -1.23355
       5     65.98    -1.27309 (100.00%)    -0.97438 (  0.00%)    -1.27309
       6     68.30    -1.25276 (100.00%)    -0.96413 (  0.00%)    -1.25276
       7     76.77    -1.18420 (100.00%)    -0.92950 (  0.00%)    -1.18420
       8     79.22    -1.16576 (100.00%)    -0.92017 (  0.00%)    -1.16576
       9     77.31    -1.18011 (100.00%)    -0.92743 (  0.00%)    -1.18011
      10     96.62    -1.04992 (100.00%)    -0.86139 (  0.00%)    -1.04992
      11     95.08    -1.05926 (100.00%)    -0.86614 (  0.00%)    -1.05926
      12     91.36    -1.08252 (100.00%)    -0.87797 (  0.00%)    -1.08252
      13    108.88    -0.98053 (100.00%)    -0.82598 (  0.00%)    -0.98053
      14    135.79    -0.85340 (100.00%)    -0.76056 (  0.00%)    -0.85340
      15    143.09    -0.82353 (100.00%)    -0.74505 (  0.00%)    -0.82353
      16    157.87    -0.76777 (100.00%)    -0.71593 (  0.00%)    -0.76777
      17    174.53    -0.71143 (100.00%)    -0.68622 (  0.00%)    -0.71143
      18    118.98    -0.92929 (100.00%)    -0.79971 (  0.00%)    -0.92929
      19    177.53    -0.70192 (100.00%)    -0.68117 (  0.00%)    -0.70192
      20    122.24    -0.91372 (100.00%)    -0.79170 (  0.00%)    -0.91372
      21    211.45    -0.60558 (100.00%)    -0.62937 (  0.00%)    -0.60558
      22    211.17    -0.60629 (100.00%)    -0.62976 (  0.00%)    -0.60629
      23    245.43    -0.52568 (100.00%)    -0.58522 (  0.00%)    -0.52568
      24    266.46    -0.48273 (100.00%)    -0.56087 (  0.00%)    -0.48273
      25    278.70    -0.45963 (100.00%)    -0.54756 (  0.00%)    -0.45963
      26    289.47    -0.44038 (100.00%)    -0.53633 (  0.00%)    -0.44038
   ------------------------------------------------------------------------

   temp. (K)  partition function   enthalpy   heat capacity  entropy
                                   cal/mol     cal/K/mol   cal/K/mol   J/K/mol
 298.15  VIB  0.444E+11            13902.374     79.029     95.350
         ROT  0.735E+07              888.752      2.981     34.400
         INT  0.327E+18            14791.127     82.010    129.750
         TR   0.581E+28             1481.254      4.968     43.260
         TOT                       16272.3804    86.9778   173.0109   723.8777

       T/K    H(0)-H(T)+PV         H(T)/Eh          T*S/Eh         G(T)/Eh
   ------------------------------------------------------------------------
    298.15    0.259317E-01    0.314762E+00    0.822031E-01    0.232559E+00
   ------------------------------------------------------------------------

         :::::::::::::::::::::::::::::::::::::::::::::::::::::
         ::                  THERMODYNAMIC                  ::
         :::::::::::::::::::::::::::::::::::::::::::::::::::::
         :: total free energy         -64.462967452710 Eh   ::
         ::.................................................::
         :: total energy              -64.695526069071 Eh   ::
         :: zero point energy           0.288829999303 Eh   ::
         :: G(RRHO) w/o ZPVE           -0.056271382942 Eh   ::
         :: G(RRHO) contrib.            0.232558616361 Eh   ::
         :::::::::::::::::::::::::::::::::::::::::::::::::::::

optimized geometry written to: xtbopt.coord


           -------------------------------------------------
          | TOTAL ENERGY              -64.695526069071 Eh   |
          | TOTAL ENTHALPY            -64.380764380912 Eh   |
          | TOTAL FREE ENERGY         -64.462967452710 Eh   |
          | GRADIENT NORM               0.000112810562 Eh/α |
          | HOMO-LUMO GAP               3.417862429141 eV   |
           -------------------------------------------------

------------------------------------------------------------------------
 * finished run on 2025/04/09 at 09:47:23.322     
------------------------------------------------------------------------
 total:
 * wall-time:     0 d,  0 h,  0 min, 19.789 sec
 *  cpu-time:     0 d,  0 h,  0 min, 19.684 sec
 * ratio c/w:     0.995 speedup
 SCF:
 * wall-time:     0 d,  0 h,  0 min,  0.119 sec
 *  cpu-time:     0 d,  0 h,  0 min,  0.092 sec
 * ratio c/w:     0.772 speedup
 analytical hessian:
 * wall-time:     0 d,  0 h,  0 min,  8.887 sec
 *  cpu-time:     0 d,  0 h,  0 min,  8.882 sec
 * ratio c/w:     1.000 speedup

