 Entering Gaussian System
 *********************************************
 Gaussian 98:
 frequency output generated by the xtb code
 *********************************************
                         Standard orientation:
 --------------------------------------------------------------------
  Center     Atomic     Atomic              Coordinates (Angstroms)
  Number     Number      Type              X           Y           Z
 --------------------------------------------------------------------
    1          6             0       -2.587707    0.586532    0.000032
    2          6             0       -1.225462   -0.045170    0.000717
    3          6             0       -1.149334   -1.435143    0.000883
    4          6             0        0.070678   -2.079127    0.000521
    5          6             0        1.238465   -1.338030    0.000241
    6          6             0        1.177515    0.048292    0.000047
    7          6             0       -0.056192    0.712256    0.000004
    8          6             0       -0.077003    2.214573   -0.000945
    9          8             0        2.319394    0.800829   -0.000228
   10          1             0       -3.149757    0.251303    0.870255
   11          1             0       -2.538303    1.668809    0.015884
   12          1             0       -3.136735    0.276827   -0.887911
   13          1             0       -2.062988   -2.011116    0.001233
   14          1             0        0.119250   -3.157632    0.000555
   15          1             0        2.198282   -1.835133    0.000141
   16          1             0       -0.589981    2.591718   -0.884037
   17          1             0       -0.585750    2.592957    0.884122
   18          1             0        0.940278    2.594633   -0.003444
   19          1             0        3.095624    0.222413   -0.000171
 --------------------------------------------------------------------
     1 basis functions        1 primitive gaussians
     1 alpha electrons        1 beta electrons
 
 Harmonic frequencies (cm**-1), IR intensities (km*mol⁻¹),
 Raman scattering activities (A**4/amu), Raman depolarization ratios,
 reduced masses (AMU), force constants (mDyne/A) and normal coordinates:
                      1                      2                      3
                        a                      a                      a 
 Frequencies --    28.1482               119.6471               167.5433
 Red. masses --     1.1984                 9.9814                 3.6086
 Frc consts  --     0.0000                 0.0000                 0.0000
 IR Inten    --     0.5801                 0.0196                 1.3546
 Raman Activ --     0.0000                 0.0000                 0.0000
 Depolar     --     0.0000                 0.0000                 0.0000
 Atom AN      X      Y      Z        X      Y      Z        X      Y      Z
   1   6     0.00   0.00  -0.01     0.00   0.00   0.39    -0.00  -0.00  -0.00
   2   6    -0.00  -0.00   0.07     0.00  -0.00   0.01     0.00   0.00   0.17
   3   6     0.00  -0.00   0.07     0.00  -0.00  -0.09     0.00   0.00   0.23
   4   6     0.00  -0.00   0.02    -0.00  -0.00  -0.24    -0.00   0.00  -0.11
   5   6     0.00  -0.00  -0.00     0.00  -0.00  -0.06    -0.00   0.00  -0.27
   6   6     0.00  -0.00  -0.00     0.00  -0.00   0.07     0.00   0.00  -0.02
   7   6    -0.00  -0.00  -0.01     0.00  -0.00  -0.12     0.00   0.00   0.07
   8   6    -0.00  -0.00  -0.08    -0.00  -0.00  -0.50    -0.00   0.00  -0.16
   9   8    -0.00   0.00  -0.02    -0.00   0.00   0.49     0.00  -0.00   0.16
  10   1    -0.22  -0.43  -0.31     0.08  -0.00   0.16    -0.05  -0.02  -0.04
  11   1    -0.00  -0.01   0.54     0.00   0.00   0.12    -0.00  -0.00   0.01
  12   1     0.23   0.44  -0.30    -0.08   0.01   0.16     0.05   0.02  -0.04
  13   1     0.00  -0.00   0.03    -0.00  -0.00  -0.02     0.00   0.00   0.11
  14   1     0.00  -0.00   0.00    -0.00  -0.00  -0.11    -0.00   0.00  -0.07
  15   1     0.00  -0.00  -0.01     0.00  -0.00  -0.01    -0.00  -0.00  -0.15
  16   1    -0.07  -0.02   0.01    -0.13  -0.07  -0.10     0.42  -0.05  -0.31
  17   1     0.07   0.01   0.01     0.13   0.07  -0.10    -0.42   0.05  -0.31
  18   1    -0.00   0.00  -0.11    -0.00  -0.00  -0.31     0.00   0.00   0.41
  19   1    -0.00   0.00  -0.00     0.00   0.00   0.13     0.00  -0.00   0.03
                      4                      5                      6
                        a                      a                      a 
 Frequencies --   208.6704               274.8028               314.6664
 Red. masses --     8.0707                 9.3518                10.9855
 Frc consts  --     0.0000                 0.0000                 0.0000
 IR Inten    --     2.7012                 7.3129                10.4861
 Raman Activ --     0.0000                 0.0000                 0.0000
 Depolar     --     0.0000                 0.0000                 0.0000
 Atom AN      X      Y      Z        X      Y      Z        X      Y      Z
   1   6    -0.00   0.00   0.31    -0.00   0.00   0.16     0.19   0.40  -0.00
   2   6    -0.00  -0.00  -0.13    -0.00  -0.00  -0.35    -0.07  -0.15   0.00
   3   6    -0.00  -0.00  -0.46     0.00  -0.00   0.09    -0.02  -0.16  -0.00
   4   6     0.00  -0.00   0.00     0.00  -0.00   0.26     0.06  -0.07  -0.00
   5   6     0.00   0.00   0.46     0.00  -0.00  -0.11     0.10  -0.08  -0.00
   6   6     0.00   0.00   0.08    -0.00  -0.00  -0.35    -0.03  -0.10   0.00
   7   6    -0.00   0.00  -0.02    -0.00  -0.00  -0.53    -0.06  -0.23   0.00
   8   6    -0.00  -0.00  -0.04     0.00  -0.00   0.18     0.16  -0.24   0.00
   9   8     0.00  -0.00  -0.27    -0.00   0.00   0.25    -0.41   0.43  -0.00
  10   1     0.05  -0.09   0.09     0.08  -0.07   0.07     0.01   0.20   0.00
  11   1     0.00  -0.00   0.20     0.00  -0.00   0.13     0.21   0.11  -0.00
  12   1    -0.06   0.09   0.09    -0.08   0.08   0.07     0.01   0.20   0.00
  13   1    -0.00  -0.00  -0.24     0.00  -0.00   0.14     0.01  -0.07  -0.00
  14   1     0.00  -0.00   0.01     0.00  -0.00   0.22     0.02  -0.02  -0.00
  15   1     0.00   0.00   0.25     0.00   0.00   0.04     0.03  -0.02  -0.00
  16   1     0.22  -0.01  -0.14     0.07   0.15   0.08     0.07  -0.04  -0.00
  17   1    -0.22   0.01  -0.14    -0.06  -0.15   0.08     0.07  -0.04   0.00
  18   1     0.00   0.00   0.23     0.00   0.00   0.19     0.06  -0.12   0.00
  19   1     0.00  -0.00   0.01    -0.00   0.00   0.21    -0.02   0.22  -0.00
                      7                      8                      9
                        a                      a                      a 
 Frequencies --   327.2433               388.3536               458.8395
 Red. masses --     9.0629                 2.5375                10.6390
 Frc consts  --     0.0000                 0.0000                 0.0000
 IR Inten    --     1.5730               187.0714                 0.2492
 Raman Activ --     0.0000                 0.0000                 0.0000
 Depolar     --     0.0000                 0.0000                 0.0000
 Atom AN      X      Y      Z        X      Y      Z        X      Y      Z
   1   6     0.27   0.34  -0.00    -0.00   0.00   0.02     0.22   0.09  -0.00
   2   6     0.08  -0.05  -0.00    -0.00  -0.00  -0.13     0.06  -0.15  -0.00
   3   6    -0.02  -0.04  -0.00     0.00   0.00  -0.05     0.22  -0.20  -0.00
   4   6     0.00  -0.01   0.00     0.00   0.00   0.12     0.21  -0.25   0.00
   5   6     0.00  -0.01  -0.00     0.00   0.00  -0.02    -0.07   0.10  -0.00
   6   6     0.11   0.01  -0.00    -0.00   0.00   0.00    -0.35   0.08   0.00
   7   6     0.07  -0.06  -0.00    -0.00   0.00  -0.02    -0.21   0.26   0.00
   8   6    -0.64  -0.08   0.00    -0.00  -0.00  -0.01     0.02   0.35  -0.00
   9   8     0.23  -0.13   0.00     0.00  -0.00   0.27    -0.21  -0.34   0.00
  10   1     0.05   0.15   0.00     0.03  -0.03   0.02     0.03   0.09   0.00
  11   1     0.15   0.09  -0.00     0.00  -0.00   0.04     0.19   0.02  -0.00
  12   1     0.05   0.14   0.00    -0.03   0.03   0.02     0.03   0.09  -0.00
  13   1    -0.01  -0.01   0.00     0.00  -0.00  -0.01     0.06  -0.05  -0.00
  14   1     0.01  -0.00   0.00     0.00   0.00   0.08     0.10  -0.07   0.00
  15   1    -0.00  -0.01  -0.00     0.00   0.00  -0.01     0.04   0.14  -0.00
  16   1    -0.24  -0.10  -0.00     0.02  -0.00  -0.02     0.04   0.14  -0.00
  17   1    -0.24  -0.10   0.00    -0.02   0.00  -0.02     0.04   0.15   0.00
  18   1    -0.24   0.13   0.00     0.00   0.00   0.03     0.04   0.01  -0.00
  19   1     0.04  -0.06   0.00    -0.00  -0.00  -0.94    -0.11  -0.16   0.00
                     10                     11                     12
                        a                      a                      a 
 Frequencies --   473.2841               476.4771               513.5426
 Red. masses --     9.3340                10.6645                11.6015
 Frc consts  --     0.0000                 0.0000                 0.0000
 IR Inten    --     3.3068                 7.4732                 2.9014
 Raman Activ --     0.0000                 0.0000                 0.0000
 Depolar     --     0.0000                 0.0000                 0.0000
 Atom AN      X      Y      Z        X      Y      Z        X      Y      Z
   1   6    -0.02   0.01   0.03     0.35  -0.22   0.00     0.24  -0.13   0.00
   2   6    -0.02  -0.00  -0.26     0.37   0.09  -0.01     0.07  -0.30   0.00
   3   6     0.00  -0.00  -0.28    -0.03   0.09  -0.02    -0.35  -0.32  -0.00
   4   6     0.01   0.01   0.46    -0.24  -0.23   0.03    -0.22   0.00   0.00
   5   6     0.01   0.01  -0.39    -0.20  -0.23  -0.02    -0.36   0.30  -0.00
   6   6    -0.00   0.01  -0.01     0.02  -0.16  -0.00     0.08   0.31  -0.00
   7   6    -0.01  -0.01   0.49     0.22   0.17   0.03    -0.05  -0.02   0.00
   8   6     0.00  -0.01  -0.04    -0.07   0.21  -0.00     0.11  -0.02  -0.00
   9   8     0.02  -0.01   0.00    -0.32   0.23   0.00     0.32   0.18   0.00
  10   1     0.06  -0.04   0.04     0.13  -0.12   0.00     0.05  -0.00   0.00
  11   1     0.00   0.00   0.07    -0.00  -0.06   0.00     0.13  -0.04  -0.00
  12   1    -0.08   0.05   0.04     0.12  -0.11   0.00     0.05  -0.00  -0.00
  13   1     0.00  -0.01  -0.12    -0.07   0.13  -0.01    -0.11  -0.07  -0.00
  14   1     0.01   0.00   0.28    -0.11  -0.07   0.02     0.06   0.01   0.00
  15   1     0.00   0.00  -0.21    -0.07  -0.09  -0.01    -0.12   0.05   0.00
  16   1    -0.01  -0.15  -0.07    -0.06  -0.00  -0.00     0.07   0.04  -0.00
  17   1     0.01   0.15  -0.07    -0.06   0.02  -0.00     0.07   0.04   0.00
  18   1     0.00  -0.01  -0.09    -0.06   0.15  -0.01     0.06  -0.09   0.00
  19   1    -0.00  -0.01   0.15     0.01   0.17   0.01     0.04  -0.01  -0.00
                     13                     14                     15
                        a                      a                      a 
 Frequencies --   539.4595               661.9412               700.0099
 Red. masses --    10.5115                10.7836                11.1039
 Frc consts  --     0.0000                 0.0000                 0.0000
 IR Inten    --     6.0225                 3.0070                 4.1681
 Raman Activ --     0.0000                 0.0000                 0.0000
 Depolar     --     0.0000                 0.0000                 0.0000
 Atom AN      X      Y      Z        X      Y      Z        X      Y      Z
   1   6    -0.00   0.00   0.00    -0.00   0.00  -0.04     0.37  -0.16   0.00
   2   6    -0.00   0.00   0.57    -0.00  -0.00  -0.34     0.14   0.06  -0.00
   3   6     0.00   0.00  -0.31     0.00  -0.00   0.27    -0.04   0.21   0.00
   4   6     0.00   0.00   0.16    -0.00  -0.00  -0.30     0.00   0.46  -0.00
   5   6     0.00   0.00   0.03    -0.00  -0.00   0.29     0.02   0.26   0.00
   6   6    -0.00  -0.00  -0.60     0.00  -0.00  -0.55    -0.17   0.06  -0.00
   7   6    -0.00  -0.00   0.00     0.00   0.00   0.46    -0.02  -0.09   0.00
   8   6     0.00  -0.00  -0.01    -0.00   0.00   0.05     0.01  -0.37   0.00
   9   8    -0.00  -0.00   0.20     0.00   0.00   0.08    -0.32  -0.26   0.00
  10   1    -0.15   0.08  -0.07     0.07  -0.03   0.02     0.13  -0.09  -0.00
  11   1    -0.00   0.00  -0.10     0.00  -0.00   0.03     0.03  -0.04   0.00
  12   1     0.15  -0.08  -0.07    -0.07   0.04   0.02     0.13  -0.09   0.00
  13   1     0.00  -0.00  -0.20     0.00  -0.00   0.14    -0.00   0.05   0.00
  14   1     0.00   0.00   0.11    -0.00  -0.00   0.00     0.01   0.13   0.00
  15   1     0.00   0.00   0.14    -0.00  -0.00   0.18     0.01   0.08   0.00
  16   1    -0.01  -0.01  -0.01    -0.01  -0.14  -0.04     0.00  -0.10  -0.00
  17   1     0.01   0.01  -0.01     0.01   0.14  -0.04     0.00  -0.10   0.00
  18   1     0.00  -0.00  -0.02    -0.00  -0.00  -0.06     0.01  -0.11  -0.00
  19   1    -0.00  -0.00   0.00     0.00   0.00   0.00    -0.12  -0.13   0.00
                     16                     17                     18
                        a                      a                      a 
 Frequencies --   789.3942               806.3832               871.2953
 Red. masses --     3.1888                10.7006                 3.6608
 Frc consts  --     0.0000                 0.0000                 0.0000
 IR Inten    --    24.4907                 7.9019                 0.2025
 Raman Activ --     0.0000                 0.0000                 0.0000
 Depolar     --     0.0000                 0.0000                 0.0000
 Atom AN      X      Y      Z        X      Y      Z        X      Y      Z
   1   6    -0.00  -0.00  -0.02    -0.08   0.09  -0.00    -0.00  -0.00  -0.03
   2   6     0.00   0.00  -0.07     0.06   0.18   0.00     0.00  -0.00  -0.05
   3   6     0.00   0.00   0.18     0.38   0.20  -0.00    -0.00  -0.00   0.33
   4   6     0.00  -0.00   0.23     0.03  -0.47  -0.00    -0.00   0.00   0.09
   5   6    -0.00   0.00   0.26    -0.40   0.18  -0.00     0.00   0.00  -0.35
   6   6    -0.00   0.00  -0.19    -0.09   0.18   0.00     0.00  -0.00   0.04
   7   6     0.00   0.00  -0.02     0.01   0.01   0.00     0.00  -0.00   0.00
   8   6     0.00  -0.00  -0.02     0.03  -0.42   0.00     0.00   0.00   0.00
   9   8    -0.00  -0.00   0.05     0.09   0.09  -0.00    -0.00  -0.00  -0.01
  10   1     0.06  -0.03   0.02    -0.00  -0.01  -0.00     0.05  -0.02   0.02
  11   1     0.00  -0.00   0.03    -0.10   0.03   0.00     0.00  -0.00   0.02
  12   1    -0.06   0.03   0.02    -0.00  -0.01   0.00    -0.05   0.02   0.02
  13   1    -0.00   0.00  -0.47     0.04   0.15   0.00    -0.00   0.00  -0.58
  14   1    -0.00  -0.00  -0.49     0.01  -0.12   0.00     0.00   0.00  -0.19
  15   1    -0.00   0.00  -0.57    -0.05   0.16   0.00     0.00   0.00   0.62
  16   1    -0.00   0.05   0.02    -0.01  -0.13   0.00    -0.00  -0.00  -0.00
  17   1     0.00  -0.05   0.02    -0.01  -0.13  -0.00     0.00   0.00  -0.00
  18   1    -0.00  -0.00   0.02     0.00  -0.10   0.00    -0.00   0.00  -0.00
  19   1    -0.00  -0.00   0.01    -0.02  -0.04   0.00    -0.00  -0.00  -0.01
                     19                     20                     21
                        a                      a                      a 
 Frequencies --   913.5320               926.9359              1002.9839
 Red. masses --     3.1129                 8.1830                 4.0412
 Frc consts  --     0.0000                 0.0000                 0.0000
 IR Inten    --     0.0023                43.5683                 4.7420
 Raman Activ --     0.0000                 0.0000                 0.0000
 Depolar     --     0.0000                 0.0000                 0.0000
 Atom AN      X      Y      Z        X      Y      Z        X      Y      Z
   1   6     0.00  -0.00  -0.01     0.24  -0.19   0.00    -0.12  -0.36  -0.00
   2   6    -0.00   0.00  -0.03    -0.15   0.03  -0.00    -0.07  -0.11   0.00
   3   6     0.00   0.00  -0.23     0.15   0.28   0.00     0.13   0.19  -0.00
   4   6    -0.00   0.00   0.35    -0.09  -0.01  -0.00    -0.02   0.09  -0.00
   5   6    -0.00  -0.00  -0.10     0.11  -0.22   0.00    -0.13   0.01  -0.00
   6   6    -0.00  -0.00  -0.06    -0.12  -0.04   0.00     0.01   0.03  -0.00
   7   6    -0.00   0.00   0.05    -0.37  -0.00   0.00     0.12  -0.02   0.00
   8   6    -0.00  -0.00   0.03    -0.23  -0.04   0.00     0.14   0.01  -0.00
   9   8     0.00   0.00   0.00     0.29   0.17  -0.00    -0.03  -0.00   0.00
  10   1     0.00  -0.00  -0.00     0.04   0.02   0.01    -0.20   0.28   0.03
  11   1     0.00  -0.00  -0.00     0.22  -0.06  -0.00     0.59  -0.12   0.00
  12   1    -0.00   0.00  -0.00     0.04   0.01  -0.01    -0.19   0.28  -0.03
  13   1     0.00  -0.00   0.49     0.03   0.10  -0.00     0.03   0.08   0.00
  14   1    -0.00  -0.00  -0.71    -0.24  -0.01   0.00    -0.08   0.03   0.00
  15   1    -0.00  -0.00   0.26     0.01  -0.10  -0.00    -0.05  -0.03   0.00
  16   1     0.00  -0.04  -0.01     0.12   0.20  -0.01    -0.07  -0.13   0.00
  17   1    -0.00   0.04  -0.01     0.12   0.19   0.01    -0.07  -0.13  -0.00
  18   1     0.00  -0.00  -0.02     0.08  -0.38   0.00    -0.06   0.26   0.00
  19   1     0.00  -0.00  -0.00     0.03  -0.01  -0.00    -0.02  -0.01   0.00
                     22                     23                     24
                        a                      a                      a 
 Frequencies --  1026.3466              1034.4702              1064.1198
 Red. masses --     4.2836                 4.6780                 6.7658
 Frc consts  --     0.0000                 0.0000                 0.0000
 IR Inten    --    13.1538                 0.0430               342.9218
 Raman Activ --     0.0000                 0.0000                 0.0000
 Depolar     --     0.0000                 0.0000                 0.0000
 Atom AN      X      Y      Z        X      Y      Z        X      Y      Z
   1   6    -0.00  -0.00   0.32     0.00   0.00  -0.29    -0.19  -0.02   0.00
   2   6    -0.00  -0.00  -0.25     0.00   0.00   0.26     0.17   0.02  -0.00
   3   6     0.00   0.00   0.06    -0.00  -0.00  -0.02     0.12  -0.01   0.00
   4   6     0.00   0.00   0.01    -0.00   0.00  -0.02    -0.01   0.07   0.00
   5   6    -0.00  -0.00   0.02    -0.00   0.00   0.03    -0.20   0.18  -0.00
   6   6    -0.00   0.00   0.04     0.00  -0.00   0.01     0.32  -0.08   0.00
   7   6     0.00  -0.00  -0.22    -0.00  -0.00  -0.28     0.14  -0.05   0.00
   8   6     0.00   0.00   0.29    -0.00  -0.00   0.32    -0.28   0.01  -0.00
   9   8     0.00   0.00  -0.01    -0.00  -0.00  -0.00    -0.22  -0.26   0.00
  10   1    -0.37   0.14  -0.12     0.33  -0.12   0.10    -0.08   0.08   0.01
  11   1    -0.00   0.00  -0.18     0.00  -0.00   0.17     0.09  -0.01  -0.00
  12   1     0.38  -0.14  -0.11    -0.34   0.12   0.10    -0.08   0.08  -0.01
  13   1    -0.00   0.00  -0.09     0.00  -0.00   0.00     0.02   0.02  -0.00
  14   1    -0.00   0.00  -0.04     0.00   0.00   0.03     0.17   0.03  -0.00
  15   1    -0.00   0.00  -0.04    -0.00  -0.00  -0.04    -0.09  -0.01   0.00
  16   1     0.02  -0.37  -0.10     0.02  -0.40  -0.11     0.13   0.23  -0.02
  17   1    -0.02   0.36  -0.10    -0.02   0.40  -0.11     0.13   0.22   0.02
  18   1    -0.00   0.00  -0.16     0.00  -0.00  -0.16     0.07  -0.36   0.00
  19   1    -0.00  -0.00  -0.01     0.00   0.00   0.00     0.24   0.34  -0.00
                     25                     26                     27
                        a                      a                      a 
 Frequencies --  1118.0774              1133.7688              1187.1483
 Red. masses --     6.4383                 3.4473                 3.6518
 Frc consts  --     0.0000                 0.0000                 0.0000
 IR Inten    --     4.8716                55.4258                15.9607
 Raman Activ --     0.0000                 0.0000                 0.0000
 Depolar     --     0.0000                 0.0000                 0.0000
 Atom AN      X      Y      Z        X      Y      Z        X      Y      Z
   1   6    -0.20  -0.06  -0.00     0.09  -0.06  -0.00    -0.03   0.03   0.00
   2   6     0.29   0.03   0.00    -0.10   0.08   0.00    -0.01  -0.12   0.00
   3   6    -0.32  -0.06  -0.00    -0.18   0.01   0.00     0.04   0.02   0.00
   4   6     0.01  -0.16  -0.00    -0.03  -0.11  -0.00    -0.09  -0.07   0.00
   5   6     0.33  -0.05  -0.00     0.14   0.08  -0.00     0.03   0.10  -0.00
   6   6    -0.02   0.11   0.00    -0.13  -0.10   0.00     0.22   0.16  -0.00
   7   6     0.16   0.20  -0.00    -0.16   0.08  -0.00     0.18  -0.23   0.00
   8   6    -0.12  -0.16   0.00     0.10  -0.05   0.00    -0.05   0.11  -0.00
   9   8    -0.05   0.07  -0.00     0.10  -0.17   0.00    -0.14  -0.04   0.00
  10   1    -0.10   0.11   0.02     0.02   0.00   0.00     0.00  -0.02  -0.00
  11   1     0.09  -0.02  -0.00     0.05  -0.02   0.00    -0.03   0.01  -0.00
  12   1    -0.10   0.11  -0.02     0.02   0.00  -0.00    -0.00  -0.02   0.00
  13   1    -0.32   0.35   0.00    -0.13   0.13   0.00     0.14  -0.19  -0.00
  14   1     0.05  -0.05   0.00    -0.05  -0.04   0.00    -0.70  -0.05   0.00
  15   1     0.19   0.16  -0.00     0.28   0.48  -0.00     0.20   0.37  -0.00
  16   1     0.06   0.05  -0.01    -0.05  -0.09   0.01     0.04   0.09  -0.00
  17   1     0.06   0.04   0.01    -0.05  -0.09  -0.01     0.04   0.09   0.00
  18   1     0.03  -0.21   0.00    -0.02   0.10  -0.00     0.00  -0.01   0.00
  19   1    -0.21  -0.26   0.00     0.41   0.49  -0.00    -0.10  -0.11   0.00
                     28                     29                     30
                        a                      a                      a 
 Frequencies --  1199.0487              1246.8203              1288.4682
 Red. masses --     8.0519                 4.9647                10.1600
 Frc consts  --     0.0000                 0.0000                 0.0000
 IR Inten    --     6.5475               125.5889               186.1054
 Raman Activ --     0.0000                 0.0000                 0.0000
 Depolar     --     0.0000                 0.0000                 0.0000
 Atom AN      X      Y      Z        X      Y      Z        X      Y      Z
   1   6    -0.15   0.04   0.00     0.05  -0.10   0.00     0.12  -0.13   0.00
   2   6     0.33  -0.07   0.00    -0.12   0.27  -0.00    -0.22   0.43  -0.00
   3   6     0.03  -0.17   0.00    -0.18   0.09   0.00    -0.14  -0.11   0.00
   4   6    -0.05   0.19  -0.00    -0.03  -0.02  -0.00    -0.09  -0.29   0.00
   5   6    -0.00  -0.12   0.00    -0.15  -0.12   0.00     0.25   0.12  -0.00
   6   6    -0.26  -0.02   0.00    -0.10  -0.24   0.00     0.36   0.25  -0.00
   7   6     0.05   0.52  -0.00     0.26  -0.01  -0.00    -0.14   0.24  -0.00
   8   6    -0.00  -0.25   0.00    -0.10   0.00   0.00     0.03  -0.15   0.00
   9   8     0.09   0.02  -0.00     0.08   0.15  -0.00    -0.18  -0.14   0.00
  10   1    -0.07   0.07  -0.00     0.01   0.01   0.01     0.03   0.01   0.01
  11   1    -0.03   0.01  -0.00     0.14  -0.03  -0.00     0.15  -0.04  -0.00
  12   1    -0.07   0.06   0.00     0.01   0.01  -0.01     0.03   0.01  -0.01
  13   1     0.21  -0.36  -0.00     0.25  -0.44  -0.00     0.10  -0.27  -0.00
  14   1    -0.30   0.04   0.00     0.37   0.01  -0.00    -0.03  -0.09   0.00
  15   1    -0.03  -0.08   0.00     0.18   0.38  -0.00    -0.07  -0.25   0.00
  16   1    -0.01  -0.09  -0.01     0.05   0.05  -0.02    -0.02  -0.03   0.01
  17   1    -0.01  -0.09   0.01     0.05   0.05   0.02    -0.02  -0.03  -0.01
  18   1     0.02  -0.14   0.00     0.01  -0.08   0.00    -0.01   0.02  -0.00
  19   1     0.11   0.13  -0.00    -0.12  -0.15   0.00    -0.01   0.00  -0.00
                     31                     32                     33
                        a                      a                      a 
 Frequencies --  1335.6714              1396.1143              1397.6932
 Red. masses --    11.2098                 3.2716                 3.0388
 Frc consts  --     0.0000                 0.0000                 0.0000
 IR Inten    --    49.3595                 0.1224                 2.2614
 Raman Activ --     0.0000                 0.0000                 0.0000
 Depolar     --     0.0000                 0.0000                 0.0000
 Atom AN      X      Y      Z        X      Y      Z        X      Y      Z
   1   6    -0.07  -0.02  -0.00     0.35  -0.13   0.00     0.19  -0.06   0.00
   2   6     0.26   0.25  -0.00    -0.04   0.01   0.00     0.02  -0.03   0.00
   3   6     0.27  -0.31  -0.00     0.00   0.04  -0.00     0.02   0.01  -0.00
   4   6    -0.37   0.09   0.00    -0.03  -0.03  -0.00    -0.02   0.02  -0.00
   5   6     0.08   0.30  -0.00     0.00   0.00  -0.00    -0.01  -0.04   0.00
   6   6     0.13  -0.45   0.00     0.07   0.01  -0.00     0.01  -0.01   0.00
   7   6    -0.36  -0.08   0.00    -0.02  -0.03  -0.00    -0.03   0.04   0.00
   8   6     0.05   0.05   0.00    -0.00   0.23   0.00     0.06  -0.36   0.00
   9   8     0.07   0.11  -0.00    -0.02  -0.01   0.00     0.01   0.01   0.00
  10   1    -0.02   0.06   0.03    -0.37   0.19  -0.18    -0.22   0.11  -0.11
  11   1     0.03  -0.00  -0.00    -0.40   0.01  -0.01    -0.25   0.01  -0.00
  12   1    -0.01   0.06  -0.02    -0.38   0.19   0.18    -0.22   0.11   0.11
  13   1    -0.00   0.05   0.00     0.02  -0.02  -0.00     0.01  -0.01  -0.00
  14   1    -0.01   0.03  -0.00     0.03  -0.01   0.00     0.04   0.01   0.00
  15   1     0.04   0.12  -0.00     0.01   0.02   0.00     0.02   0.03  -0.00
  16   1    -0.05  -0.03   0.02    -0.05  -0.23  -0.08    -0.02   0.42   0.21
  17   1    -0.05  -0.03  -0.02    -0.05  -0.23   0.08    -0.03   0.42  -0.21
  18   1    -0.01   0.05  -0.00     0.11  -0.28  -0.00    -0.14   0.37  -0.00
  19   1    -0.12  -0.16   0.00    -0.01  -0.01  -0.00    -0.00  -0.00   0.00
                     34                     35                     36
                        a                      a                      a 
 Frequencies --  1452.6361              1468.7505              1470.0375
 Red. masses --     9.2702                 4.2613                 1.5583
 Frc consts  --     0.0000                 0.0000                 0.0000
 IR Inten    --   114.3873                 2.2876                 8.1810
 Raman Activ --     0.0000                 0.0000                 0.0000
 Depolar     --     0.0000                 0.0000                 0.0000
 Atom AN      X      Y      Z        X      Y      Z        X      Y      Z
   1   6     0.09  -0.09   0.00     0.08   0.18  -0.00    -0.00   0.01   0.17
   2   6    -0.14   0.34   0.00    -0.21  -0.08  -0.00    -0.00  -0.01   0.03
   3   6    -0.11  -0.26  -0.00     0.13  -0.12   0.00     0.01   0.00  -0.01
   4   6     0.35  -0.04  -0.00    -0.03   0.11   0.00    -0.01   0.00  -0.00
   5   6    -0.04   0.32  -0.00    -0.09  -0.06   0.00     0.00  -0.01  -0.00
   6   6    -0.32  -0.25   0.00     0.19  -0.11   0.00     0.01   0.00  -0.00
   7   6     0.28  -0.12   0.00     0.03   0.29  -0.00    -0.01   0.01   0.02
   8   6    -0.11   0.00   0.00    -0.08  -0.10  -0.01    -0.01  -0.00   0.14
   9   8     0.10   0.06   0.00    -0.04   0.02  -0.00    -0.00  -0.00   0.00
  10   1    -0.05   0.03  -0.03    -0.21  -0.33  -0.28     0.09  -0.37  -0.07
  11   1     0.00  -0.02  -0.01     0.27   0.00   0.02     0.01   0.01  -0.57
  12   1    -0.06   0.04   0.02    -0.21  -0.36   0.27    -0.10   0.35  -0.05
  13   1    -0.13   0.07   0.00    -0.07   0.14  -0.00     0.00   0.00   0.00
  14   1    -0.31  -0.03   0.00    -0.01   0.03  -0.00     0.01   0.00   0.00
  15   1    -0.16  -0.19   0.00     0.04   0.11  -0.00     0.00   0.01   0.00
  16   1     0.15   0.04  -0.08     0.16  -0.07  -0.12     0.23   0.16  -0.06
  17   1     0.15   0.04   0.08     0.18  -0.05   0.12    -0.20  -0.17  -0.04
  18   1    -0.04   0.07  -0.00    -0.05   0.10   0.02    -0.01   0.01  -0.44
  19   1     0.03   0.03  -0.00    -0.05  -0.06   0.00    -0.00  -0.00  -0.00
                     37                     38                     39
                        a                      a                      a 
 Frequencies --  1482.3884              1490.4409              1496.4529
 Red. masses --     6.6208                 1.5479                 3.4226
 Frc consts  --     0.0000                 0.0000                 0.0000
 IR Inten    --     1.7719                 0.5161                19.9694
 Raman Activ --     0.0000                 0.0000                 0.0000
 Depolar     --     0.0000                 0.0000                 0.0000
 Atom AN      X      Y      Z        X      Y      Z        X      Y      Z
   1   6    -0.06   0.05  -0.00    -0.00  -0.01   0.13     0.05  -0.13  -0.01
   2   6     0.34   0.00  -0.00    -0.01  -0.00   0.03    -0.17  -0.06  -0.00
   3   6    -0.06   0.19   0.00     0.00  -0.00  -0.00     0.10  -0.09   0.00
   4   6    -0.23  -0.14   0.00     0.00   0.00  -0.00     0.00   0.11   0.00
   5   6     0.23   0.07  -0.00    -0.00  -0.01   0.00    -0.11  -0.15   0.00
   6   6    -0.24   0.20   0.00     0.01  -0.00  -0.00     0.18   0.00   0.00
   7   6    -0.10  -0.30  -0.00    -0.00   0.01  -0.03    -0.06   0.19   0.00
   8   6    -0.10   0.04  -0.00    -0.00  -0.00  -0.17    -0.13  -0.09   0.00
   9   8     0.04  -0.05  -0.00    -0.00   0.00  -0.00    -0.04   0.00   0.00
  10   1    -0.12  -0.05  -0.09     0.07  -0.26  -0.05     0.16   0.25   0.20
  11   1     0.04   0.01   0.01    -0.00   0.01  -0.44    -0.30   0.01   0.01
  12   1    -0.12  -0.06   0.09    -0.06   0.27  -0.05     0.17   0.24  -0.19
  13   1     0.12  -0.17  -0.00    -0.00   0.00   0.00    -0.04   0.08  -0.00
  14   1     0.13  -0.03  -0.00    -0.00   0.00   0.00     0.01   0.03  -0.00
  15   1    -0.01  -0.12   0.00     0.00   0.00  -0.00     0.05   0.11  -0.00
  16   1     0.29  -0.05  -0.20    -0.29  -0.22   0.07     0.34  -0.08  -0.23
  17   1     0.31  -0.03   0.20     0.29   0.22   0.06     0.34  -0.09   0.23
  18   1    -0.10   0.28   0.02     0.00   0.00   0.57    -0.10   0.24  -0.00
  19   1     0.08   0.08   0.00    -0.00  -0.00   0.00    -0.03  -0.03   0.00
                     40                     41                     42
                        a                      a                      a 
 Frequencies --  1590.1662              1597.7899              3004.5602
 Red. masses --    11.4768                11.4332                 1.9422
 Frc consts  --     0.0000                 0.0000                 0.0000
 IR Inten    --    90.3572                19.5130                63.1647
 Raman Activ --     0.0000                 0.0000                 0.0000
 Depolar     --     0.0000                 0.0000                 0.0000
 Atom AN      X      Y      Z        X      Y      Z        X      Y      Z
   1   6     0.03   0.01  -0.00    -0.03   0.03   0.00     0.00   0.00   0.08
   2   6    -0.29  -0.39   0.00     0.19  -0.21   0.00     0.00  -0.00   0.00
   3   6     0.09   0.20  -0.00    -0.35   0.39   0.00    -0.00   0.00  -0.00
   4   6    -0.37  -0.17   0.00     0.40  -0.15  -0.00     0.00   0.00  -0.00
   5   6     0.29   0.42  -0.00    -0.11   0.22  -0.00    -0.00   0.00  -0.00
   6   6    -0.11  -0.25   0.00     0.26  -0.38   0.00     0.00  -0.00   0.00
   7   6     0.33   0.23  -0.00    -0.33   0.14   0.00    -0.00   0.00   0.01
   8   6    -0.03  -0.04   0.00     0.01  -0.02   0.00    -0.01   0.00   0.28
   9   8     0.01   0.02  -0.00    -0.00   0.05  -0.00     0.00  -0.00  -0.00
  10   1     0.06   0.02   0.04    -0.01  -0.01  -0.01     0.09   0.06  -0.13
  11   1    -0.09   0.01  -0.00    -0.01   0.00  -0.00     0.00  -0.00   0.01
  12   1     0.06   0.02  -0.04    -0.01  -0.01   0.01    -0.09  -0.06  -0.15
  13   1     0.06  -0.01  -0.00     0.05  -0.12  -0.00     0.00   0.00   0.00
  14   1     0.08  -0.04  -0.00    -0.09  -0.05   0.00     0.00  -0.00  -0.00
  15   1    -0.04  -0.11  -0.00    -0.07  -0.02   0.00     0.00  -0.00   0.00
  16   1     0.00   0.02   0.01     0.04  -0.03  -0.03    -0.32   0.22  -0.50
  17   1     0.00   0.02  -0.01     0.04  -0.03   0.03     0.33  -0.23  -0.54
  18   1     0.01  -0.05  -0.00    -0.02   0.07   0.00     0.00   0.00   0.04
  19   1    -0.01  -0.01   0.00    -0.06  -0.07   0.00    -0.00   0.00   0.00
                     43                     44                     45
                        a                      a                      a 
 Frequencies --  3006.8891              3014.6639              3020.5818
 Red. masses --     1.9322                 1.5307                 1.5255
 Frc consts  --     0.0000                 0.0000                 0.0000
 IR Inten    --    17.6937                60.7660                49.6096
 Raman Activ --     0.0000                 0.0000                 0.0000
 Depolar     --     0.0000                 0.0000                 0.0000
 Atom AN      X      Y      Z        X      Y      Z        X      Y      Z
   1   6    -0.01  -0.00  -0.28    -0.01  -0.01   0.00     0.18   0.12  -0.01
   2   6    -0.00   0.00  -0.01    -0.00  -0.00   0.00     0.01   0.00  -0.00
   3   6     0.00   0.00   0.00     0.00   0.00  -0.00    -0.01  -0.00   0.00
   4   6    -0.00   0.00   0.00     0.00   0.00   0.00     0.00  -0.00   0.00
   5   6    -0.00   0.00  -0.00    -0.00   0.00   0.00     0.00  -0.00   0.00
   6   6     0.00   0.00   0.00     0.00  -0.00  -0.00    -0.00   0.00   0.00
   7   6     0.00   0.00   0.00    -0.01   0.01  -0.00    -0.00  -0.00  -0.00
   8   6    -0.00   0.00   0.08    -0.19   0.11  -0.01    -0.01   0.00   0.00
   9   8    -0.00  -0.00  -0.00     0.00  -0.00   0.00     0.00   0.00   0.00
  10   1    -0.33  -0.21   0.48     0.01   0.01  -0.02    -0.35  -0.22   0.59
  11   1    -0.00   0.00  -0.04     0.00   0.00   0.00     0.02  -0.04  -0.00
  12   1     0.35   0.21   0.55     0.01   0.00   0.02    -0.30  -0.18  -0.55
  13   1    -0.00  -0.00  -0.00    -0.01  -0.00   0.00     0.03   0.02  -0.00
  14   1     0.00  -0.00  -0.00     0.00  -0.01   0.00    -0.00   0.00  -0.00
  15   1     0.00  -0.00  -0.00     0.01  -0.00  -0.00    -0.01   0.00  -0.00
  16   1    -0.09   0.06  -0.13     0.32  -0.23   0.59     0.01  -0.01   0.02
  17   1     0.09  -0.06  -0.14     0.29  -0.21  -0.56     0.01  -0.01  -0.02
  18   1     0.00   0.00   0.01     0.05   0.04  -0.00     0.01   0.00   0.00
  19   1    -0.00   0.00   0.00    -0.00   0.00  -0.00     0.00  -0.00  -0.00
                     46                     47                     48
                        a                      a                      a 
 Frequencies --  3061.0818              3062.4911              3071.8993
 Red. masses --     1.7879                 1.6582                 1.7905
 Frc consts  --     0.0000                 0.0000                 0.0000
 IR Inten    --    67.9844                28.0897                94.4778
 Raman Activ --     0.0000                 0.0000                 0.0000
 Depolar     --     0.0000                 0.0000                 0.0000
 Atom AN      X      Y      Z        X      Y      Z        X      Y      Z
   1   6    -0.00  -0.00  -0.00    -0.00  -0.01  -0.00    -0.00   0.01   0.00
   2   6    -0.00  -0.00  -0.00     0.00   0.00  -0.00    -0.01   0.00   0.00
   3   6    -0.01   0.00   0.00     0.00   0.00  -0.00    -0.18  -0.11   0.00
   4   6    -0.00   0.09  -0.00     0.00  -0.01   0.00    -0.01   0.14  -0.00
   5   6     0.22  -0.12  -0.00    -0.01   0.01   0.00    -0.06   0.04   0.00
   6   6     0.01   0.00  -0.00    -0.00  -0.00  -0.00    -0.00  -0.00   0.00
   7   6    -0.00  -0.00   0.00    -0.01  -0.00   0.00     0.00   0.00   0.00
   8   6    -0.01  -0.01   0.00    -0.22  -0.10   0.00    -0.00  -0.00  -0.00
   9   8    -0.00   0.00   0.00    -0.00   0.00  -0.00     0.00   0.00  -0.00
  10   1     0.00   0.00  -0.00     0.00   0.00  -0.00     0.01   0.01  -0.02
  11   1     0.00   0.01   0.00     0.00   0.02   0.00    -0.00  -0.05  -0.00
  12   1     0.00   0.00   0.00     0.00   0.00   0.00     0.01   0.01   0.02
  13   1     0.03   0.02  -0.00    -0.00  -0.00  -0.00     0.66   0.42  -0.00
  14   1     0.02  -0.36   0.00    -0.00   0.04  -0.00     0.02  -0.51   0.00
  15   1    -0.79   0.42   0.00     0.04  -0.02  -0.00     0.20  -0.11  -0.00
  16   1    -0.00  -0.00   0.00    -0.06   0.01  -0.05    -0.00   0.00  -0.00
  17   1    -0.00  -0.00  -0.00    -0.06   0.01   0.05    -0.00   0.00   0.00
  18   1     0.05   0.02  -0.00     0.91   0.32  -0.00     0.01   0.00  -0.00
  19   1    -0.00  -0.00  -0.00     0.01  -0.00   0.00     0.00   0.00  -0.00
                     49                     50                     51
                        a                      a                      a 
 Frequencies --  3084.7547              3086.5923              3469.8022
 Red. masses --     1.6758                 1.8996                 1.8641
 Frc consts  --     0.0000                 0.0000                 0.0000
 IR Inten    --    35.5875               147.2915               132.6630
 Raman Activ --     0.0000                 0.0000                 0.0000
 Depolar     --     0.0000                 0.0000                 0.0000
 Atom AN      X      Y      Z        X      Y      Z        X      Y      Z
   1   6    -0.00  -0.25  -0.00    -0.00   0.01   0.00    -0.00   0.00   0.00
   2   6    -0.00  -0.01  -0.00    -0.01   0.00   0.00    -0.00   0.00  -0.00
   3   6    -0.02  -0.01  -0.00    -0.14  -0.09   0.00     0.00  -0.00   0.00
   4   6     0.00  -0.01   0.00     0.01  -0.22   0.00    -0.00  -0.00   0.00
   5   6    -0.00   0.00   0.00     0.07  -0.04  -0.00     0.00   0.00  -0.00
   6   6    -0.00  -0.00  -0.00     0.00   0.00  -0.00    -0.01  -0.00   0.00
   7   6     0.00  -0.00   0.00     0.00   0.00   0.00     0.00   0.00  -0.00
   8   6     0.00   0.00   0.00     0.00   0.00  -0.00     0.00   0.00  -0.00
   9   8    -0.00   0.00   0.00    -0.00  -0.00   0.00    -0.19   0.15  -0.00
  10   1    -0.02  -0.05   0.03     0.01   0.01  -0.02     0.00   0.00  -0.00
  11   1     0.07   0.96   0.01    -0.00  -0.06  -0.00     0.00  -0.00  -0.00
  12   1    -0.02  -0.04  -0.03     0.01   0.01   0.02     0.00   0.00   0.00
  13   1     0.07   0.04  -0.00     0.47   0.30  -0.00     0.00   0.00  -0.00
  14   1    -0.00   0.02   0.00    -0.03   0.73  -0.00     0.00   0.00  -0.00
  15   1     0.00  -0.00   0.00    -0.24   0.12   0.00    -0.00  -0.00   0.00
  16   1    -0.00   0.00   0.00     0.00  -0.00   0.01     0.00  -0.00   0.00
  17   1    -0.00   0.00  -0.00     0.00  -0.00  -0.01     0.00  -0.00  -0.00
  18   1    -0.02  -0.01   0.00    -0.01  -0.00   0.00    -0.01  -0.00   0.00
  19   1     0.00  -0.00   0.00    -0.00   0.00  -0.00     0.78  -0.57   0.00
