 Entering Gaussian System
 *********************************************
 Gaussian 98:
 frequency output generated by the xtb code
 *********************************************
                         Standard orientation:
 --------------------------------------------------------------------
  Center     Atomic     Atomic              Coordinates (Angstroms)
  Number     Number      Type              X           Y           Z
 --------------------------------------------------------------------
    1          6             0       -0.608320   -0.008564   -0.468950
    2          6             0        0.608302    0.008571    0.468959
    3          8             0        1.827890   -0.018931   -0.235189
    4          8             0       -1.827908    0.018936    0.235198
    5          1             0       -0.624050   -0.939336   -1.042376
    6          1             0       -0.537754    0.831922   -1.171462
    7          1             0        0.537735   -0.831914    1.171472
    8          1             0        0.624034    0.939344    1.042383
    9          1             0        1.902837   -0.853226   -0.718933
   10          1             0       -1.902855    0.853230    0.718945
 --------------------------------------------------------------------
     1 basis functions        1 primitive gaussians
     1 alpha electrons        1 beta electrons
 
 Harmonic frequencies (cm**-1), IR intensities (km*mol⁻¹),
 Raman scattering activities (A**4/amu), Raman depolarization ratios,
 reduced masses (AMU), force constants (mDyne/A) and normal coordinates:
                      1                      2                      3
                        a                      a                      a 
 Frequencies --   100.6736               273.9401               334.8061
 Red. masses --     9.7663                 9.1787                 4.6368
 Frc consts  --     0.0000                 0.0000                 0.0000
 IR Inten    --    15.0085                26.7493               470.4713
 Raman Activ --     0.0000                 0.0000                 0.0000
 Depolar     --     0.0000                 0.0000                 0.0000
 Atom AN      X      Y      Z        X      Y      Z        X      Y      Z
   1   6    -0.01  -0.41   0.03     0.20   0.03   0.38     0.07  -0.04   0.14
   2   6    -0.01  -0.41   0.03     0.20   0.03   0.38     0.07  -0.04   0.14
   3   8    -0.01   0.41  -0.01    -0.18  -0.05  -0.32    -0.15   0.10  -0.26
   4   8    -0.01   0.41  -0.01    -0.18  -0.05  -0.32    -0.15   0.10  -0.26
   5   1    -0.10  -0.18   0.12     0.14   0.01   0.10     0.02   0.00   0.02
   6   1     0.10  -0.20  -0.08     0.13   0.00   0.11     0.09   0.00   0.05
   7   1     0.10  -0.20  -0.08     0.13   0.00   0.11     0.09   0.00   0.05
   8   1    -0.10  -0.18   0.12     0.14   0.01   0.10     0.02   0.00   0.02
   9   1     0.09   0.17  -0.10    -0.23   0.07  -0.24     0.26  -0.26   0.47
  10   1     0.09   0.17  -0.10    -0.23   0.07  -0.24     0.26  -0.26   0.47
                      4                      5                      6
                        a                      a                      a 
 Frequencies --   339.7264               467.6344               812.2313
 Red. masses --     2.3166                13.6310                 2.0848
 Frc consts  --     0.0000                 0.0000                 0.0000
 IR Inten    --     0.0000                 0.0000                15.1735
 Raman Activ --     0.0000                 0.0000                 0.0000
 Depolar     --     0.0000                 0.0000                 0.0000
 Atom AN      X      Y      Z        X      Y      Z        X      Y      Z
   1   6     0.05  -0.14  -0.02     0.25   0.01  -0.17    -0.00  -0.21   0.01
   2   6    -0.05   0.14   0.02    -0.25  -0.01   0.17    -0.00  -0.21   0.01
   3   8    -0.01  -0.08   0.14    -0.59   0.04  -0.08    -0.02   0.05   0.02
   4   8     0.01   0.08  -0.14     0.59  -0.04   0.08    -0.02   0.05   0.02
   5   1     0.01  -0.08   0.06     0.10   0.01  -0.06    -0.15   0.20  -0.40
   6   1     0.01  -0.08  -0.07     0.10   0.01  -0.03     0.17   0.24   0.36
   7   1    -0.01   0.08   0.07    -0.10  -0.01   0.03     0.17   0.24   0.36
   8   1    -0.01   0.08  -0.06    -0.10  -0.01   0.06    -0.15   0.20  -0.40
   9   1    -0.35   0.25  -0.49    -0.13  -0.05   0.09     0.05   0.06  -0.07
  10   1     0.35  -0.25   0.49     0.13   0.05  -0.09     0.05   0.06  -0.07
                      7                      8                      9
                        a                      a                      a 
 Frequencies --   980.0785              1051.4167              1060.6055
 Red. masses --     8.2045                 6.9052                10.8368
 Frc consts  --     0.0000                 0.0000                 0.0000
 IR Inten    --     0.0000                 0.0000               368.4022
 Raman Activ --     0.0000                 0.0000                 0.0000
 Depolar     --     0.0000                 0.0000                 0.0000
 Atom AN      X      Y      Z        X      Y      Z        X      Y      Z
   1   6     0.13   0.18   0.45    -0.20   0.26  -0.39     0.36  -0.04  -0.19
   2   6    -0.13  -0.18  -0.45     0.20  -0.26   0.39     0.36  -0.04  -0.19
   3   8    -0.19   0.00   0.13    -0.06   0.04  -0.04    -0.40   0.01   0.20
   4   8     0.19  -0.00  -0.13     0.06  -0.04   0.04    -0.40   0.01   0.20
   5   1    -0.04  -0.05   0.27    -0.20  -0.09   0.15     0.28   0.00  -0.06
   6   1     0.12  -0.08  -0.03     0.03  -0.11  -0.30    -0.09   0.02  -0.02
   7   1    -0.12   0.08   0.03    -0.03   0.11   0.30    -0.09   0.02  -0.02
   8   1     0.04   0.05  -0.27     0.20   0.09  -0.15     0.28   0.00  -0.06
   9   1     0.28   0.10  -0.10     0.20   0.08  -0.10     0.17   0.08  -0.05
  10   1    -0.28  -0.10   0.10    -0.20  -0.08   0.10     0.17   0.08  -0.05
                     10                     11                     12
                        a                      a                      a 
 Frequencies --  1090.3179              1094.7366              1239.5242
 Red. masses --    11.0474                 3.9172                 4.1229
 Frc consts  --     0.0000                 0.0000                 0.0000
 IR Inten    --     0.0000                22.4481                 0.0000
 Raman Activ --     0.0000                 0.0000                 0.0000
 Depolar     --     0.0000                 0.0000                 0.0000
 Atom AN      X      Y      Z        X      Y      Z        X      Y      Z
   1   6     0.49   0.05  -0.14    -0.26  -0.01   0.17    -0.02   0.34   0.08
   2   6    -0.49  -0.05   0.14    -0.26  -0.01   0.17     0.02  -0.34  -0.08
   3   8     0.30  -0.01  -0.23     0.11  -0.03  -0.11     0.08   0.08   0.01
   4   8    -0.30   0.01   0.23     0.11  -0.03  -0.11    -0.08  -0.08  -0.01
   5   1     0.17  -0.04   0.05     0.30   0.02  -0.01     0.33  -0.04   0.21
   6   1     0.20  -0.03  -0.06    -0.24   0.04   0.07    -0.23  -0.06  -0.17
   7   1    -0.20   0.03   0.06    -0.24   0.04   0.07     0.23   0.06   0.17
   8   1    -0.17   0.04  -0.05     0.30   0.02  -0.01    -0.33   0.04  -0.21
   9   1     0.12   0.02  -0.08     0.42   0.12  -0.18    -0.32  -0.09   0.13
  10   1    -0.12  -0.02   0.08     0.42   0.12  -0.18     0.32   0.09  -0.13
                     13                     14                     15
                        a                      a                      a 
 Frequencies --  1262.7991              1284.7754              1314.1249
 Red. masses --     3.1294                 2.5152                 3.2879
 Frc consts  --     0.0000                 0.0000                 0.0000
 IR Inten    --    56.4627                 0.0000               149.7889
 Raman Activ --     0.0000                 0.0000                 0.0000
 Depolar     --     0.0000                 0.0000                 0.0000
 Atom AN      X      Y      Z        X      Y      Z        X      Y      Z
   1   6     0.16  -0.16   0.08    -0.02   0.08   0.08    -0.19  -0.14  -0.10
   2   6     0.16  -0.16   0.08     0.02  -0.08  -0.08    -0.19  -0.14  -0.10
   3   8     0.08   0.13  -0.08     0.10   0.17  -0.01     0.08   0.14   0.05
   4   8     0.08   0.13  -0.08    -0.10  -0.17   0.01     0.08   0.14   0.05
   5   1    -0.05   0.04  -0.11    -0.32  -0.00   0.07     0.51  -0.02  -0.07
   6   1    -0.58   0.03   0.05     0.45  -0.03  -0.00     0.13   0.02   0.06
   7   1    -0.58   0.03   0.05    -0.45   0.03   0.00     0.13   0.02   0.06
   8   1    -0.05   0.04  -0.11     0.32   0.00  -0.07     0.51  -0.02  -0.07
   9   1    -0.22  -0.06   0.09    -0.33  -0.08   0.15    -0.31  -0.08   0.15
  10   1    -0.22  -0.06   0.09     0.33   0.08  -0.15    -0.31  -0.08   0.15
                     16                     17                     18
                        a                      a                      a 
 Frequencies --  1350.1198              1468.2487              1474.0222
 Red. masses --     3.8002                 1.8831                 1.7249
 Frc consts  --     0.0000                 0.0000                 0.0000
 IR Inten    --     0.0000                 3.8227                 0.0000
 Raman Activ --     0.0000                 0.0000                 0.0000
 Depolar     --     0.0000                 0.0000                 0.0000
 Atom AN      X      Y      Z        X      Y      Z        X      Y      Z
   1   6    -0.35  -0.03  -0.01     0.01  -0.02  -0.20    -0.02  -0.02  -0.18
   2   6     0.35   0.03   0.01     0.01  -0.02  -0.20     0.02   0.02   0.18
   3   8    -0.03  -0.04  -0.04     0.01   0.00  -0.02    -0.02  -0.00   0.02
   4   8     0.03   0.04   0.04     0.01   0.00  -0.02     0.02   0.00  -0.02
   5   1     0.45  -0.01  -0.02    -0.03  -0.25   0.40    -0.00  -0.25   0.40
   6   1     0.40  -0.02   0.03    -0.05   0.31   0.37    -0.01   0.31   0.38
   7   1    -0.40   0.02  -0.03    -0.05   0.31   0.37     0.01  -0.31  -0.38
   8   1    -0.45   0.01   0.02    -0.03  -0.25   0.40     0.00   0.25  -0.40
   9   1     0.08   0.03  -0.06     0.00  -0.00  -0.00    -0.01  -0.00   0.01
  10   1    -0.08  -0.03   0.06     0.00  -0.00  -0.00     0.01   0.00  -0.01
                     19                     20                     21
                        a                      a                      a 
 Frequencies --  2888.6185              2899.3777              2962.7531
 Red. masses --     1.7155                 1.8057                 1.6273
 Frc consts  --     0.0000                 0.0000                 0.0000
 IR Inten    --     0.0000               174.8042                 0.0000
 Raman Activ --     0.0000                 0.0000                 0.0000
 Depolar     --     0.0000                 0.0000                 0.0000
 Atom AN      X      Y      Z        X      Y      Z        X      Y      Z
   1   6    -0.00  -0.15   0.09    -0.00  -0.16   0.10    -0.00  -0.13  -0.10
   2   6     0.00   0.15  -0.09    -0.00  -0.16   0.10     0.00   0.13   0.10
   3   8     0.01   0.00  -0.01    -0.01  -0.00   0.01    -0.01   0.00   0.00
   4   8    -0.01  -0.00   0.01    -0.01  -0.00   0.01     0.01  -0.00  -0.00
   5   1     0.00   0.05   0.06     0.00   0.03   0.05     0.01   0.58   0.35
   6   1     0.04   0.53  -0.43     0.04   0.53  -0.42    -0.01  -0.09   0.04
   7   1    -0.04  -0.53   0.43     0.04   0.53  -0.42     0.01   0.09  -0.04
   8   1    -0.00  -0.05  -0.06     0.00   0.03   0.05    -0.01  -0.58  -0.35
   9   1     0.00  -0.00   0.00    -0.00   0.00  -0.00    -0.00   0.01   0.00
  10   1    -0.00   0.00  -0.00    -0.00   0.00  -0.00     0.00  -0.01  -0.00
                     22                     23                     24
                        a                      a                      a 
 Frequencies --  2972.1934              3493.8093              3494.5952
 Red. masses --     1.7147                 1.8755                 1.8783
 Frc consts  --     0.0000                 0.0000                 0.0000
 IR Inten    --   101.5124               144.8008                 0.0001
 Raman Activ --     0.0000                 0.0000                 0.0000
 Depolar     --     0.0000                 0.0000                 0.0000
 Atom AN      X      Y      Z        X      Y      Z        X      Y      Z
   1   6     0.01   0.15   0.10     0.00  -0.00  -0.00     0.00  -0.00  -0.00
   2   6     0.01   0.15   0.10     0.00  -0.00  -0.00    -0.00   0.00   0.00
   3   8    -0.00   0.00   0.00     0.01  -0.15  -0.08    -0.01   0.15   0.08
   4   8    -0.00   0.00   0.00     0.01  -0.15  -0.08     0.01  -0.15  -0.08
   5   1    -0.01  -0.59  -0.35     0.00   0.01   0.00     0.00   0.01   0.00
   6   1     0.01   0.07  -0.03     0.00   0.00   0.00     0.00   0.00   0.00
   7   1     0.01   0.07  -0.03     0.00   0.00   0.00    -0.00  -0.00  -0.00
   8   1    -0.01  -0.59  -0.35     0.00   0.01   0.00    -0.00  -0.01  -0.00
   9   1     0.00   0.01   0.01    -0.06   0.59   0.34     0.06  -0.59  -0.34
  10   1     0.00   0.01   0.01    -0.06   0.59   0.34    -0.06   0.59   0.34
