
                                 *****************
                                 * O   R   C   A *
                                 *****************

                                            #,                                       
                                            ###                                      
                                            ####                                     
                                            #####                                    
                                            ######                                   
                                           ########,                                 
                                     ,,################,,,,,                         
                               ,,#################################,,                 
                          ,,##########################################,,             
                       ,#########################################, ''#####,          
                    ,#############################################,,   '####,        
                  ,##################################################,,,,####,       
                ,###########''''           ''''###############################       
              ,#####''   ,,,,##########,,,,          '''####'''          '####       
            ,##' ,,,,###########################,,,                        '##       
           ' ,,###''''                  '''############,,,                           
         ,,##''                                '''############,,,,        ,,,,,,###''
      ,#''                                            '''#######################'''  
     '                                                          ''''####''''         
             ,#######,   #######,   ,#######,      ##                                
            ,#'     '#,  ##    ##  ,#'     '#,    #''#        ,####,   ,####,        
            ##       ##  ##   ,#'  ##            #'  '#       #'       #'  '#        
            ##       ##  #######   ##           ,######,      #####,   #    #        
            '#,     ,#'  ##    ##  '#,     ,#' ,#      #,     #,   #   #,  ,#        
             '#######'   ##     ##  '#######'  #'      '#     '####' # '####'        



                #########################################################
                #                        -***-                          #
                #          Department of theory and spectroscopy        #
                #                                                       #
                #                      Frank Neese                      #
                #                                                       #
                #     Directorship, Architecture, Infrastructure        #
                #                    SHARK, DRIVERS                     #
                #        Core code/Algorithms in most modules           #
                #                                                       #
                #        Max Planck Institute fuer Kohlenforschung      #
                #                Kaiser Wilhelm Platz 1                 #
                #                 D-45470 Muelheim/Ruhr                 #
                #                      Germany                          #
                #                                                       #
                #                  All rights reserved                  #
                #                        -***-                          #
                #########################################################


                         Program Version 6.0.0  -   RELEASE  -


 With contributions from (in alphabetic order):
   Daniel Aravena         : Magnetic Suceptibility
   Michael Atanasov       : Ab Initio Ligand Field Theory (pilot matlab implementation)
   Alexander A. Auer      : GIAO ZORA, VPT2 properties, NMR spectrum
   Ute Becker             : All parallelization in ORCA, NUMFREQ, NUMCALC
   Giovanni Bistoni       : ED, misc. LED, open-shell LED, HFLD
   Martin Brehm           : Molecular dynamics
   Dmytro Bykov           : pre 5.0 version of the SCF Hessian
   Marcos Casanova-Páez   : Triplet and SCS-CIS(D). UHF-(DLPNO)-IP/EA/STEOM-CCSD. UHF-CVS-IP/STEOM-CCSD
   Vijay G. Chilkuri      : MRCI spin determinant printing, contributions to CSF-ICE
   Pauline Colinet        : FMM embedding
   Dipayan Datta          : RHF DLPNO-CCSD density
   Achintya Kumar Dutta   : EOM-CC, STEOM-CC
   Nicolas Foglia         : Exact transition moments, OPA infrastructure, MCD improvements
   Dmitry Ganyushin       : Spin-Orbit,Spin-Spin,Magnetic field MRCI
   Miquel Garcia          : C-PCM and meta-GGA Hessian, CCSD/C-PCM, Gaussian charge scheme
   Tiago L. C. Gouveia    : GS-ROHF, GS-ROCIS
   Yang Guo               : DLPNO-NEVPT2, F12-NEVPT2, CIM, IAO-localization
   Andreas Hansen         : Spin unrestricted coupled pair/coupled cluster methods
   Ingolf Harden          : AUTO-CI MPn and infrastructure 
   Benjamin Helmich-Paris : MC-RPA, TRAH-(SCF,CASSCF), AVAS, COSX integrals, SCF dyn. polar.
   Lee Huntington         : MR-EOM, pCC
   Robert Izsak           : Overlap fitted RIJCOSX, COSX-SCS-MP3, EOM
   Riya Kayal             : Wick's Theorem for AUTO-CI, AUTO-CI UHF-CCSDT
   Emily Kempfer          : AUTO-CI, RHF CISDT and CCSDT
   Christian Kollmar      : KDIIS, OOCD, Brueckner-CCSD(T), CCSD density, CASPT2, CASPT2-K, improved NEVPT2
   Axel Koslowski         : Symmetry handling
   Simone Kossmann        : Meta GGA functionals, TD-DFT gradient, OOMP2, (MP2 Hessian; deprecated post 5.0)
   Lucas Lang             : DCDCAS
   Marvin Lechner         : AUTO-CI (C++ implementation), FIC-MRCC
   Spencer Leger          : CASSCF response
   Dagmar Lenk            : GEPOL surface, SMD, ORCA-2-JSON
   Dimitrios Liakos       : Extrapolation schemes; Compound Job, initial MDCI parallelization
   Dimitrios Manganas     : Further ROCIS development; embedding schemes. LFT, Crystal Embedding
   Dimitrios Pantazis     : SARC Basis sets
   Anastasios Papadopoulos: AUTO-CI, single reference methods and gradients
   Taras Petrenko         : pre 6.0 DFT Hessian and TD-DFT gradient, (ASA, deprecated), ECA, 1-Electron XAS/XES, NRVS
   Peter Pinski           : DLPNO-MP2, DLPNO-MP2 Gradient
   Christoph Reimann      : Effective Core Potentials
   Marius Retegan         : Local ZFS, SOC
   Christoph Riplinger    : Optimizer, TS searches, QM/MM, DLPNO-CCSD(T), (RO)-DLPNO pert. Triples
   Michael Roemelt        : Original ROCIS implementation
   Masaaki Saitow         : Open-shell DLPNO-CCSD energy and density
   Barbara Sandhoefer     : DKH picture change effects
   Kantharuban Sivalingam : CASSCF convergence/infrastructure, NEVPT2 and variants, FIC-MRCI
   Bernardo de Souza      : ESD, SOC TD-DFT
   Georgi Stoychev        : AutoAux, RI-MP2 NMR, DLPNO-MP2 response, X2C
   Van Anh Tran           : RI-MP2 g-tensors
   Willem Van den Heuvel  : Paramagnetic NMR
   Zikuan Wang            : NOTCH, Electric field optimization 
   Frank Wennmohs         : Technical directorship and infrastructure
   Hang Xu                : AUTO-CI-Response properties 


 We gratefully acknowledge several colleagues who have allowed us to
 interface, adapt or use parts of their codes:
   Stefan Grimme, W. Hujo, H. Kruse, P. Pracht,  : VdW corrections, initial TS optimization,
                  C. Bannwarth, S. Ehlert,         DFT functionals, gCP, sTDA/sTD-DF
                  L. Wittmann, M. Mueller
   Ed Valeev, F. Pavosevic, A. Kumar             : LibInt (2-el integral package), F12 methods
   Garnet Chan, S. Sharma, J. Yang, R. Olivares  : DMRG
   Ulf Ekstrom                                   : XCFun DFT Library
   Mihaly Kallay                                 : mrcc  (arbitrary order and MRCC methods)
   Frank Weinhold                                : gennbo (NPA and NBO analysis)
   Simon Mueller                                 : openCOSMO-RS
   Christopher J. Cramer and Donald G. Truhlar   : smd solvation model
   Lars Goerigk                                  : TD-DFT with DH, B97 family of functionals
   V. Asgeirsson, H. Jonsson                     : NEB implementation
   FAccTs GmbH                                   : IRC, NEB, NEB-TS, DLPNO-Multilevel, CI-OPT
                                                   MM, QMMM, 2- and 3-layer-ONIOM, Crystal-QMMM,
                                                   LR-CPCM, SF, NACMEs, symmetry and pop. for TD-DFT,
                                                   nearIR, NL-DFT gradient (VV10), updates on ESD,
                                                   ML-optimized integration grids, MBIS, APM,
                                                   GOAT, DOCKER, SOLVATOR, interface openCOSMO-RS
   S Lehtola, MJT Oliveira, MAL Marques          : LibXC Library
   Liviu Ungur et al                             : ANISO software


 Your calculation uses the libint2 library for the computation of 2-el integrals
 For citations please refer to: http://libint.valeyev.net

 Your ORCA version has been built with support for libXC version: 6.2.2
 For citations please refer to: https://libxc.gitlab.io

 This ORCA versions uses:
   CBLAS   interface :  Fast vector & matrix operations
   LAPACKE interface :  Fast linear algebra routines
   SCALAPACK package :  Parallel linear algebra routines
   Shared memory     :  Shared parallel matrices
   BLAS/LAPACK       :  OpenBLAS 0.3.27  USE64BITINT DYNAMIC_ARCH NO_AFFINITY SapphireRapids SINGLE_THREADED
        Core in use  :  SapphireRapids
   Copyright (c) 2011-2014, The OpenBLAS Project


Your calculation utilizes the geometrical counterpoise correction gCP
Please cite in your paper:
H.Kruse, S. Grimme J.Chem.Phys., 136, (2012), 154101 
   

Your calculation utilizes the atom-pairwise dispersion correction
based on EEQ partial charges (D4)


Your calculation utilizes the SMD solvation module
Please cite in your paper:
A.V. Marenich, C.J. Cramer, D.G. Truhlar J. Phys. Chem. B, 113, (2009), 6378 

================================================================================

----- Orbital basis set information -----
Your calculation utilizes the basis: def2-mTZVPP
   Stefan Grimme, Andreas Hansen, Sebastian Ehlert, and Jan-Michael Mewes 
   J. Chem. Phys. 154, 064103 (2021). DOI: 10.1063/5.0040021

----- AuxJ basis set information -----
Your calculation utilizes the auxiliary basis: def2/J
   F. Weigend, Phys. Chem. Chem. Phys. 8, 1057 (2006).

================================================================================
                                        WARNINGS
                       Please study these warnings very carefully!
================================================================================

Using LibXC functional ID 497 : Re-regularized SCAN exchange by Furness et al
[ 1]  J. W. Furness, A. D. Kaplan, J. Ning, J. P. Perdew, and J. Sun.,  J. Phys. Chem. Lett. 11, 8208-8215 (2020)
[ 2]  J. W. Furness, A. D. Kaplan, J. Ning, J. P. Perdew, and J. Sun.,  J. Phys. Chem. Lett. 11, 9248-9248 (2020)
Using LibXC functional ID 498 : Re-regularized SCAN correlation by Furness et al
[ 1]  J. W. Furness, A. D. Kaplan, J. Ning, J. P. Perdew, and J. Sun.,  J. Phys. Chem. Lett. 11, 8208-8215 (2020)
[ 2]  J. W. Furness, A. D. Kaplan, J. Ning, J. P. Perdew, and J. Sun.,  J. Phys. Chem. Lett. 11, 9248-9248 (2020)
Using LibXC functional ID 497 : Re-regularized SCAN exchange by Furness et al
[ 1]  J. W. Furness, A. D. Kaplan, J. Ning, J. P. Perdew, and J. Sun.,  J. Phys. Chem. Lett. 11, 8208-8215 (2020)
[ 2]  J. W. Furness, A. D. Kaplan, J. Ning, J. P. Perdew, and J. Sun.,  J. Phys. Chem. Lett. 11, 9248-9248 (2020)
Using LibXC functional ID 498 : Re-regularized SCAN correlation by Furness et al
[ 1]  J. W. Furness, A. D. Kaplan, J. Ning, J. P. Perdew, and J. Sun.,  J. Phys. Chem. Lett. 11, 8208-8215 (2020)
[ 2]  J. W. Furness, A. D. Kaplan, J. Ning, J. P. Perdew, and J. Sun.,  J. Phys. Chem. Lett. 11, 9248-9248 (2020)

================================================================================
                                       INPUT FILE
================================================================================
NAME = sp_solv.inp
|  1> ! r2scan-3c def2/J RI DEFGRID2 scfconv6 printgap
|  2> %output
|  3>     printlevel normal
|  4> end
|  5> %cpcm
|  6>     smd true
|  7>     smdsolvent "water"
|  8> end
|  9> * xyz 0 1
| 10> C 3.0640591486 0.5993718625 3.1258974459
| 11> C 1.6604809476 0.2482271903 2.6813460681
| 12> O 1.4676019334 0.5153162962 1.2736630807
| 13> P 2.1946867207 -0.3451613279 0.1635864683
| 14> S 2.5839373893 -2.2149569924 0.6182516799
| 15> O 3.4610097725 0.5533501536 -0.1639688439
| 16> C 4.4901220786 0.1100752962 -1.0714686399
| 17> C 5.7449832354 0.9084742729 -0.7805218239
| 18> S 0.9389024183 -0.040168937 -1.5109242437
| 19> C -0.1652900766 -1.4423856213 -1.1821641424
| 20> S -1.2003201455 -1.1955746304 0.2769829644
| 21> P -2.3875559818 0.3786067459 -0.5556694611
| 22> S -2.7642379532 0.2474272372 -2.4673142598
| 23> O -1.6211119104 1.7079583621 -0.1910601758
| 24> C -1.3496225368 2.1209287248 1.1702027994
| 25> C -2.3553830705 3.1594631245 1.6217639675
| 26> O -3.6526124152 0.4359666815 0.4050997711
| 27> C -4.8332995939 -0.3567470947 0.1785931367
| 28> C -4.5708332117 -1.8417059231 0.3203921651
| 29> H 3.7801215839 -0.0586147671 2.6348865884
| 30> H 3.2955987897 1.6283310766 2.8640279855
| 31> H 3.1453298811 0.4699841579 4.2005264896
| 32> H 0.9111503493 0.8699373857 3.1725808464
| 33> H 1.4464929847 -0.8094109646 2.864934302
| 34> H 4.6522334497 -0.9625644682 -0.9190543024
| 35> H 4.1377683379 0.276310938 -2.0931394316
| 36> H 6.5223614784 0.6151846449 -1.4783052334
| 37> H 5.5420529521 1.9695823962 -0.8922944507
| 38> H 6.0840535093 0.718925788 0.2339726412
| 39> H 0.4286237973 -2.3383887859 -1.0012213261
| 40> H -0.7980137254 -1.5501344517 -2.0631544091
| 41> H -1.3707519091 1.2390663129 1.8170239888
| 42> H -0.3369750326 2.528466835 1.1365069374
| 43> H -3.3529986685 2.7294412514 1.6489520725
| 44> H -2.0865302197 3.5072445914 2.6143037751
| 45> H -2.354113912 4.0001592569 0.9334925487
| 46> H -5.5340362692 0.0013445063 0.9341387199
| 47> H -5.2129388054 -0.1275278274 -0.8215619302
| 48> H -4.0803402435 -2.0529493328 1.2673897789
| 49> H -5.5138918276 -2.3768426951 0.2751112757
| 50> H -3.9318171688 -2.1869700651 -0.4908938281
| 51> *
| 52> 
| 53>                          ****END OF INPUT****
================================================================================

                       ****************************
                       * Single Point Calculation *
                       ****************************

---------------------------------
CARTESIAN COORDINATES (ANGSTROEM)
---------------------------------
  C      3.064059    0.599372    3.125897
  C      1.660481    0.248227    2.681346
  O      1.467602    0.515316    1.273663
  P      2.194687   -0.345161    0.163586
  S      2.583937   -2.214957    0.618252
  O      3.461010    0.553350   -0.163969
  C      4.490122    0.110075   -1.071469
  C      5.744983    0.908474   -0.780522
  S      0.938902   -0.040169   -1.510924
  C     -0.165290   -1.442386   -1.182164
  S     -1.200320   -1.195575    0.276983
  P     -2.387556    0.378607   -0.555669
  S     -2.764238    0.247427   -2.467314
  O     -1.621112    1.707958   -0.191060
  C     -1.349623    2.120929    1.170203
  C     -2.355383    3.159463    1.621764
  O     -3.652612    0.435967    0.405100
  C     -4.833300   -0.356747    0.178593
  C     -4.570833   -1.841706    0.320392
  H      3.780122   -0.058615    2.634887
  H      3.295599    1.628331    2.864028
  H      3.145330    0.469984    4.200526
  H      0.911150    0.869937    3.172581
  H      1.446493   -0.809411    2.864934
  H      4.652233   -0.962564   -0.919054
  H      4.137768    0.276311   -2.093139
  H      6.522361    0.615185   -1.478305
  H      5.542053    1.969582   -0.892294
  H      6.084054    0.718926    0.233973
  H      0.428624   -2.338389   -1.001221
  H     -0.798014   -1.550134   -2.063154
  H     -1.370752    1.239066    1.817024
  H     -0.336975    2.528467    1.136507
  H     -3.352999    2.729441    1.648952
  H     -2.086530    3.507245    2.614304
  H     -2.354114    4.000159    0.933493
  H     -5.534036    0.001345    0.934139
  H     -5.212939   -0.127528   -0.821562
  H     -4.080340   -2.052949    1.267390
  H     -5.513892   -2.376843    0.275111
  H     -3.931817   -2.186970   -0.490894

----------------------------
CARTESIAN COORDINATES (A.U.)
----------------------------
  NO LB      ZA    FRAG     MASS         X           Y           Z
   0 C     6.0000    0    12.011    5.790233    1.132649    5.907090
   1 C     6.0000    0    12.011    3.137854    0.469081    5.067010
   2 O     8.0000    0    15.999    2.773366    0.973807    2.406874
   3 P    15.0000    0    30.974    4.147357   -0.652260    0.309134
   4 S    16.0000    0    32.060    4.882934   -4.185662    1.168326
   5 O     8.0000    0    15.999    6.540361    1.045680   -0.309856
   6 C     6.0000    0    12.011    8.485101    0.208012   -2.024782
   7 C     6.0000    0    12.011   10.856445    1.716768   -1.474972
   8 S    16.0000    0    32.060    1.774268   -0.075908   -2.855233
   9 C     6.0000    0    12.011   -0.312353   -2.725714   -2.233966
  10 S    16.0000    0    32.060   -2.268276   -2.259309    0.523422
  11 P    15.0000    0    30.974   -4.511827    0.715463   -1.050063
  12 S    16.0000    0    32.060   -5.223653    0.467570   -4.662548
  13 O     8.0000    0    15.999   -3.063458    3.227574   -0.361051
  14 C     6.0000    0    12.011   -2.550417    4.007974    2.211363
  15 C     6.0000    0    12.011   -4.451029    5.970520    3.064690
  16 O     8.0000    0    15.999   -6.902437    0.823858    0.765528
  17 C     6.0000    0    12.011   -9.133613   -0.674154    0.337492
  18 C     6.0000    0    12.011   -8.637623   -3.480320    0.605453
  19 H     1.0000    0     1.008    7.143395   -0.110766    4.979214
  20 H     1.0000    0     1.008    6.227779    3.077100    5.412229
  21 H     1.0000    0     1.008    5.943812    0.888141    7.937845
  22 H     1.0000    0     1.008    1.721825    1.643943    5.995309
  23 H     1.0000    0     1.008    2.733476   -1.529565    5.413941
  24 H     1.0000    0     1.008    8.791447   -1.818983   -1.736761
  25 H     1.0000    0     1.008    7.819249    0.522152   -3.955460
  26 H     1.0000    0     1.008   12.325477    1.162531   -2.793592
  27 H     1.0000    0     1.008   10.472962    3.721971   -1.686192
  28 H     1.0000    0     1.008   11.497195    1.358573    0.442144
  29 H     1.0000    0     1.008    0.809982   -4.418914   -1.892034
  30 H     1.0000    0     1.008   -1.508027   -2.929330   -3.898797
  31 H     1.0000    0     1.008   -2.590346    2.341496    3.433678
  32 H     1.0000    0     1.008   -0.636791    4.778110    2.147687
  33 H     1.0000    0     1.008   -6.336249    5.157896    3.116068
  34 H     1.0000    0     1.008   -3.942971    6.627732    4.940318
  35 H     1.0000    0     1.008   -4.448631    7.559205    1.764045
  36 H     1.0000    0     1.008  -10.457813    0.002541    1.765266
  37 H     1.0000    0     1.008   -9.851027   -0.240993   -1.552527
  38 H     1.0000    0     1.008   -7.710726   -3.879512    2.395020
  39 H     1.0000    0     1.008  -10.419745   -4.491582    0.519885
  40 H     1.0000    0     1.008   -7.430058   -4.132774   -0.927655

--------------------------------
INTERNAL COORDINATES (ANGSTROEM)
--------------------------------
 C      0   0   0     0.000000000000     0.00000000     0.00000000
 C      1   0   0     1.513591845459     0.00000000     0.00000000
 O      2   1   0     1.445721376208   111.52058803     0.00000000
 P      3   2   1     1.581563819420   121.43768872    68.93609552
 S      4   3   2     1.963255552552   116.53654102    30.02090310
 O      4   3   2     1.586880410257   101.75224483   263.61527680
 C      6   4   3     1.441915606930   121.69413615   175.19827466
 C      7   6   4     1.515508989938   107.94965577   200.63893381
 S      4   3   2     2.115183372019   101.78660214   157.23232328
 C      9   4   3     1.814810155286    96.10808541   270.48397948
 S     10   9   4     1.805910625706   112.92259166    69.47354412
 P     11  10   9     2.140300445773    95.97563308    68.09079487
 S     12  11  10     1.952814176382   116.00344183    34.66408978
 O     12  11  10     1.577197566890   105.09505819   270.21778194
 C     14  12  11     1.448201604783   123.28110369   299.94009316
 C     15  14  12     1.514600752358   110.56590415   260.33598619
 O     12  11  10     1.589570841278   103.46553929   163.04406272
 C     17  12  11     1.440042568937   122.51899013   270.98260928
 C     18  17  12     1.514628102302   112.51297460    65.53950450
 H      1   2   3     1.089395923511   109.69575325   294.50014096
 H      1   2   3     1.086712144025   110.27140237    54.38124401
 H      1   2   3     1.085437097038   109.42416131   175.00963299
 H      2   1   3     1.090564771128   111.87662237   244.01153461
 H      2   1   3     1.094574782549   110.86655761   120.89987844
 H      7   6   4     1.095475372196   108.60636666   321.68079118
 H      7   6   4     1.093434339045   108.13982296    79.90178794
 H      8   7   6     1.085005725863   109.10979456   182.06157655
 H      8   7   6     1.086105091285   109.89085604   301.97945532
 H      8   7   6     1.086322373188   110.23113402    62.08342891
 H     10   9   4     1.090089750137   109.49109104   310.51126642
 H     10   9   4     1.089996732208   106.44805321   189.65950159
 H     15  14  12     1.093848899507   108.80262806    22.88848958
 H     15  14  12     1.092097839089   104.55088807   140.02927604
 H     16  15  14     1.086689875618   110.22671735    64.16278102
 H     16  15  14     1.085527094905   109.13621065   184.26506244
 H     16  15  14     1.086503172445   109.93273058   304.16878323
 H     18  17  12     1.090921908805   103.71066180   186.30211639
 H     18  17  12     1.094064697016   108.23782872   303.07562776
 H     19  18  17     1.087203573641   110.50071864    51.88906298
 H     19  18  17     1.085256318440   109.20503300   172.30181825
 H     19  18  17     1.088914043255   110.04769502   291.68579508

---------------------------
INTERNAL COORDINATES (A.U.)
---------------------------
 C      0   0   0     0.000000000000     0.00000000     0.00000000
 C      1   0   0     2.860274066454     0.00000000     0.00000000
 O      2   1   0     2.732017466989   111.52058803     0.00000000
 P      3   2   1     2.988722482022   121.43768872    68.93609552
 S      4   3   2     3.710015325224   116.53654102    30.02090310
 O      4   3   2     2.998769382671   101.75224483   263.61527680
 C      6   4   3     2.724825605325   121.69413615   175.19827466
 C      7   6   4     2.863896944478   107.94965577   200.63893381
 S      4   3   2     3.997117296139   101.78660214   157.23232328
 C      9   4   3     3.429494178550    96.10808541   270.48397948
 S     10   9   4     3.412676504923   112.92259166    69.47354412
 P     11  10   9     4.044581686820    95.97563308    68.09079487
 S     12  11  10     3.690283983800   116.00344183    34.66408978
 O     12  11  10     2.980471460510   105.09505819   270.21778194
 C     14  12  11     2.736704419746   123.28110369   299.94009316
 C     15  14  12     2.862180624188   110.56590415   260.33598619
 O     12  11  10     3.003853560482   103.46553929   163.04406272
 C     17  12  11     2.721286076480   122.51899013   270.98260928
 C     18  17  12     2.862232308092   112.51297460    65.53950450
 H      1   2   3     2.058659946847   109.69575325   294.50014096
 H      1   2   3     2.053588338614   110.27140237    54.38124401
 H      1   2   3     2.051178849000   109.42416131   175.00963299
 H      2   1   3     2.060868748733   111.87662237   244.01153461
 H      2   1   3     2.068446572115   110.86655761   120.89987844
 H      7   6   4     2.070148439906   108.60636666   321.68079118
 H      7   6   4     2.066291446220   108.13982296    79.90178794
 H      8   7   6     2.050363675618   109.10979456   182.06157655
 H      8   7   6     2.052441175186   109.89085604   301.97945532
 H      8   7   6     2.052851778477   110.23113402    62.08342891
 H     10   9   4     2.059971089154   109.49109104   310.51126642
 H     10   9   4     2.059795310742   106.44805321   189.65950159
 H     15  14  12     2.067074851959   108.80262806    22.88848958
 H     15  14  12     2.063765827326   104.55088807   140.02927604
 H     16  15  14     2.053546257423   110.22671735    64.16278102
 H     16  15  14     2.051348920322   109.13621065   184.26506244
 H     16  15  14     2.053193439557   109.93273058   304.16878323
 H     18  17  12     2.061543641136   103.71066180   186.30211639
 H     18  17  12     2.067482650151   108.23782872   303.07562776
 H     19  18  17     2.054517006002   110.50071864    51.88906298
 H     19  18  17     2.050837226960   109.20503300   172.30181825
 H     19  18  17     2.057749325132   110.04769502   291.68579508

---------------------
BASIS SET INFORMATION
---------------------
There are 5 groups of distinct atoms

 Group   1 Type C   : 11s6p1d contracted to 5s3p1d pattern {62111/411/1}
 Group   2 Type O   : 11s6p2d contracted to 5s3p2d pattern {62111/411/11}
 Group   3 Type P   : 14s9p2d contracted to 5s4p2d pattern {73211/6111/11}
 Group   4 Type S   : 14s9p2d contracted to 5s4p2d pattern {73211/6111/11}
 Group   5 Type H   : 4s1p contracted to 2s1p pattern {31/1}

Atom   0C    basis set group =>   1
Atom   1C    basis set group =>   1
Atom   2O    basis set group =>   2
Atom   3P    basis set group =>   3
Atom   4S    basis set group =>   4
Atom   5O    basis set group =>   2
Atom   6C    basis set group =>   1
Atom   7C    basis set group =>   1
Atom   8S    basis set group =>   4
Atom   9C    basis set group =>   1
Atom  10S    basis set group =>   4
Atom  11P    basis set group =>   3
Atom  12S    basis set group =>   4
Atom  13O    basis set group =>   2
Atom  14C    basis set group =>   1
Atom  15C    basis set group =>   1
Atom  16O    basis set group =>   2
Atom  17C    basis set group =>   1
Atom  18C    basis set group =>   1
Atom  19H    basis set group =>   5
Atom  20H    basis set group =>   5
Atom  21H    basis set group =>   5
Atom  22H    basis set group =>   5
Atom  23H    basis set group =>   5
Atom  24H    basis set group =>   5
Atom  25H    basis set group =>   5
Atom  26H    basis set group =>   5
Atom  27H    basis set group =>   5
Atom  28H    basis set group =>   5
Atom  29H    basis set group =>   5
Atom  30H    basis set group =>   5
Atom  31H    basis set group =>   5
Atom  32H    basis set group =>   5
Atom  33H    basis set group =>   5
Atom  34H    basis set group =>   5
Atom  35H    basis set group =>   5
Atom  36H    basis set group =>   5
Atom  37H    basis set group =>   5
Atom  38H    basis set group =>   5
Atom  39H    basis set group =>   5
Atom  40H    basis set group =>   5
---------------------------------
AUXILIARY/J BASIS SET INFORMATION
---------------------------------
There are 5 groups of distinct atoms

 Group   1 Type C   : 12s5p4d2f1g contracted to 6s4p3d1f1g pattern {711111/2111/211/2/1}
 Group   2 Type O   : 12s5p4d2f1g contracted to 6s4p3d1f1g pattern {711111/2111/211/2/1}
 Group   3 Type P   : 14s5p5d2f1g contracted to 8s4p3d1f1g pattern {71111111/2111/311/2/1}
 Group   4 Type S   : 14s5p5d2f1g contracted to 8s4p3d1f1g pattern {71111111/2111/311/2/1}
 Group   5 Type H   : 5s2p1d contracted to 3s1p1d pattern {311/2/1}

Atom   0C    basis set group =>   1
Atom   1C    basis set group =>   1
Atom   2O    basis set group =>   2
Atom   3P    basis set group =>   3
Atom   4S    basis set group =>   4
Atom   5O    basis set group =>   2
Atom   6C    basis set group =>   1
Atom   7C    basis set group =>   1
Atom   8S    basis set group =>   4
Atom   9C    basis set group =>   1
Atom  10S    basis set group =>   4
Atom  11P    basis set group =>   3
Atom  12S    basis set group =>   4
Atom  13O    basis set group =>   2
Atom  14C    basis set group =>   1
Atom  15C    basis set group =>   1
Atom  16O    basis set group =>   2
Atom  17C    basis set group =>   1
Atom  18C    basis set group =>   1
Atom  19H    basis set group =>   5
Atom  20H    basis set group =>   5
Atom  21H    basis set group =>   5
Atom  22H    basis set group =>   5
Atom  23H    basis set group =>   5
Atom  24H    basis set group =>   5
Atom  25H    basis set group =>   5
Atom  26H    basis set group =>   5
Atom  27H    basis set group =>   5
Atom  28H    basis set group =>   5
Atom  29H    basis set group =>   5
Atom  30H    basis set group =>   5
Atom  31H    basis set group =>   5
Atom  32H    basis set group =>   5
Atom  33H    basis set group =>   5
Atom  34H    basis set group =>   5
Atom  35H    basis set group =>   5
Atom  36H    basis set group =>   5
Atom  37H    basis set group =>   5
Atom  38H    basis set group =>   5
Atom  39H    basis set group =>   5
Atom  40H    basis set group =>   5

Checking for AutoStart:
The File: sp_solv.gbw exists
Trying to determine its content:
     ... Fine, the file contains calculation information
     ... Fine, the calculation information was read
     ... Fine, the file contains a basis set
     ... Fine, the basis set was read
     ... Fine, the file contains a geometry
     ... Fine, the geometry was read
     ... Fine, the file contains a set of orbitals
     ... Fine, the orbitals can be read
     => possible old guess file was deleted
     => GBW file was renamed to GES file
     => GES file is set as startup file
     => Guess is set to MORead
     ... now leaving AutoStart

------------------------------------------------------------------------------
                             ORCA STARTUP CALCULATIONS
                           -- RI-GTO INTEGRALS CHOSEN --
------------------------------------------------------------------------------
------------------------------------------------------------------------------
                   ___                                                        
                  /   \      - P O W E R E D   B Y -                         
                 /     \                                                     
                 |  |  |   _    _      __       _____    __    __             
                 |  |  |  | |  | |    /  \     |  _  \  |  |  /  |          
                  \  \/   | |  | |   /    \    | | | |  |  | /  /          
                 / \  \   | |__| |  /  /\  \   | |_| |  |  |/  /          
                |  |  |   |  __  | /  /__\  \  |    /   |      \           
                |  |  |   | |  | | |   __   |  |    \   |  |\   \          
                \     /   | |  | | |  |  |  |  | |\  \  |  | \   \       
                 \___/    |_|  |_| |__|  |__|  |_| \__\ |__|  \__/        
                                                                              
                      - O R C A' S   B I G   F R I E N D -                    
                                      &                                       
                       - I N T E G R A L  F E E D E R -                       
                                                                              
 v1 FN, 2020, v2 2021, v3 2022-2024                                           
------------------------------------------------------------------------------


----------------------
SHARK INTEGRAL PACKAGE
----------------------

Number of atoms                             ...     41
Number of basis functions                   ...    539
Number of shells                            ...    253
Maximum angular momentum                    ...      2
Integral batch strategy                     ... SHARK/LIBINT Hybrid
RI-J (if used) integral strategy            ... SPLIT-RIJ (Revised 2003 algorithm where possible)
Printlevel                                  ...      1
Contraction scheme used                     ... SEGMENTED contraction
Prescreening option                         ... SCHWARTZ
   Thresh                                   ... 1.000e-10
   Tcut                                     ... 1.000e-11
   Tpresel                                  ... 1.000e-11 
Coulomb Range Separation                    ... NOT USED
Exchange Range Separation                   ... NOT USED
Multipole approximations                    ... NOT USED
Finite Nucleus Model                        ... NOT USED
CABS basis                                  ... NOT available
Auxiliary Coulomb fitting basis             ... AVAILABLE
   # of basis functions in Aux-J            ...   1185
   # of shells in Aux-J                     ...    407
   Maximum angular momentum in Aux-J        ...      4
Auxiliary J/K fitting basis                 ... NOT available
Auxiliary Correlation fitting basis         ... NOT available
Auxiliary 'external' fitting basis          ... NOT available

Checking pre-screening integrals            ... done (  0.0 sec) Dimension = 253
Check shell pair data                       ... done (  0.0 sec)
Shell pair information
Shell pair cut-off parameter TPreSel        ...   1.0e-11
Total number of shell pairs                 ...     32131
Shell pairs after pre-screening             ...     20956
Total number of primitive shell pairs       ...    124843
Primitive shell pairs kept                  ...     49051
          la=0 lb=0:   5885 shell pairs
          la=1 lb=0:   7612 shell pairs
          la=1 lb=1:   2506 shell pairs
          la=2 lb=0:   2802 shell pairs
          la=2 lb=1:   1804 shell pairs
          la=2 lb=2:    347 shell pairs

Calculating one electron integrals          ... done (  0.1 sec)
Calculating RI/J V-Matrix + Cholesky decomp.... done (  0.1 sec)
Calculating Nuclear repulsion               ... done (  0.0 sec) ENN=   2751.023832423557 Eh

Diagonalization of the overlap matrix:
Smallest eigenvalue                        ... 2.695e-04
Time for diagonalization                   ...    0.031 sec
Threshold for overlap eigenvalues          ... 1.000e-07
Number of eigenvalues below threshold      ... 0
Time for construction of square roots      ...    0.065 sec
Total time needed                          ...    0.107 sec

-------------------
DFT GRID GENERATION
-------------------

General Integration Accuracy     IntAcc      ... 4.388
Radial Grid Type                 RadialGrid  ... OptM3 with GC (2021)
Angular Grid (max. ang.)         AngularGrid ... 4 (Lebedev-302)
Angular grid pruning method      GridPruning ... 4 (adaptive)
Weight generation scheme         WeightScheme... mBecke (2022)
Basis function cutoff            BFCut       ... 1.0000e-10
Integration weight cutoff        WCut        ... 1.0000e-14
Partially contracted basis set               ... off
Rotationally invariant grid construction     ... off
Angular grids for H and He will be reduced by one unit
Diffuse basis detected: some atoms will have their outermost
                        angular grid increased by 1.

Total number of grid points                  ...   192690
Total number of batches                      ...     3034
Average number of points per batch           ...       63
Average number of grid points per atom       ...     4700
Initializing property integral containers    ... done (  0.0 sec)

SHARK setup successfully completed in   2.9 seconds

Maximum memory used throughout the entire STARTUP-calculation: 101.4 MB
-------------------------------------------------------------------------------
                                 ORCA GUESS
                   Start orbitals & Density for SCF / CASSCF
-------------------------------------------------------------------------------

------------
SCF SETTINGS
------------
Hamiltonian:
 Density Functional     Method          .... DFT(GTOs)
  Functional kind                       .... Exchange
  Functional name                       .... Re-regularized SCAN exchange by Furness et al
  Functional family                     .... MGGA
  Functional refs                              
    [ 0] J. W. Furness, A. D. Kaplan, J. Ning, J. P. Perdew, and J. Sun.,  J. Phys. Chem. Lett. 11, 8208-8215 (2020), doi: 10.1021/acs.jpclett.0c02405
    [ 1] J. W. Furness, A. D. Kaplan, J. Ning, J. P. Perdew, and J. Sun.,  J. Phys. Chem. Lett. 11, 9248-9248 (2020), doi: 10.1021/acs.jpclett.0c03077
  Functional external parameters        .... 6
    Parameter  0 _c1        =  6.670000e-01 : c1 parameter        
    Parameter  1 _c2        =  8.000000e-01 : c2 parameter        
    Parameter  2 _d         =  1.240000e+00 : d parameter         
    Parameter  3 _k1        =  6.500000e-02 : k1 parameter        
    Parameter  4 _eta       =  1.000000e-03 : eta parameter       
    Parameter  5 _dp2       =  3.610000e-01 : dp2 parameter       
  Functional kind                       .... Correlation
  Functional name                       .... Re-regularized SCAN correlation by Furness et al
  Functional family                     .... MGGA
  Functional refs                              
    [ 0] J. W. Furness, A. D. Kaplan, J. Ning, J. P. Perdew, and J. Sun.,  J. Phys. Chem. Lett. 11, 8208-8215 (2020), doi: 10.1021/acs.jpclett.0c02405
    [ 1] J. W. Furness, A. D. Kaplan, J. Ning, J. P. Perdew, and J. Sun.,  J. Phys. Chem. Lett. 11, 9248-9248 (2020), doi: 10.1021/acs.jpclett.0c03077
  Functional external parameters        .... 1
    Parameter  0 _eta       =  1.000000e-03 : Regularization parameter
 Gradients option       PostSCFGGA      .... off
 RI-approximation to the Coulomb term is turned on
   Number of AuxJ basis functions       .... 1185


General Settings:
 Integral files         IntName         .... sp_solv
 Hartree-Fock type      HFTyp           .... RHF
 Total Charge           Charge          ....    0
 Multiplicity           Mult            ....    1
 Number of Electrons    NEL             ....  202
 Basis Dimension        Dim             ....  539
 Nuclear Repulsion      ENuc            ....   2751.0238324236 Eh

Convergence Acceleration:
 AO-DIIS                CNVDIIS         .... on
   Start iteration      DIISMaxIt       ....    12
   Startup error        DIISStart       ....  0.200000
   # of expansion vecs  DIISMaxEq       ....     5
   Bias factor          DIISBfac        ....   1.050
   Max. coefficient     DIISMaxC        ....  10.000
 MO-DIIS                CNVKDIIS        .... off
 Trust-Rad. Augm. Hess. CNVTRAH         .... auto
   Auto Start mean grad. ratio tolernc. ....  1.125000
   Auto Start start iteration           ....     1
   Auto Start num. interpolation iter.  ....    10
   Max. Number of Micro iterations      ....    24
   Max. Number of Macro iterations      .... Maxiter - #DIIS iter
   Number of Davidson start vectors     ....     2
   Converg. threshold    (grad. norm)   ....   3.330e-04
   Grad. Scal. Fac. for Micro threshold ....   0.100
   Minimum threshold for Micro iter.    ....   1.000e-02
   NR start threshold (gradient norm)   ....   1.000e-04
   Initial trust radius                 ....   0.400
   Minimum AH scaling param. (alpha)    ....   1.000
   Maximum AH scaling param. (alpha)    .... 1000.000
   Quad. conv. algorithm                .... NR
   White noise on init. David. guess    .... on
   Maximum white noise                  ....   0.010
   Pseudo random numbers                .... off
   Inactive MOs                         .... canonical
   Orbital update algorithm             .... Taylor
   Preconditioner                       .... Diag
   Full preconditioner red. dimension   ....   250
   COSX micro iterations for RIJONX calc.... off
 SOSCF                  CNVSOSCF        .... on
   Start iteration      SOSCFMaxIt      ....   150
   Startup grad/error   SOSCFStart      ....  0.003300
   Hessian update       SOSCFHessUp     .... L-BFGS
 Level Shifting         CNVShift        .... on
   Level shift para.    LevelShift      ....    0.2500
   Turn off err/grad.   ShiftErr        ....    0.0010
 Zerner damping         CNVZerner       .... off
 Static damping         CNVDamp         .... on
   Fraction old density DampFac         ....    0.7000
   Max. Damping (<1)    DampMax         ....    0.9800
   Min. Damping (>=0)   DampMin         ....    0.0000
   Turn off err/grad.   DampErr         ....    0.1000

SCF Procedure:
 Maximum # iterations   MaxIter         ....   125
 SCF integral mode      SCFMode         .... Direct
   Integral package                     .... SHARK and LIBINT hybrid scheme
 Reset frequency        DirectResetFreq ....    20
 Integral Threshold     Thresh          ....  1.000e-10 Eh
 Primitive CutOff       TCut            ....  1.000e-11 Eh

Convergence Tolerance:
 Convergence Check Mode ConvCheckMode   .... Total+1el-Energy
 Convergence forced     ConvForced      .... 0
 Energy Change          TolE            ....  1.000e-06 Eh
 1-El. energy change                    ....  1.000e-03 Eh
 Orbital Gradient       TolG            ....  3.330e-04
 Orbital Rotation angle TolX            ....  3.330e-04
 DIIS Error             TolErr          ....  1.000e-06

---------------------
INITIAL GUESS: MOREAD
---------------------
Guess MOs are being read from file: sp_solv.ges
Input Geometry matches current geometry (good)
Atom 0: N(Shells)= 9 and 6 - projection required
Input basis set needs projection
NBasis(read)= 334
NBasis(calc)= 539
Basis set overlap was calculated
Using GuessMode=FMatrix for the initial guess
C*T matrix was formed
Effective Fockian was calculated
Effective Fockian was diagonalized
Initial density was built
                      ------------------
                      INITIAL GUESS DONE (   0.2 sec)
                      ------------------
             **** ENERGY FILE WAS UPDATED (sp_solv.en.tmp) ****
Finished Guess after   0.6 sec
Maximum memory used throughout the entire GUESS-calculation: 58.3 MB

-------------------------------------------------------------------------------------------
                                      ORCA LEAN-SCF
                              memory conserving SCF solver
-------------------------------------------------------------------------------------------

--------------------
CPCM SOLVATION MODEL
--------------------
CPCM parameters:
  Epsilon                                         ...      78.3550
  Refrac                                          ...       1.3328
  Rsolv                                           ...       1.3000
  Surface type                                    ... GAUSSIAN VDW
  Discretization scheme                           ... Constant charge density
    Threshold for H atoms                         ...       5.0000 (charges/Ang^2)
    Threshold for non-H atoms                     ...       5.0000 (charges/Ang^2)
  Epsilon function type                           ...         CPCM
Solvent:                                          ... WATER
SMD-CDS solvent descriptors:
  Soln                                            ...       1.3328
  Soln25                                          ...       1.3323
  Sola                                            ...       0.0000
  Solb                                            ...       0.0000
  Solg                                            ...       0.0000
  Solc                                            ...       0.0000
  Solh                                            ...       0.0000
Radii:
  Scheme                                          ... Element-dependent radii
  Radius for C  used is    3.4960 Bohr (=   1.8500 Ang.)
  Radius for O  used is    2.8724 Bohr (=   1.5200 Ang.)
  Radius for P  used is    4.0062 Bohr (=   2.1200 Ang.)
  Radius for S  used is    4.7054 Bohr (=   2.4900 Ang.)
  Radius for H  used is    2.2677 Bohr (=   1.2000 Ang.)
Calculating surface                               ...        done! (  0.0s)
Cavity surface points                             ...         3351
Cavity Volume                                     ...    2783.5228
Cavity Surface-area                               ...    1390.4956
Calculating surface distance matrix               ...        done! (  0.1s)
Performing Cholesky decomposition & store         ...        done! (  0.5s)
Overall time for CPCM initialization              ...                 0.6s

----------------------------------------D-I-I-S--------------------------------------------
Iteration    Energy (Eh)           Delta-E    RMSDP     MaxDP     DIISErr   Damp  Time(sec)
-------------------------------------------------------------------------------------------
               ***  Starting incremental Fock matrix formation  ***
    1    -2932.0262951943464032     0.00e+00  2.18e-03  9.06e-02  6.34e-01  0.700  12.7
    2    -2932.1701763997675698    -1.44e-01  1.79e-03  7.39e-02  4.46e-01  0.700  10.2
    3    -2932.2719698504383814    -1.02e-01  1.32e-03  5.42e-02  3.13e-01  0.700   9.7
    4    -2932.3434351906103075    -7.15e-02  9.52e-04  3.88e-02  2.19e-01  0.700   9.6
                               ***Turning on AO-DIIS***
    5    -2932.3935624197133620    -5.01e-02  6.96e-04  2.81e-02  1.53e-01  0.700   9.3
    6    -2932.4286971874475967    -3.51e-02  4.95e-04  1.99e-02  1.07e-01  0.700   9.2
    7    -2932.4533314512750621    -2.46e-02  3.50e-04  1.40e-02  7.50e-02  0.700   9.0
    8    -2932.4705924674403832    -1.73e-02  8.23e-04  3.29e-02  5.26e-02  0.000   8.8
                              *** Initializing SOSCF ***
---------------------------------------S-O-S-C-F--------------------------------------
Iteration    Energy (Eh)           Delta-E    RMSDP     MaxDP     MaxGrad    Time(sec)
--------------------------------------------------------------------------------------
    9    -2932.5109247499381127    -4.03e-02  7.70e-06  4.11e-04  2.18e-04     9.7
               *** Restarting incremental Fock matrix formation ***
   10    -2932.5109254135863921    -6.64e-07  5.41e-06  4.60e-04  4.05e-05    12.0
                  *** Gradient check signals convergence ***

               *****************************************************
               *                     SUCCESS                       *
               *           SCF CONVERGED AFTER  10 CYCLES          *
               *****************************************************


SMD CDS free energy correction energy :                 7.18840     Kcal/mol
Total Energy after SMD CDS correction =             -2932.499469974 Eh
             **** ENERGY FILE WAS UPDATED (sp_solv.en.tmp) ****

----------------
TOTAL SCF ENERGY
----------------

Total Energy       :      -2932.49946997377674 Eh          -79797.36740 eV

Components:
Nuclear Repulsion  :       2751.02383242355654 Eh           74859.16425 eV
Electronic Energy  :      -5683.50952280218189 Eh         -154656.15668 eV
One Electron Energy:      -9523.72919043058937 Eh         -259153.84640 eV
Two Electron Energy:       3840.21966762840702 Eh          104497.68972 eV
CPCM Dielectric    :         -0.02523503496115 Eh              -0.68668 eV
SMD CDS (Gcds)     :          0.01145543980951 Eh               0.31172 eV

Virial components:
Potential Energy   :      -5856.18841824444462 Eh         -159354.98831 eV
Kinetic Energy     :       2923.68894827066788 Eh           79557.62091 eV
Virial Ratio       :          2.00301349488916

DFT components:
N(Alpha)           :      100.999892903803 electrons
N(Beta)            :      100.999892903803 electrons
N(Total)           :      201.999785807606 electrons
E(X)               :     -233.541305057749 Eh       
E(C)               :       -7.118855248020 Eh       
E(XC)              :     -240.660160305769 Eh       

CPCM Solvation Model Properties:
Surface-charge          :         -0.04562375143641
Corrected charge        :          0.00000000000000
Outlying charge corr.   :          0.00010586952141 Eh               0.00288 eV
Free-energy (cav+disp)  :          0.01145543980951 Eh               0.31172 eV

---------------
SCF CONVERGENCE
---------------

  Last Energy change         ...    6.6365e-07  Tolerance :   1.0000e-06
  Last MAX-Density change    ...    4.6033e-04  Tolerance :   1.0000e-05
  Last RMS-Density change    ...    5.4131e-06  Tolerance :   1.0000e-06
  Last DIIS Error            ...    2.1845e-04  Tolerance :   1.0000e-06
  Last Orbital Gradient      ...    4.0494e-05  Tolerance :   3.3300e-04
  Last Orbital Rotation      ...    1.4406e-04  Tolerance :   3.3300e-04


----------------
ORBITAL ENERGIES
----------------

  NO   OCC          E(Eh)            E(eV) 
   0   2.0000     -88.579129     -2410.3606 
   1   2.0000     -88.575988     -2410.2752 
   2   2.0000     -88.531004     -2409.0511 
   3   2.0000     -88.528664     -2408.9874 
   4   2.0000     -76.920202     -2093.1051 
   5   2.0000     -76.918960     -2093.0713 
   6   2.0000     -18.996685      -516.9261 
   7   2.0000     -18.996379      -516.9177 
   8   2.0000     -18.994006      -516.8532 
   9   2.0000     -18.993241      -516.8324 
  10   2.0000     -10.102874      -274.9132 
  11   2.0000     -10.091294      -274.5981 
  12   2.0000     -10.091026      -274.5908 
  13   2.0000     -10.090549      -274.5778 
  14   2.0000     -10.089751      -274.5561 
  15   2.0000     -10.019814      -272.6530 
  16   2.0000     -10.018836      -272.6264 
  17   2.0000     -10.018539      -272.6183 
  18   2.0000     -10.018273      -272.6111 
  19   2.0000      -7.873337      -214.2444 
  20   2.0000      -7.870310      -214.1620 
  21   2.0000      -7.826174      -212.9610 
  22   2.0000      -7.823781      -212.8959 
  23   2.0000      -6.598713      -179.5601 
  24   2.0000      -6.597725      -179.5332 
  25   2.0000      -5.820151      -158.3744 
  26   2.0000      -5.817208      -158.2943 
  27   2.0000      -5.817145      -158.2926 
  28   2.0000      -5.814243      -158.2136 
  29   2.0000      -5.810552      -158.1132 
  30   2.0000      -5.807403      -158.0275 
  31   2.0000      -5.773762      -157.1121 
  32   2.0000      -5.771282      -157.0446 
  33   2.0000      -5.766329      -156.9098 
  34   2.0000      -5.766277      -156.9084 
  35   2.0000      -5.764055      -156.8479 
  36   2.0000      -5.763871      -156.8429 
  37   2.0000      -4.744528      -129.1052 
  38   2.0000      -4.743524      -129.0779 
  39   2.0000      -4.743034      -129.0645 
  40   2.0000      -4.742651      -129.0541 
  41   2.0000      -4.742325      -129.0452 
  42   2.0000      -4.741628      -129.0263 
  43   2.0000      -1.054290       -28.6887 
  44   2.0000      -1.053467       -28.6663 
  45   2.0000      -1.014017       -27.5928 
  46   2.0000      -1.012623       -27.5549 
  47   2.0000      -0.803833       -21.8734 
  48   2.0000      -0.756091       -20.5743 
  49   2.0000      -0.744840       -20.2681 
  50   2.0000      -0.726313       -19.7640 
  51   2.0000      -0.724713       -19.7204 
  52   2.0000      -0.709750       -19.3133 
  53   2.0000      -0.689139       -18.7524 
  54   2.0000      -0.675139       -18.3715 
  55   2.0000      -0.629870       -17.1396 
  56   2.0000      -0.620788       -16.8925 
  57   2.0000      -0.602441       -16.3932 
  58   2.0000      -0.593339       -16.1456 
  59   2.0000      -0.589945       -16.0532 
  60   2.0000      -0.528503       -14.3813 
  61   2.0000      -0.519225       -14.1288 
  62   2.0000      -0.495252       -13.4765 
  63   2.0000      -0.490478       -13.3466 
  64   2.0000      -0.476474       -12.9655 
  65   2.0000      -0.464798       -12.6478 
  66   2.0000      -0.454393       -12.3647 
  67   2.0000      -0.445529       -12.1235 
  68   2.0000      -0.439689       -11.9645 
  69   2.0000      -0.434140       -11.8135 
  70   2.0000      -0.423323       -11.5192 
  71   2.0000      -0.411149       -11.1879 
  72   2.0000      -0.406132       -11.0514 
  73   2.0000      -0.397116       -10.8061 
  74   2.0000      -0.393418       -10.7054 
  75   2.0000      -0.384937       -10.4747 
  76   2.0000      -0.382252       -10.4016 
  77   2.0000      -0.371864       -10.1189 
  78   2.0000      -0.363697        -9.8967 
  79   2.0000      -0.363121        -9.8810 
  80   2.0000      -0.354088        -9.6352 
  81   2.0000      -0.352895        -9.6028 
  82   2.0000      -0.351845        -9.5742 
  83   2.0000      -0.348632        -9.4868 
  84   2.0000      -0.345183        -9.3929 
  85   2.0000      -0.331343        -9.0163 
  86   2.0000      -0.322086        -8.7644 
  87   2.0000      -0.313095        -8.5198 
  88   2.0000      -0.308484        -8.3943 
  89   2.0000      -0.304280        -8.2799 
  90   2.0000      -0.299735        -8.1562 
  91   2.0000      -0.291229        -7.9248 
  92   2.0000      -0.282851        -7.6968 
  93   2.0000      -0.278478        -7.5778 
  94   2.0000      -0.274665        -7.4740 
  95   2.0000      -0.250887        -6.8270 
  96   2.0000      -0.238413        -6.4875 
  97   2.0000      -0.236687        -6.4406 
  98   2.0000      -0.227524        -6.1912 
  99   2.0000      -0.224037        -6.0964 
 100   2.0000      -0.220613        -6.0032 
 101   0.0000      -0.051440        -1.3997 
 102   0.0000      -0.030967        -0.8427 
 103   0.0000      -0.005694        -0.1549 
 104   0.0000      -0.002917        -0.0794 
 105   0.0000       0.013778         0.3749 
 106   0.0000       0.025929         0.7056 
 107   0.0000       0.030963         0.8425 
 108   0.0000       0.037597         1.0231 
 109   0.0000       0.044063         1.1990 
 110   0.0000       0.062046         1.6884 
 111   0.0000       0.080620         2.1938 
*Only the first 10 virtual orbitals were printed.

                    ********************************
                    * MULLIKEN POPULATION ANALYSIS *
                    ********************************

-----------------------
MULLIKEN ATOMIC CHARGES
-----------------------
   0 C :   -0.484286
   1 C :   -0.147707
   2 O :   -0.282441
   3 P :    0.727578
   4 S :   -0.536943
   5 O :   -0.313531
   6 C :   -0.146900
   7 C :   -0.483428
   8 S :   -0.153843
   9 C :   -0.247025
  10 S :   -0.161034
  11 P :    0.664685
  12 S :   -0.497836
  13 O :   -0.292181
  14 C :   -0.088178
  15 C :   -0.532211
  16 O :   -0.307396
  17 C :   -0.161491
  18 C :   -0.478575
  19 H :    0.168800
  20 H :    0.170327
  21 H :    0.172966
  22 H :    0.180669
  23 H :    0.178115
  24 H :    0.172377
  25 H :    0.172258
  26 H :    0.169797
  27 H :    0.166435
  28 H :    0.166241
  29 H :    0.233609
  30 H :    0.232621
  31 H :    0.175510
  32 H :    0.181542
  33 H :    0.170493
  34 H :    0.171274
  35 H :    0.168835
  36 H :    0.176369
  37 H :    0.179762
  38 H :    0.168049
  39 H :    0.172741
  40 H :    0.173957
Sum of atomic charges:    0.0000000

--------------------------------
MULLIKEN REDUCED ORBITAL CHARGES
--------------------------------
  0 C s       :     3.336220  s :     3.336220
      pz      :     1.100313  p :     3.122334
      px      :     0.937919
      py      :     1.084102
      dz2     :     0.006648  d :     0.025732
      dxz     :     0.003891
      dyz     :     0.002287
      dx2y2   :     0.006770
      dxy     :     0.006136

  1 C s       :     3.292564  s :     3.292564
      pz      :     0.681631  p :     2.801360
      px      :     1.008361
      py      :     1.111368
      dz2     :     0.016683  d :     0.053783
      dxz     :     0.012655
      dyz     :     0.008967
      dx2y2   :     0.008458
      dxy     :     0.007020

  2 O s       :     3.733390  s :     3.733390
      pz      :     1.137431  p :     4.525771
      px      :     1.714793
      py      :     1.673546
      dz2     :    -0.013930  d :     0.023280
      dxz     :     0.012283
      dyz     :     0.006332
      dx2y2   :     0.006984
      dxy     :     0.011610

  3 P s       :     5.124832  s :     5.124832
      pz      :     2.808539  p :     8.424719
      px      :     2.785919
      py      :     2.830261
      dz2     :     0.112712  d :     0.722871
      dxz     :     0.117725
      dyz     :     0.176119
      dx2y2   :     0.141114
      dxy     :     0.175201

  4 S s       :     5.908229  s :     5.908229
      pz      :     3.672780  p :    10.560960
      px      :     3.682842
      py      :     3.205338
      dz2     :     0.009190  d :     0.067755
      dxz     :     0.004067
      dyz     :     0.016922
      dx2y2   :     0.021907
      dxy     :     0.015667

  5 O s       :     3.743499  s :     3.743499
      pz      :     1.598586  p :     4.538799
      px      :     1.279267
      py      :     1.660946
      dz2     :     0.012338  d :     0.031232
      dxz     :     0.002870
      dyz     :     0.005138
      dx2y2   :    -0.001887
      dxy     :     0.012773

  6 C s       :     3.299630  s :     3.299630
      pz      :     0.939377  p :     2.793298
      px      :     0.811634
      py      :     1.042287
      dz2     :     0.013574  d :     0.053972
      dxz     :     0.014154
      dyz     :     0.004353
      dx2y2   :     0.012090
      dxy     :     0.009801

  7 C s       :     3.336896  s :     3.336896
      pz      :     1.096101  p :     3.120890
      px      :     0.975740
      py      :     1.049049
      dz2     :     0.006092  d :     0.025642
      dxz     :     0.006141
      dyz     :     0.001611
      dx2y2   :     0.006418
      dxy     :     0.005381

  8 S s       :     5.906815  s :     5.906815
      pz      :     3.442671  p :    10.140426
      px      :     3.283906
      py      :     3.413849
      dz2     :     0.019204  d :     0.106602
      dxz     :     0.028760
      dyz     :     0.016398
      dx2y2   :     0.018032
      dxy     :     0.024207

  9 C s       :     3.189209  s :     3.189209
      pz      :     1.028326  p :     3.021900
      px      :     1.004013
      py      :     0.989560
      dz2     :     0.007449  d :     0.035916
      dxz     :     0.009966
      dyz     :     0.004184
      dx2y2   :     0.005598
      dxy     :     0.008718

 10 S s       :     5.914121  s :     5.914121
      pz      :     3.318266  p :    10.142497
      px      :     3.343847
      py      :     3.480384
      dz2     :     0.020888  d :     0.104416
      dxz     :     0.028820
      dyz     :     0.019892
      dx2y2   :     0.013532
      dxy     :     0.021284

 11 P s       :     5.176735  s :     5.176735
      pz      :     2.811980  p :     8.442629
      px      :     2.788646
      py      :     2.842004
      dz2     :     0.123915  d :     0.715950
      dxz     :     0.177662
      dyz     :     0.169879
      dx2y2   :     0.128781
      dxy     :     0.115713

 12 S s       :     5.894756  s :     5.894756
      pz      :     3.161552  p :    10.538361
      px      :     3.672437
      py      :     3.704372
      dz2     :     0.031172  d :     0.064719
      dxz     :     0.016354
      dyz     :     0.012513
      dx2y2   :     0.002397
      dxy     :     0.002283

 13 O s       :     3.731592  s :     3.731592
      pz      :     1.375458  p :     4.546026
      px      :     1.702278
      py      :     1.468290
      dz2     :     0.002343  d :     0.014563
      dxz     :     0.002520
      dyz     :    -0.003361
      dx2y2   :     0.008302
      dxy     :     0.004758

 14 C s       :     3.269178  s :     3.269178
      pz      :     0.722753  p :     2.765468
      px      :     1.035420
      py      :     1.007295
      dz2     :     0.015153  d :     0.053533
      dxz     :     0.008510
      dyz     :     0.013802
      dx2y2   :     0.008490
      dxy     :     0.007578

 15 C s       :     3.375741  s :     3.375741
      pz      :     1.096949  p :     3.130834
      px      :     1.021021
      py      :     1.012864
      dz2     :     0.005111  d :     0.025636
      dxz     :     0.002348
      dyz     :     0.006025
      dx2y2   :     0.005841
      dxy     :     0.006311

 16 O s       :     3.735705  s :     3.735705
      pz      :     1.661654  p :     4.541701
      px      :     1.199670
      py      :     1.680377
      dz2     :    -0.001417  d :     0.029990
      dxz     :     0.010962
      dyz     :     0.005405
      dx2y2   :     0.003581
      dxy     :     0.011458

 17 C s       :     3.301213  s :     3.301213
      pz      :     1.131277  p :     2.805843
      px      :     0.783993
      py      :     0.890573
      dz2     :     0.008865  d :     0.054435
      dxz     :     0.010868
      dyz     :     0.006736
      dx2y2   :     0.012918
      dxy     :     0.015049

 18 C s       :     3.324114  s :     3.324114
      pz      :     1.087424  p :     3.128787
      px      :     1.118405
      py      :     0.922957
      dz2     :     0.005312  d :     0.025675
      dxz     :     0.005250
      dyz     :     0.004193
      dx2y2   :     0.005961
      dxy     :     0.004959

 19 H s       :     0.812756  s :     0.812756
      pz      :     0.005128  p :     0.018444
      px      :     0.006948
      py      :     0.006368

 20 H s       :     0.811461  s :     0.811461
      pz      :     0.003958  p :     0.018213
      px      :     0.003870
      py      :     0.010384

 21 H s       :     0.808523  s :     0.808523
      pz      :     0.011174  p :     0.018510
      px      :     0.003562
      py      :     0.003774

 22 H s       :     0.801724  s :     0.801724
      pz      :     0.004028  p :     0.017607
      px      :     0.007503
      py      :     0.006076

 23 H s       :     0.803951  s :     0.803951
      pz      :     0.002458  p :     0.017934
      px      :     0.003645
      py      :     0.011832

 24 H s       :     0.809477  s :     0.809477
      pz      :     0.002974  p :     0.018146
      px      :     0.003076
      py      :     0.012097

 25 H s       :     0.810168  s :     0.810168
      pz      :     0.010743  p :     0.017574
      px      :     0.003400
      py      :     0.003431

 26 H s       :     0.811702  s :     0.811702
      pz      :     0.006728  p :     0.018501
      px      :     0.007669
      py      :     0.004105

 27 H s       :     0.815259  s :     0.815259
      pz      :     0.003676  p :     0.018306
      px      :     0.003681
      py      :     0.010949

 28 H s       :     0.815484  s :     0.815484
      pz      :     0.010258  p :     0.018275
      px      :     0.004271
      py      :     0.003746

 29 H s       :     0.746938  s :     0.746938
      pz      :     0.003578  p :     0.019453
      px      :     0.006434
      py      :     0.009441

 30 H s       :     0.747945  s :     0.747945
      pz      :     0.009278  p :     0.019434
      px      :     0.006775
      py      :     0.003381

 31 H s       :     0.806410  s :     0.806410
      pz      :     0.005912  p :     0.018080
      px      :     0.003370
      py      :     0.008797

 32 H s       :     0.800866  s :     0.800866
      pz      :     0.002185  p :     0.017592
      px      :     0.010969
      py      :     0.004437

 33 H s       :     0.811185  s :     0.811185
      pz      :     0.003567  p :     0.018322
      px      :     0.010077
      py      :     0.004679

 34 H s       :     0.810257  s :     0.810257
      pz      :     0.010074  p :     0.018470
      px      :     0.003931
      py      :     0.004465

 35 H s       :     0.812887  s :     0.812887
      pz      :     0.006547  p :     0.018279
      px      :     0.003547
      py      :     0.008185

 36 H s       :     0.806079  s :     0.806079
      pz      :     0.007381  p :     0.017552
      px      :     0.006314
      py      :     0.003857

 37 H s       :     0.802496  s :     0.802496
      pz      :     0.010857  p :     0.017742
      px      :     0.003617
      py      :     0.003267

 38 H s       :     0.813715  s :     0.813715
      pz      :     0.009306  p :     0.018236
      px      :     0.005190
      py      :     0.003740

 39 H s       :     0.808727  s :     0.808727
      pz      :     0.003714  p :     0.018532
      px      :     0.009261
      py      :     0.005556

 40 H s       :     0.807504  s :     0.807504
      pz      :     0.007722  p :     0.018540
      px      :     0.006472
      py      :     0.004345


------------------------
MULLIKEN OVERLAP CHARGES
------------------------
B(  0-C ,  1-C ) :   0.3684 B(  0-C ,  2-O ) :  -0.1520 B(  0-C ,  5-O ) :   0.0500 
B(  0-C , 19-H ) :   0.8229 B(  0-C , 20-H ) :   0.8228 B(  0-C , 21-H ) :   0.7938 
B(  0-C , 23-H ) :  -0.0967 B(  1-C ,  2-O ) :   0.2535 B(  1-C ,  3-P ) :  -0.1659 
B(  1-C , 19-H ) :  -0.0729 B(  1-C , 20-H ) :  -0.0721 B(  1-C , 21-H ) :  -0.0610 
B(  1-C , 22-H ) :   0.8050 B(  1-C , 23-H ) :   0.8597 B(  2-O ,  3-P ) :   0.6075 
B(  2-O ,  4-S ) :  -0.0874 B(  2-O ,  5-O ) :  -0.2098 B(  2-O ,  8-S ) :  -0.1410 
B(  2-O , 14-C ) :   0.0530 B(  2-O , 22-H ) :  -0.0965 B(  2-O , 23-H ) :  -0.0701 
B(  3-P ,  4-S ) :   1.1874 B(  3-P ,  5-O ) :   0.5568 B(  3-P ,  6-C ) :  -0.1623 
B(  3-P ,  8-S ) :   0.7546 B(  3-P ,  9-C ) :  -0.1001 B(  4-S ,  5-O ) :  -0.0868 
B(  4-S ,  8-S ) :  -0.1067 B(  5-O ,  6-C ) :   0.2775 B(  5-O ,  7-C ) :  -0.1105 
B(  5-O ,  8-S ) :  -0.1065 B(  5-O , 24-H ) :  -0.0856 B(  5-O , 25-H ) :  -0.0759 
B(  6-C ,  7-C ) :   0.4995 B(  6-C , 24-H ) :   0.8402 B(  6-C , 25-H ) :   0.7739 
B(  6-C , 26-H ) :  -0.0645 B(  6-C , 27-H ) :  -0.0616 B(  6-C , 28-H ) :  -0.0724 
B(  7-C , 24-H ) :  -0.0501 B(  7-C , 26-H ) :   0.8061 B(  7-C , 27-H ) :   0.8279 
B(  7-C , 28-H ) :   0.8352 B(  8-S ,  9-C ) :   0.3840 B(  8-S , 10-S ) :  -0.1680 
B(  8-S , 29-H ) :  -0.0571 B(  8-S , 30-H ) :  -0.0766 B(  9-C , 10-S ) :   0.3694 
B(  9-C , 11-P ) :  -0.1059 B(  9-C , 29-H ) :   0.7968 B(  9-C , 30-H ) :   0.8004 
B( 10-S , 11-P ) :   0.6472 B( 10-S , 12-S ) :  -0.1108 B( 10-S , 13-O ) :  -0.1305 
B( 10-S , 16-O ) :  -0.0750 B( 10-S , 29-H ) :  -0.0773 B( 10-S , 30-H ) :  -0.0615 
B( 11-P , 12-S ) :   1.3194 B( 11-P , 13-O ) :   0.6691 B( 11-P , 14-C ) :  -0.2392 
B( 11-P , 16-O ) :   0.4318 B( 11-P , 17-C ) :  -0.1501 B( 12-S , 13-O ) :  -0.1254 
B( 12-S , 16-O ) :  -0.0923 B( 13-O , 14-C ) :   0.2257 B( 13-O , 15-C ) :  -0.0819 
B( 13-O , 16-O ) :  -0.2191 B( 13-O , 31-H ) :  -0.0794 B( 13-O , 32-H ) :  -0.0800 
B( 14-C , 15-C ) :   0.4852 B( 14-C , 31-H ) :   0.8413 B( 14-C , 32-H ) :   0.7981 
B( 14-C , 33-H ) :  -0.0814 B( 14-C , 34-H ) :  -0.0725 B( 14-C , 35-H ) :  -0.0688 
B( 15-C , 31-H ) :  -0.0787 B( 15-C , 32-H ) :  -0.0537 B( 15-C , 33-H ) :   0.8384 
B( 15-C , 34-H ) :   0.8084 B( 15-C , 35-H ) :   0.8335 B( 16-O , 17-C ) :   0.3422 
B( 16-O , 18-C ) :  -0.1694 B( 16-O , 36-H ) :  -0.1018 B( 16-O , 37-H ) :  -0.0798 
B( 17-C , 18-C ) :   0.3833 B( 17-C , 36-H ) :   0.8003 B( 17-C , 37-H ) :   0.8875 
B( 17-C , 38-H ) :  -0.0632 B( 17-C , 40-H ) :  -0.0876 B( 18-C , 37-H ) :  -0.1216 
B( 18-C , 38-H ) :   0.8037 B( 18-C , 39-H ) :   0.7716 B( 18-C , 40-H ) :   0.8469 
B( 19-H , 20-H ) :  -0.0507 B( 24-H , 25-H ) :  -0.0663 B( 27-H , 28-H ) :  -0.0500 
B( 38-H , 40-H ) :  -0.0537 


                     *******************************
                     * LOEWDIN POPULATION ANALYSIS *
                     *******************************

----------------------
LOEWDIN ATOMIC CHARGES
----------------------
   0 C :   -0.402727
   1 C :    0.022438
   2 O :   -0.683200
   3 P :    0.378628
   4 S :   -0.164691
   5 O :   -0.676189
   6 C :    0.025051
   7 C :   -0.389253
   8 S :    0.159053
   9 C :   -0.420629
  10 S :    0.146136
  11 P :    0.386254
  12 S :   -0.141138
  13 O :   -0.674895
  14 C :    0.025317
  15 C :   -0.394762
  16 O :   -0.676153
  17 C :    0.028431
  18 C :   -0.411459
  19 H :    0.162973
  20 H :    0.164319
  21 H :    0.169237
  22 H :    0.191368
  23 H :    0.182659
  24 H :    0.181899
  25 H :    0.180141
  26 H :    0.169039
  27 H :    0.163476
  28 H :    0.162640
  29 H :    0.197125
  30 H :    0.196460
  31 H :    0.183752
  32 H :    0.192549
  33 H :    0.165472
  34 H :    0.168957
  35 H :    0.164305
  36 H :    0.191484
  37 H :    0.181911
  38 H :    0.163786
  39 H :    0.168476
  40 H :    0.161762

-------------------------------
LOEWDIN REDUCED ORBITAL CHARGES
-------------------------------
  0 C s       :     2.975158  s :     2.975158
      pz      :     1.142769  p :     3.367122
      px      :     1.068626
      py      :     1.155727
      dz2     :     0.016847  d :     0.060447
      dxz     :     0.008442
      dyz     :     0.005347
      dx2y2   :     0.015743
      dxy     :     0.014069

  1 C s       :     2.877177  s :     2.877177
      pz      :     0.798392  p :     2.980038
      px      :     1.073115
      py      :     1.108531
      dz2     :     0.037550  d :     0.120347
      dxz     :     0.028691
      dyz     :     0.020555
      dx2y2   :     0.019853
      dxy     :     0.013697

  2 O s       :     3.467469  s :     3.467469
      pz      :     1.371007  p :     4.732169
      px      :     1.685745
      py      :     1.675417
      dz2     :     0.147942  d :     0.483561
      dxz     :     0.120017
      dyz     :     0.124253
      dx2y2   :     0.045229
      dxy     :     0.046121

  3 P s       :     4.650114  s :     4.650114
      pz      :     2.785625  p :     8.392503
      px      :     2.744500
      py      :     2.862378
      dz2     :     0.262261  d :     1.578755
      dxz     :     0.317832
      dyz     :     0.327688
      dx2y2   :     0.318043
      dxy     :     0.352932

  4 S s       :     5.564523  s :     5.564523
      pz      :     3.605733  p :    10.461194
      px      :     3.607387
      py      :     3.248073
      dz2     :     0.020194  d :     0.138974
      dxz     :     0.008608
      dyz     :     0.031547
      dx2y2   :     0.050843
      dxy     :     0.027781

  5 O s       :     3.467489  s :     3.467489
      pz      :     1.612808  p :     4.736602
      px      :     1.460104
      py      :     1.663690
      dz2     :     0.095820  d :     0.472098
      dxz     :     0.106006
      dyz     :     0.053928
      dx2y2   :     0.105935
      dxy     :     0.110409

  6 C s       :     2.876593  s :     2.876593
      pz      :     0.982254  p :     2.977667
      px      :     0.919939
      py      :     1.075475
      dz2     :     0.032435  d :     0.120689
      dxz     :     0.030404
      dyz     :     0.008444
      dx2y2   :     0.027291
      dxy     :     0.022115

  7 C s       :     2.973904  s :     2.973904
      pz      :     1.155188  p :     3.355249
      px      :     1.069333
      py      :     1.130728
      dz2     :     0.014829  d :     0.060100
      dxz     :     0.014893
      dyz     :     0.003537
      dx2y2   :     0.014778
      dxy     :     0.012063

  8 S s       :     5.439503  s :     5.439503
      pz      :     3.422207  p :    10.102619
      px      :     3.265016
      py      :     3.415397
      dz2     :     0.047279  d :     0.298825
      dxz     :     0.083863
      dyz     :     0.039139
      dx2y2   :     0.053055
      dxy     :     0.075490

  9 C s       :     3.011010  s :     3.011010
      pz      :     1.116425  p :     3.326213
      px      :     1.112393
      py      :     1.097395
      dz2     :     0.018172  d :     0.083406
      dxz     :     0.024522
      dyz     :     0.008362
      dx2y2   :     0.011523
      dxy     :     0.020826

 10 S s       :     5.444415  s :     5.444415
      pz      :     3.350943  p :    10.107275
      px      :     3.315148
      py      :     3.441184
      dz2     :     0.064273  d :     0.302174
      dxz     :     0.085880
      dyz     :     0.053669
      dx2y2   :     0.032248
      dxy     :     0.066104

 11 P s       :     4.651842  s :     4.651842
      pz      :     2.880064  p :     8.387868
      px      :     2.739815
      py      :     2.767989
      dz2     :     0.341204  d :     1.574037
      dxz     :     0.358848
      dyz     :     0.300141
      dx2y2   :     0.266149
      dxy     :     0.307694

 12 S s       :     5.558139  s :     5.558139
      pz      :     3.215243  p :    10.448586
      px      :     3.598678
      py      :     3.634665
      dz2     :     0.075421  d :     0.134413
      dxz     :     0.027921
      dyz     :     0.021803
      dx2y2   :     0.003896
      dxy     :     0.005371

 13 O s       :     3.466200  s :     3.466200
      pz      :     1.482062  p :     4.738333
      px      :     1.676652
      py      :     1.579619
      dz2     :     0.117284  d :     0.470363
      dxz     :     0.090490
      dyz     :     0.121149
      dx2y2   :     0.070763
      dxy     :     0.070677

 14 C s       :     2.877293  s :     2.877293
      pz      :     0.828948  p :     2.977586
      px      :     1.081360
      py      :     1.067278
      dz2     :     0.035060  d :     0.119804
      dxz     :     0.016939
      dyz     :     0.033141
      dx2y2   :     0.016865
      dxy     :     0.017800

 15 C s       :     2.973706  s :     2.973706
      pz      :     1.138735  p :     3.360856
      px      :     1.116291
      py      :     1.105830
      dz2     :     0.012806  d :     0.060200
      dxz     :     0.004845
      dyz     :     0.014647
      dx2y2   :     0.013188
      dxy     :     0.014714

 16 O s       :     3.464649  s :     3.464649
      pz      :     1.674923  p :     4.740138
      px      :     1.419284
      py      :     1.645931
      dz2     :     0.077220  d :     0.471366
      dxz     :     0.131068
      dyz     :     0.039197
      dx2y2   :     0.116937
      dxy     :     0.106943

 17 C s       :     2.876022  s :     2.876022
      pz      :     1.112364  p :     2.973735
      px      :     0.874327
      py      :     0.987045
      dz2     :     0.021124  d :     0.121812
      dxz     :     0.026557
      dyz     :     0.011954
      dx2y2   :     0.029754
      dxy     :     0.032423

 18 C s       :     2.976756  s :     2.976756
      pz      :     1.157879  p :     3.374339
      px      :     1.165315
      py      :     1.051145
      dz2     :     0.012822  d :     0.060363
      dxz     :     0.013371
      dyz     :     0.008741
      dx2y2   :     0.013316
      dxy     :     0.012113

 19 H s       :     0.792505  s :     0.792505
      pz      :     0.012144  p :     0.044522
      px      :     0.016726
      py      :     0.015653

 20 H s       :     0.791740  s :     0.791740
      pz      :     0.009050  p :     0.043941
      px      :     0.008612
      py      :     0.026279

 21 H s       :     0.786133  s :     0.786133
      pz      :     0.028066  p :     0.044630
      px      :     0.008137
      py      :     0.008427

 22 H s       :     0.767798  s :     0.767798
      pz      :     0.007999  p :     0.040835
      px      :     0.017987
      py      :     0.014849

 23 H s       :     0.774700  s :     0.774700
      pz      :     0.005279  p :     0.042641
      px      :     0.008747
      py      :     0.028616

 24 H s       :     0.775348  s :     0.775348
      pz      :     0.007048  p :     0.042753
      px      :     0.006789
      py      :     0.028916

 25 H s       :     0.778458  s :     0.778458
      pz      :     0.024839  p :     0.041401
      px      :     0.008334
      py      :     0.008229

 26 H s       :     0.786477  s :     0.786477
      pz      :     0.016455  p :     0.044484
      px      :     0.018527
      py      :     0.009503

 27 H s       :     0.792730  s :     0.792730
      pz      :     0.008222  p :     0.043794
      px      :     0.008234
      py      :     0.027338

 28 H s       :     0.793527  s :     0.793527
      pz      :     0.025801  p :     0.043833
      px      :     0.009526
      py      :     0.008506

 29 H s       :     0.753735  s :     0.753735
      pz      :     0.008631  p :     0.049139
      px      :     0.015738
      py      :     0.024770

 30 H s       :     0.754422  s :     0.754422
      pz      :     0.024458  p :     0.049118
      px      :     0.016733
      py      :     0.007927

 31 H s       :     0.773921  s :     0.773921
      pz      :     0.012751  p :     0.042327
      px      :     0.007663
      py      :     0.021914

 32 H s       :     0.766640  s :     0.766640
      pz      :     0.004577  p :     0.040811
      px      :     0.026176
      py      :     0.010058

 33 H s       :     0.790036  s :     0.790036
      pz      :     0.007920  p :     0.044492
      px      :     0.025356
      py      :     0.011216

 34 H s       :     0.786496  s :     0.786496
      pz      :     0.025088  p :     0.044547
      px      :     0.009185
      py      :     0.010273

 35 H s       :     0.791830  s :     0.791830
      pz      :     0.016045  p :     0.043865
      px      :     0.007986
      py      :     0.019834

 36 H s       :     0.767908  s :     0.767908
      pz      :     0.018042  p :     0.040609
      px      :     0.013224
      py      :     0.009342

 37 H s       :     0.775899  s :     0.775899
      pz      :     0.026202  p :     0.042190
      px      :     0.007879
      py      :     0.008109

 38 H s       :     0.792269  s :     0.792269
      pz      :     0.023514  p :     0.043945
      px      :     0.012205
      py      :     0.008226

 39 H s       :     0.786827  s :     0.786827
      pz      :     0.008209  p :     0.044697
      px      :     0.023364
      py      :     0.013124

 40 H s       :     0.793439  s :     0.793439
      pz      :     0.019461  p :     0.044799
      px      :     0.015374
      py      :     0.009964


---------------------------------
LOEWDIN BOND ORDERS (THRESH 0.050000)
---------------------------------
B(  0-C ,  1-C ) :   1.0954 B(  0-C ,  2-O ) :   0.1555 B(  0-C , 19-H ) :   0.9137 
B(  0-C , 20-H ) :   0.9206 B(  0-C , 21-H ) :   0.9117 B(  1-C ,  2-O ) :   1.2817 
B(  1-C ,  3-P ) :   0.0979 B(  1-C , 21-H ) :   0.0508 B(  1-C , 22-H ) :   0.8224 
B(  1-C , 23-H ) :   0.8258 B(  2-O ,  3-P ) :   1.5748 B(  2-O ,  4-S ) :   0.1832 
B(  2-O ,  5-O ) :   0.2172 B(  2-O ,  8-S ) :   0.1575 B(  2-O , 22-H ) :   0.0997 
B(  2-O , 23-H ) :   0.0965 B(  3-P ,  4-S ) :   1.9913 B(  3-P ,  5-O ) :   1.5733 
B(  3-P ,  6-C ) :   0.1016 B(  3-P ,  8-S ) :   1.2414 B(  3-P ,  9-C ) :   0.0933 
B(  4-S ,  5-O ) :   0.1797 B(  4-S ,  8-S ) :   0.1494 B(  4-S ,  9-C ) :   0.0531 
B(  5-O ,  6-C ) :   1.2797 B(  5-O ,  7-C ) :   0.1751 B(  5-O ,  8-S ) :   0.1510 
B(  5-O , 24-H ) :   0.0968 B(  5-O , 25-H ) :   0.0972 B(  6-C ,  7-C ) :   1.0909 
B(  6-C , 24-H ) :   0.8236 B(  6-C , 25-H ) :   0.8313 B(  6-C , 26-H ) :   0.0502 
B(  7-C , 26-H ) :   0.9136 B(  7-C , 27-H ) :   0.9200 B(  7-C , 28-H ) :   0.9217 
B(  8-S ,  9-C ) :   1.2925 B(  8-S , 10-S ) :   0.2138 B(  8-S , 29-H ) :   0.0604 
B(  8-S , 30-H ) :   0.0561 B(  9-C , 10-S ) :   1.3104 B(  9-C , 11-P ) :   0.0911 
B(  9-C , 12-S ) :   0.0536 B(  9-C , 29-H ) :   0.8332 B(  9-C , 30-H ) :   0.8334 
B( 10-S , 11-P ) :   1.1897 B( 10-S , 12-S ) :   0.1457 B( 10-S , 13-O ) :   0.1617 
B( 10-S , 16-O ) :   0.1418 B( 10-S , 29-H ) :   0.0569 B( 10-S , 30-H ) :   0.0618 
B( 11-P , 12-S ) :   2.0360 B( 11-P , 13-O ) :   1.5850 B( 11-P , 14-C ) :   0.0977 
B( 11-P , 16-O ) :   1.5661 B( 11-P , 17-C ) :   0.0939 B( 12-S , 13-O ) :   0.1759 
B( 12-S , 16-O ) :   0.1796 B( 13-O , 14-C ) :   1.2751 B( 13-O , 15-C ) :   0.1614 
B( 13-O , 16-O ) :   0.2165 B( 13-O , 31-H ) :   0.0949 B( 13-O , 32-H ) :   0.0981 
B( 14-C , 15-C ) :   1.0965 B( 14-C , 31-H ) :   0.8196 B( 14-C , 32-H ) :   0.8205 
B( 14-C , 34-H ) :   0.0512 B( 15-C , 33-H ) :   0.9151 B( 15-C , 34-H ) :   0.9116 
B( 15-C , 35-H ) :   0.9184 B( 16-O , 17-C ) :   1.2965 B( 16-O , 18-C ) :   0.1544 
B( 16-O , 36-H ) :   0.1009 B( 16-O , 37-H ) :   0.0978 B( 17-C , 18-C ) :   1.0948 
[...]
                  18.86641  18.90121  19.05647  19.17437  21.91848  21.96986
                   0.00000   0.00000   0.00000   0.00000   0.00000   0.00000
                  --------  --------  --------  --------  --------  --------
 0 C  s               0.0       0.0       0.0       0.0       1.8       0.0
 1 C  s               0.1       0.0       0.0       0.0       2.0       0.8
 3 P  s               0.2       0.0       0.0       0.1       0.0       0.0
 3 P  py              0.2       0.0       0.0       0.0       0.0       0.0
 4 S  s              94.4       0.1       1.1       3.3       0.0       0.0
 4 S  py              0.1       0.0       0.0       0.0       0.0       0.0
 6 C  s               0.0       0.0       0.0       0.0      11.8       0.0
 7 C  s               0.0       0.0       0.0       0.0      83.6       0.0
 8 S  s               0.1       0.2      62.8      35.8       0.0       0.0
 9 C  s               0.0       0.0       0.0       1.0       0.3       0.0
10 S  s               4.4       2.1      35.1      57.2       0.0       0.0
11 P  s               0.0       0.1       0.0       0.1       0.0       0.0
11 P  pz              0.0       0.3       0.0       0.0       0.0       0.0
12 S  s               0.0      96.5       0.3       2.1       0.0       0.0
12 S  pz              0.0       0.2       0.0       0.0       0.0       0.0
14 C  s               0.0       0.1       0.0       0.0       0.0       0.6
15 C  s               0.0       0.0       0.0       0.0       0.0      95.6
17 C  s               0.0       0.0       0.0       0.0       0.0       0.8
18 C  s               0.0       0.0       0.0       0.0       0.0       1.7

                    528       529       530       531       532       533   
                  21.98393  21.99716  22.03557  22.05033  22.06226  22.08170
                   0.00000   0.00000   0.00000   0.00000   0.00000   0.00000
                  --------  --------  --------  --------  --------  --------
 0 C  s              94.6       0.2       0.2       1.7       0.7       0.0
 1 C  s               0.4       0.1      10.1       0.4       5.0      16.7
 6 C  s               2.8       0.0      43.5      25.3      13.2       0.6
 7 C  s               0.6       0.0      11.7       2.6       0.8       0.0
 9 C  s               1.0       0.2      33.4      33.6      18.1       2.0
14 C  s               0.0       0.0       0.1      10.4      15.5      53.9
15 C  s               0.0       2.0       0.2       0.6       0.3       0.0
17 C  s               0.0       1.2       0.2      24.5      44.9      26.1
18 C  s               0.2      96.0       0.1       0.3       1.2       0.2

                    534       535       536       537       538   
                  22.09914  43.80360  43.81629  43.86151  43.90596
                   0.00000   0.00000   0.00000   0.00000   0.00000
                  --------  --------  --------  --------  --------
 0 C  s               0.5       0.0       0.0       0.0       0.0
 1 C  s              64.1       0.0       0.0       0.0       0.0
 2 O  s               0.0       0.2       6.0      47.5      46.2
 5 O  s               0.0      11.3      82.6       3.8       2.3
 6 C  s               2.4       0.0       0.0       0.0       0.0
 7 C  s               0.3       0.0       0.0       0.0       0.0
 9 C  s              10.6       0.0       0.0       0.0       0.0
13 O  s               0.0       1.7       0.0      48.3      49.9
14 C  s              18.9       0.0       0.0       0.0       0.0
15 C  s               0.9       0.0       0.0       0.0       0.0
16 O  s               0.0      86.8      11.3       0.3       1.5
17 C  s               1.8       0.0       0.0       0.0       0.0


                      *****************************
                      * MAYER POPULATION ANALYSIS *
                      *****************************

  NA   - Mulliken gross atomic population
  ZA   - Total nuclear charge
  QA   - Mulliken gross atomic charge
  VA   - Mayer's total valence
  BVA  - Mayer's bonded valence
  FA   - Mayer's free valence

  ATOM       NA         ZA         QA         VA         BVA        FA
  0 C      6.4843     6.0000    -0.4843     3.7789     3.7789     0.0000
  1 C      6.1477     6.0000    -0.1477     3.5973     3.5973    -0.0000
  2 O      8.2824     8.0000    -0.2824     1.8475     1.8475    -0.0000
  3 P     14.2724    15.0000     0.7276     5.1348     5.1348    -0.0000
  4 S     16.5369    16.0000    -0.5369     1.9818     1.9818     0.0000
  5 O      8.3135     8.0000    -0.3135     1.8493     1.8493    -0.0000
  6 C      6.1469     6.0000    -0.1469     3.6386     3.6386    -0.0000
  7 C      6.4834     6.0000    -0.4834     3.8458     3.8458     0.0000
  8 S     16.1538    16.0000    -0.1538     2.1974     2.1974     0.0000
  9 C      6.2470     6.0000    -0.2470     3.6806     3.6806    -0.0000
 10 S     16.1610    16.0000    -0.1610     2.1600     2.1600    -0.0000
 11 P     14.3353    15.0000     0.6647     5.1399     5.1399     0.0000
 12 S     16.4978    16.0000    -0.4978     2.0250     2.0250     0.0000
 13 O      8.2922     8.0000    -0.2922     1.7775     1.7775     0.0000
 14 C      6.0882     6.0000    -0.0882     3.5855     3.5855     0.0000
 15 C      6.5322     6.0000    -0.5322     3.8309     3.8309     0.0000
 16 O      8.3074     8.0000    -0.3074     1.8005     1.8005     0.0000
 17 C      6.1615     6.0000    -0.1615     3.6759     3.6759    -0.0000
 18 C      6.4786     6.0000    -0.4786     3.7352     3.7352     0.0000
 19 H      0.8312     1.0000     0.1688     0.9581     0.9581    -0.0000
 20 H      0.8297     1.0000     0.1703     0.9569     0.9569     0.0000
 21 H      0.8270     1.0000     0.1730     0.9571     0.9571     0.0000
 22 H      0.8193     1.0000     0.1807     0.9444     0.9444    -0.0000
 23 H      0.8219     1.0000     0.1781     0.9514     0.9514    -0.0000
 24 H      0.8276     1.0000     0.1724     0.9493     0.9493     0.0000
 25 H      0.8277     1.0000     0.1723     0.9416     0.9416     0.0000
 26 H      0.8302     1.0000     0.1698     0.9579     0.9579     0.0000
 27 H      0.8336     1.0000     0.1664     0.9568     0.9568     0.0000
 28 H      0.8338     1.0000     0.1662     0.9568     0.9568     0.0000
 29 H      0.7664     1.0000     0.2336     0.9415     0.9415    -0.0000
 30 H      0.7674     1.0000     0.2326     0.9415     0.9415    -0.0000
 31 H      0.8245     1.0000     0.1755     0.9530     0.9530     0.0000
 32 H      0.8185     1.0000     0.1815     0.9430     0.9430     0.0000
 33 H      0.8295     1.0000     0.1705     0.9568     0.9568    -0.0000
 34 H      0.8287     1.0000     0.1713     0.9567     0.9567    -0.0000
 35 H      0.8312     1.0000     0.1688     0.9561     0.9561    -0.0000
 36 H      0.8236     1.0000     0.1764     0.9439     0.9439    -0.0000
 37 H      0.8202     1.0000     0.1798     0.9479     0.9479     0.0000
 38 H      0.8320     1.0000     0.1680     0.9556     0.9556    -0.0000
 39 H      0.8273     1.0000     0.1727     0.9576     0.9576    -0.0000
 40 H      0.8260     1.0000     0.1740     0.9561     0.9561     0.0000

  Mayer bond orders larger than 0.100000
B(  0-C ,  1-C ) :   0.9125 B(  0-C , 19-H ) :   0.9591 B(  0-C , 20-H ) :   0.9708 
B(  0-C , 21-H ) :   0.9562 B(  1-C ,  2-O ) :   0.7649 B(  1-C , 22-H ) :   0.9498 
B(  1-C , 23-H ) :   0.9590 B(  2-O ,  3-P ) :   1.1604 B(  3-P ,  4-S ) :   1.6945 
B(  3-P ,  5-O ) :   1.1014 B(  3-P ,  8-S ) :   1.0887 B(  5-O ,  6-C ) :   0.7702 
B(  6-C ,  7-C ) :   0.9531 B(  6-C , 24-H ) :   0.9488 B(  6-C , 25-H ) :   0.9373 
B(  7-C , 26-H ) :   0.9584 B(  7-C , 27-H ) :   0.9689 B(  7-C , 28-H ) :   0.9687 
B(  8-S ,  9-C ) :   0.9037 B(  9-C , 10-S ) :   0.8978 B(  9-C , 29-H ) :   0.9013 
B(  9-C , 30-H ) :   0.9028 B( 10-S , 11-P ) :   1.0210 B( 11-P , 12-S ) :   1.8128 
B( 11-P , 13-O ) :   1.1477 B( 11-P , 16-O ) :   1.0472 B( 13-O , 14-C ) :   0.7223 
B( 14-C , 15-C ) :   0.9267 B( 14-C , 31-H ) :   0.9557 B( 14-C , 32-H ) :   0.9454 
B( 15-C , 33-H ) :   0.9696 B( 15-C , 34-H ) :   0.9587 B( 15-C , 35-H ) :   0.9725 
B( 16-O , 17-C ) :   0.8059 B( 17-C , 18-C ) :   0.9054 B( 17-C , 36-H ) :   0.9505 
B( 17-C , 37-H ) :   0.9675 B( 18-C , 38-H ) :   0.9642 B( 18-C , 39-H ) :   0.9510 
B( 18-C , 40-H ) :   0.9654 

-------
TIMINGS
-------

Total SCF time: 0 days 0 hours 1 min 41 sec 

Total time                  ....     101.973 sec
Sum of individual times     ....     101.377 sec  ( 99.4%)

SCF preparation             ....       0.957 sec  (  0.9%)
Fock matrix formation       ....      97.316 sec  ( 95.4%)
  Startup                   ....       0.150 sec  (  0.2% of F)
  Split-RI-J                ....      22.940 sec  ( 23.6% of F)
  XC integration            ....      43.283 sec  ( 44.5% of F)
    XC Preparation          ....       0.000 sec  (  0.0% of XC)
    Basis function eval.    ....       6.776 sec  ( 15.7% of XC)
    Density eval.           ....      15.947 sec  ( 36.8% of XC)
    XC-Functional eval.     ....       3.114 sec  (  7.2% of XC)
    XC-Potential eval.      ....      16.172 sec  ( 37.4% of XC)
  CPCM terms                ....      29.481 sec  ( 30.3% of F)
Diagonalization             ....       0.000 sec  (  0.0%)
Density matrix formation    ....       0.826 sec  (  0.8%)
Total Energy calculation    ....       0.072 sec  (  0.1%)
Population analysis         ....       0.457 sec  (  0.4%)
Orbital Transformation      ....       0.232 sec  (  0.2%)
Orbital Orthonormalization  ....       0.000 sec  (  0.0%)
DIIS solution               ....       1.287 sec  (  1.3%)
  MO trafo                  ....       0.000 sec  (  0.0 % of DIIS)
  Orb grad                  ....       0.000 sec  (  0.0 % of DIIS)
  Energy W gradient         ....       0.000 sec  (  0.0 % of DIIS)
  DIIS error                ....       0.105 sec  (  8.2 % of DIIS)
  DIIS work                 ....       1.044 sec  ( 81.2 % of DIIS)
  Form Q                    ....       0.000 sec  (  0.0 % of DIIS)
  Form QpQm                 ....       0.000 sec  (  0.0 % of DIIS)
  Exp/Cayley                ....       0.000 sec  (  0.0 % of DIIS)
  Orb update                ....       0.000 sec  (  0.0 % of DIIS)
  Wake-sleep                ....       0.025 sec  (  1.9 % of DIIS)
SOSCF solution              ....       0.230 sec  (  0.2%)
  MO trafo                  ....       0.181 sec  ( 78.8 % of SOSCF)
  Orb grad                  ....       0.001 sec  (  0.5 % of SOSCF)
  Rot update                ....       0.000 sec  (  0.1 % of SOSCF)
  Step                      ....       0.047 sec  ( 20.6 % of SOSCF)
Finished LeanSCF after 102.2 sec

Maximum memory used throughout the entire LEANSCF-calculation: 132.0 MB


-------------------------------------------------------------------------------
                          DFT DISPERSION CORRECTION                            
                                                                               
                                DFTD4 V3.4.0                                   
-------------------------------------------------------------------------------
The R2SCAN3C composite method is recognized
Using three-body term ABC
Active option DFTDOPT                   ...         5   

-------------------------   ----------------
Dispersion correction           -0.021290011
-------------------------   ----------------

------------------   -----------------
gCP correction             0.046378702
------------------   -----------------

-------------------------   --------------------
FINAL SINGLE POINT ENERGY     -2932.474381283002
-------------------------   --------------------


------------------------------------------------------------------------------
                              ORCA PROPERTY CALCULATIONS
------------------------------------------------------------------------------

GBWName                                 ... sp_solv.gbw
Number of atoms                         ...     41
Number of basis functions               ...    539
Max core memory                         ...   1024 MB

Electric properties:
Dipole moment                           ... YES
Quadrupole moment                       ...  NO
Static polarizability (Dipole/Dipole)   ...  NO
Static polarizability (Dipole/Quad.)    ...  NO
Static polarizability (Quad./Quad.)     ...  NO
Static polarizability (Velocity)        ...  NO

Atomic electric properties:
Dipole moment                           ...  NO
Quadrupole moment                       ...  NO
Static polarizability                   ...  NO

Choice of electric origin               ... Center of mass
Position of electric origin             ...     0.000003    -0.000002     0.000005

General magnetic properties:
Magnetizability                         ...  NO

EPR properties:
g-Tensor (aka g-matrix)                 ...  NO
Zero-Field splitting spin-orbit         ...  NO
Zero-field splitting spin-spin          ...  NO
Hyperfine couplings                     ...  NO (   0 nuclei)
Quadrupole couplings                    ...  NO (   0 nuclei)
Contact density                         ...  NO (   0 nuclei)

NMR properties:
Chemical shifts                         ...  NO (   0 nuclei)
Spin-rotation constants                 ...  NO (   0 nuclei)
Spin-spin couplings                     ...  NO (   0 nuclei,    0 pairs)

Choice of magnetic origin               ... GIAO
Position of magnetic origin             ...     0.000000     0.000000     0.000000

Properties with geometric perturbations:
SCF Hessian                             ...  NO
IR spectrum                             ...  NO
VCD spectrum                            ...  NO
X-ray spectroscopy properties:
SCF XES/XAS/RIXS spectra                ...  NO


-------------
DIPOLE MOMENT
-------------

Method             : SCF
Type of density    : Electron Density
Multiplicity       :   1
Irrep              :   0
Energy             : -2932.4994699737767405 Eh
Relativity type    : 
Basis              : AO
                                X                 Y                 Z
Electronic contribution:     -5.058466723      -7.143168323     -14.162901518
Nuclear contribution   :      5.221157955       7.700771374      16.256323445
                        -----------------------------------------
Total Dipole Moment    :      0.162691232       0.557603051       2.093421926
                        -----------------------------------------
Magnitude (a.u.)       :      2.172511211
Magnitude (Debye)      :      5.522084651



--------------------
Rotational spectrum 
--------------------
 
Rotational constants in cm-1:             0.013201             0.004625             0.004385 
Rotational constants in MHz :           395.743293           138.668198           131.461254 

Dipole components along the rotational axes: 
x,y,z [a.u.] :    -0.331058    -2.037970     0.675932 
x,y,z [Debye]:    -0.841482    -5.180108     1.718083 

 

Dipole moment calculation done in   0.1 sec 

Maximum memory used throughout the entire PROP-calculation: 51.0 MB

--------------------------------
SUGGESTED CITATIONS FOR THIS RUN
--------------------------------

Below you find a list of papers that are relevant to this ORCA run
We neither can nor want to force you to cite these papers, but we appreciate if you do
You receive ORCA, which is the product of decades of hard work by many enthusiastic individuals, for free
The only thing we kindly ask in return is that you cite our papers,
We deeply appreciate it, if you show your appreciation for ORCA by not just citing the generic ORCA reference.

Please note that relegating all ORCA citations to the supporting information does *not* help us.
SI sections are not indexed - citations you put there will not count into any citation statistics
But we need these citations in order to attract the funding resources that allow us to do what we are doing

Therefore, if you are a happy ORCA user, please consider citing a few of the papers listed below in the main body of your paper

In addition to the list printed below, the program has created the file sp_solv.bibtex that contains the list in bibtex format
You can import this file easily into all common literature databanks and citation aid programs


List of essential papers. We consider these as the minimum necessary citations

  1. Neese,F.
     Software update: the ORCA program system, version 5.0
     WIRES Comput. Molec. Sci., 2022 12(1)e1606
     doi.org/10.1002/wcms.1606
  2. Grimme,S.; Hansen,A.; Ehlert,S.; Mewes,J.
     r2SCAN-3c: A 'Swiss army knife' composite electronic-structure method
     J. Chem. Phys., 2021 154 064103
     doi.org/10.1063/5.0040021

List of papers to cite with high priority. The work reported in these papers was absolutely
necessary for this run to complete.
Our perspective: the developers of density functionals and basis sets usually get cited in chemistry papers
Good! But without the algorithms to do something with them, the functionals or basis sets would not do anything.
Hence, in our opinion, the algorithm design and method developments papers are equally worthy of getting cited

  1. Neese,F.
     An improvement of the resolution of the identity approximation for the formation of the Coulomb matrix
     J. Comp. Chem., 2003 24(14)1740-1747
     doi.org/10.1002/jcc.10318
  2. Garcia-Rates,M.; Neese,F.
     Effect of the Solute Cavity on the Solvation Energy and its Derivatives within the Framework of the Gaussian Charge Scheme
     J. Comput. Chem., 2020 41 922-939
     doi.org/10.1002/jcc.26139
  3. Neese,F.
     The SHARK Integral Generation and Digestion System
     J. Comp. Chem., 2022  1-16
     doi.org/10.1002/jcc.26942
  4. Lehtola,S.; Steigemann,C.; Oliveira,M.; Marques,M.
     Recent developments in Libxc - A comprehensive library of functionals for density functional theory
     Software X, 2018 7 
     doi.org/10.1016/j.softx.2017.11.002
  5. Caldeweyher,E.; Bannwarth,C.; Grimme,S.
     Extension of the D3 dispersion coefficient model
     J. Chem. Phys., 2017 147 034112-XXXX
     doi.org/10.1063/1.4993215
  6. Caldeweyher,E.; Ehlert,S.; Hansen,A.; Neugebauer,H.; Spicher,S.; Bannwarth,C.; Grimme,S.
     A generally applicable atomic-charge dependent London dispersion correction
     J. Chem. Phys., 2019 150 154122-XXXX
     doi.org/10.1063/1.5090222
  7. Caldeweyher,E.; Mewes,J.; Ehlert,S.; Grimme,S.
     Extension and evaluation of the D4 London-dispersion model for periodic systems
     Phys. Chem. Chem. Phys., 2020 22(16)8499-8512
     doi.org/10.1039/D0CP00502A

List of suggested additional citations. These are papers that are important in the 'surrounding' of 
of this run, or papers that preceded the highly important papers. If you like your results we are grateful for a citation.

  1. Neese,F.
     The ORCA program system
     WIRES Comput. Molec. Sci., 2012 2(1)73-78
     doi.org/10.1002/wcms.81
  2. Neese,F.
     Software update: the ORCA program system, version 4.0
     WIRES Comput. Molec. Sci., 2018 8(1)1-6
     doi.org/10.1002/wcms.1327
  3. Neese,F.; Wennmohs,F.; Becker,U.; Riplinger,C.
     The ORCA quantum chemistry program package
     J. Chem. Phys., 2020 152 Art. No. L224108
     doi.org/10.1063/5.0004608

List of optional additional citations

  1. Neese,F.
     Approximate second-order SCF convergence for spin unrestricted wavefunctions
     Chem. Phys. Lett., 2000 325(1-3)93-98
     doi.org/10.1016/s0009-2614(00)00662-x

Timings for individual modules:

Sum of individual times          ...      106.048 sec (=   1.767 min)
Startup calculation              ...        2.943 sec (=   0.049 min)   2.8 %
SCF iterations                   ...      102.926 sec (=   1.715 min)  97.1 %
Property calculations            ...        0.178 sec (=   0.003 min)   0.2 %
                             ****ORCA TERMINATED NORMALLY****
TOTAL RUN TIME: 0 days 0 hours 1 minutes 46 seconds 833 msec
