      -----------------------------------------------------------      
     |                   =====================                   |     
     |                           x T B                           |     
     |                   =====================                   |     
     |                         S. Grimme                         |     
     |          Mulliken Center for Theoretical Chemistry        |     
     |                    University of Bonn                     |     
      -----------------------------------------------------------      

   * xtb version 6.7.1 (edcfbbe) compiled by 'albert@albert-system' on 2024-07-22

   xtb is free software: you can redistribute it and/or modify it under
   the terms of the GNU Lesser General Public License as published by
   the Free Software Foundation, either version 3 of the License, or
   (at your option) any later version.
   
   xtb is distributed in the hope that it will be useful,
   but WITHOUT ANY WARRANTY; without even the implied warranty of
   MERCHANTABILITY or FITNESS FOR A PARTICULAR PURPOSE.  See the
   GNU Lesser General Public License for more details.
   
   Cite this work as:
   * C. Bannwarth, E. Caldeweyher, S. Ehlert, A. Hansen, P. Pracht,
     J. Seibert, S. Spicher, S. Grimme, WIREs Comput. Mol. Sci., 2020, 11,
     e01493. DOI: 10.1002/wcms.1493
   
   for GFN2-xTB:
   * C. Bannwarth, S. Ehlert and S. Grimme., J. Chem. Theory Comput., 2019,
     15, 1652-1671. DOI: 10.1021/acs.jctc.8b01176
   for GFN1-xTB:
   * S. Grimme, C. Bannwarth, P. Shushkov, J. Chem. Theory Comput., 2017,
     13, 1989-2009. DOI: 10.1021/acs.jctc.7b00118
   for GFN0-xTB:
   * P. Pracht, E. Caldeweyher, S. Ehlert, S. Grimme, ChemRxiv, 2019, preprint.
     DOI: 10.26434/chemrxiv.8326202.v1
   for GFN-FF:
   * S. Spicher and S. Grimme, Angew. Chem. Int. Ed., 2020, 59, 15665-15673.
     DOI: 10.1002/anie.202004239
   
   for ALPB and GBSA implicit solvation:
   * S. Ehlert, M. Stahn, S. Spicher, S. Grimme, J. Chem. Theory Comput.,
     2021, 17, 4250-4261. DOI: 10.1021/acs.jctc.1c00471
   
   for ddCOSMO and CPCM-X implicit solvation:
   * M. Stahn, S. Ehlert, S. Grimme, J. Phys. Chem. A,
     2023, XX, XXXX-XXXX. DOI: 10.1021/acs.jpca.3c04382
   
   for DFT-D4:
   * E. Caldeweyher, C. Bannwarth and S. Grimme, J. Chem. Phys., 2017,
     147, 034112. DOI: 10.1063/1.4993215
   * E. Caldeweyher, S. Ehlert, A. Hansen, H. Neugebauer, S. Spicher,
     C. Bannwarth and S. Grimme, J. Chem. Phys., 2019, 150, 154122.
     DOI: 10.1063/1.5090222
   * E. Caldeweyher, J.-M. Mewes, S. Ehlert and S. Grimme, Phys. Chem. Chem. Phys.
     2020, 22, 8499-8512. DOI: 10.1039/D0CP00502A
   
   for sTDA-xTB:
   * S. Grimme and C. Bannwarth, J. Chem. Phys., 2016, 145, 054103.
     DOI: 10.1063/1.4959605
   
   in the mass-spec context:
   * V. Asgeirsson, C. Bauer and S. Grimme, Chem. Sci., 2017, 8, 4879.
     DOI: 10.1039/c7sc00601b
   * J. Koopman and S. Grimme, ACS Omega 2019, 4, 12, 15120-15133.
     DOI: 10.1021/acsomega.9b02011
   
   for metadynamics refer to:
   * S. Grimme, J. Chem. Theory Comput., 2019, 155, 2847-2862
     DOI: 10.1021/acs.jctc.9b00143
   
   for SPH calculations refer to:
   * S. Spicher and S. Grimme, J. Chem. Theory Comput., 2021, 17, 1701-1714
     DOI: 10.1021/acs.jctc.0c01306
   
   for ONIOM refer to:
   * C. Plett, A. Katbashev, S. Ehlert, S. Grimme, M. Bursch,
     Phys. Chem. Chem. Phys., 2023, 25, 17860-17868. DOI: 10.1039/D3CP02178E
   
   for DIPRO refer to:
   * J. Kohn, N. Gildemeister, S. Grimme, D. Fazzi, A. Hansen,
     J. Chem. Phys., 2023, just accepted.
   
   for PTB refer to:
   * S. Grimme, M. Mueller, A. Hansen, J. Chem. Phys., 2023, 158, 124111.
     DOI: 10.1063/5.0137838
   
   with help from (in alphabetical order)
   P. Atkinson, C. Bannwarth, F. Bohle, G. Brandenburg, E. Caldeweyher
   M. Checinski, S. Dohm, S. Ehlert, S. Ehrlich, I. Gerasimov, C. Hölzer
   A. Katbashev, J. Kohn, J. Koopman, C. Lavigne, S. Lehtola, F. März, M. Müller,
   F. Musil, H. Neugebauer, J. Pisarek, C. Plett, P. Pracht, F. Pultar,
   J. Seibert, P. Shushkov, S. Spicher, M. Stahn, M. Steiner, T. Strunk,
   J. Stückrath, T. Rose, and J. Unsleber
   
 * started run on 2025/04/09 at 07:31:36.768     
   ID    Z sym.   atoms
    1    6 C      1, 2, 4, 6, 7, 9, 12, 13, 18, 20
    2    8 O      3, 5, 10, 11, 17, 19
    3    1 H      8, 21-38
    4   16 S      14, 16
    5   15 P      15

           -------------------------------------------------
          |                Calculation Setup                |
           -------------------------------------------------

          program call               : /software/projects/pawsey0265/mwang1/xtb/bin/xtb gas.coord --gfn2 --sp --chrg 0 --norestart --parallel 1
          hostname                   : nid002043
          coordinate file            : gas.coord
          omp threads                :                     1


           -------------------------------------------------
          |                 G F N 2 - x T B                 |
           -------------------------------------------------

        Reference                      10.1021/acs.jctc.8b01176
      * Hamiltonian:
        H0-scaling (s, p, d)           1.850000    2.230000    2.230000
        zeta-weighting                 0.500000
      * Dispersion:
        s8                             2.700000
        a1                             0.520000
        a2                             5.000000
        s9                             5.000000
      * Repulsion:
        kExp                           1.500000    1.000000
        rExp                           1.000000
      * Coulomb:
        alpha                          2.000000
        third order                    shell-resolved
        anisotropic                    true
        a3                             3.000000
        a5                             4.000000
        cn-shift                       1.200000
        cn-exp                         4.000000
        max-rad                        5.000000


          ...................................................
          :                      SETUP                      :
          :.................................................:
          :  # basis functions                 113          :
          :  # atomic orbitals                 110          :
          :  # shells                           60          :
          :  # electrons                       112          :
          :  max. iterations                   250          :
          :  Hamiltonian                  GFN2-xTB          :
          :  restarted?                      false          :
          :  GBSA solvation                  false          :
          :  PC potential                    false          :
          :  electronic temp.          300.0000000     K    :
          :  accuracy                    1.0000000          :
          :  -> integral cutoff          0.2500000E+02      :
          :  -> integral neglect         0.1000000E-07      :
          :  -> SCF convergence          0.1000000E-05 Eh   :
          :  -> wf. convergence          0.1000000E-03 e    :
          :  Broyden damping             0.4000000          :
          :  net charge                          0          :
          :  unpaired electrons                  0          :
          ...................................................

 iter      E             dE          RMSdq      gap      omega  full diag
   1    -65.0392901 -0.650393E+02  0.595E+00    4.33       0.0  T
   2    -65.1983376 -0.159048E+00  0.345E+00    2.64       1.0  T
   3    -65.2074110 -0.907333E-02  0.142E+00    2.75       1.0  T
   4    -65.2150317 -0.762072E-02  0.446E-01    2.34       1.0  T
   5    -65.2168293 -0.179757E-02  0.224E-01    2.52       1.0  T
   6    -65.2169916 -0.162380E-03  0.889E-02    2.50       1.0  T
   7    -65.2170055 -0.138727E-04  0.350E-02    2.50       1.0  T
   8    -65.2170117 -0.614112E-05  0.178E-02    2.51       1.0  T
   9    -65.2170127 -0.108725E-05  0.362E-03    2.51       4.5  T
  10    -65.2170128 -0.701001E-07  0.211E-03    2.51       7.7  T
  11    -65.2170128 -0.539993E-08  0.413E-04    2.51      39.3  T
  12    -65.2170128 -0.766079E-09  0.188E-04    2.51      86.4  T

   *** convergence criteria satisfied after 12 iterations ***

         #    Occupation            Energy/Eh            Energy/eV
      -------------------------------------------------------------
         1        2.0000           -0.7661632             -20.8484
       ...           ...                  ...                  ...
        50        2.0000           -0.4429534             -12.0534
        51        2.0000           -0.4396284             -11.9629
        52        2.0000           -0.4320240             -11.7560
        53        2.0000           -0.4183904             -11.3850
        54        2.0000           -0.3911326             -10.6433
        55        2.0000           -0.3541418              -9.6367
        56        2.0000           -0.3505259              -9.5383 (HOMO)
        57                         -0.2584019              -7.0315 (LUMO)
        58                         -0.2410915              -6.5604
        59                         -0.2336308              -6.3574
        60                         -0.1992145              -5.4209
        61                         -0.1328425              -3.6148
       ...                                ...                  ...
       110                          1.3392860              36.4438
      -------------------------------------------------------------
                  HL-Gap            0.0921240 Eh            2.5068 eV
             Fermi-level           -0.3044639 Eh           -8.2849 eV

 SCC (total)                   0 d,  0 h,  0 min,  0.109 sec
 SCC setup                      ...        0 min,  0.000 sec (  0.430%)
 Dispersion                     ...        0 min,  0.000 sec (  0.440%)
 classical contributions        ...        0 min,  0.000 sec (  0.087%)
 integral evaluation            ...        0 min,  0.037 sec ( 33.882%)
 iterations                     ...        0 min,  0.036 sec ( 32.892%)
 molecular gradient             ...        0 min,  0.035 sec ( 31.918%)
 printout                       ...        0 min,  0.000 sec (  0.325%)

         :::::::::::::::::::::::::::::::::::::::::::::::::::::
         ::                     SUMMARY                     ::
         :::::::::::::::::::::::::::::::::::::::::::::::::::::
         :: total energy             -64.646438733085 Eh    ::
         :: gradient norm              0.047483236511 Eh/a0 ::
         :: HOMO-LUMO gap              2.506821512247 eV    ::
         ::.................................................::
         :: SCC energy               -65.215964547250 Eh    ::
         :: -> isotropic ES            0.147188029219 Eh    ::
         :: -> anisotropic ES         -0.012296056800 Eh    ::
         :: -> anisotropic XC          0.016795667255 Eh    ::
         :: -> dispersion             -0.043869573682 Eh    ::
         :: repulsion energy           0.569525814165 Eh    ::
         :: add. restraining           0.000000000000 Eh    ::
         :: total charge              -0.000000000000 e     ::
         :::::::::::::::::::::::::::::::::::::::::::::::::::::

           -------------------------------------------------
          |                Property Printout                |
           -------------------------------------------------

    * Orbital Energies and Occupations

         #    Occupation            Energy/Eh            Energy/eV
      -------------------------------------------------------------
         1        2.0000           -0.7661632             -20.8484
       ...           ...                  ...                  ...
        44        2.0000           -0.4732104             -12.8767
        45        2.0000           -0.4665342             -12.6950
        46        2.0000           -0.4635903             -12.6149
        47        2.0000           -0.4608836             -12.5413
        48        2.0000           -0.4554087             -12.3923
        49        2.0000           -0.4513110             -12.2808
        50        2.0000           -0.4429534             -12.0534
        51        2.0000           -0.4396284             -11.9629
        52        2.0000           -0.4320240             -11.7560
        53        2.0000           -0.4183904             -11.3850
        54        2.0000           -0.3911326             -10.6433
        55        2.0000           -0.3541418              -9.6367
        56        2.0000           -0.3505259              -9.5383 (HOMO)
        57                         -0.2584019              -7.0315 (LUMO)
        58                         -0.2410915              -6.5604
        59                         -0.2336308              -6.3574
        60                         -0.1992145              -5.4209
        61                         -0.1328425              -3.6148
        62                         -0.1212637              -3.2998
        63                         -0.0931446              -2.5346
        64                         -0.0425418              -1.1576
        65                         -0.0254197              -0.6917
        66                         -0.0167292              -0.4552
        67                         -0.0029505              -0.0803
       ...                                ...                  ...
       110                          1.3392860              36.4438
      -------------------------------------------------------------
                  HL-Gap            0.0921240 Eh            2.5068 eV
             Fermi-level           -0.3044639 Eh           -8.2849 eV

     #   Z          covCN         q      C6AA      α(0)
     1   6 C        3.751    -0.113    22.727     6.799
     2   6 C        3.695     0.072    19.544     6.324
     3   8 O        1.703    -0.232    17.852     5.705
     4   6 C        2.719     0.374    20.665     7.442
     5   8 O        0.930    -0.415    21.950     6.283
     6   6 C        3.829    -0.090    22.187     6.702
     7   6 C        3.854     0.010    20.379     6.421
     8   1 H        0.925     0.087     1.909     2.160
     9   6 C        2.759     0.368    20.770     7.463
    10   8 O        0.856    -0.394    21.558     6.225
    11   8 O        1.703    -0.270    18.470     5.802
    12   6 C        3.694     0.083    19.368     6.296
    13   6 C        3.751    -0.117    22.800     6.810
    14  16 S        1.962    -0.128   146.410    20.365
    15  15 P        3.894     0.396   143.811    21.542
    16  16 S        0.925    -0.450   159.005    21.328
    17   8 O        1.656    -0.211    17.531     5.652
    18   6 C        3.789     0.044    19.842     6.344
    19   8 O        1.658    -0.259    18.301     5.775
    20   6 C        3.815     0.037    19.947     6.357
    21   1 H        0.925     0.056     2.250     2.345
    22   1 H        0.925     0.058     2.223     2.331
    23   1 H        0.925     0.055     2.263     2.353
    24   1 H        0.924     0.080     1.977     2.199
    25   1 H        0.925     0.071     2.075     2.253
    26   1 H        0.924     0.096     1.823     2.112
    27   1 H        0.924     0.089     1.889     2.149
    28   1 H        0.924     0.066     2.131     2.283
    29   1 H        0.924     0.051     2.308     2.376
    30   1 H        0.925     0.059     2.209     2.324
    31   1 H        0.925     0.060     2.195     2.317
    32   1 H        0.925     0.061     2.192     2.315
    33   1 H        0.925     0.070     2.088     2.260
    34   1 H        0.925     0.068     2.107     2.270
    35   1 H        0.924     0.071     2.075     2.253
    36   1 H        0.925     0.073     2.048     2.238
    37   1 H        0.924     0.068     2.109     2.271
    38   1 H        0.925     0.057     2.234     2.337

 Mol. C6AA /au·bohr⁶  :      18377.165907
 Mol. C8AA /au·bohr⁸  :     515456.823434
 Mol. α(0) /au        :        208.782538


Wiberg/Mayer (AO) data.
largest (>0.10) Wiberg bond orders for each atom

 ---------------------------------------------------------------------------
     #   Z sym  total        # sym  WBO       # sym  WBO       # sym  WBO
 ---------------------------------------------------------------------------
     1   6 C    3.992 --     2 C    1.015    23 H    0.986    21 H    0.985
                            22 H    0.982
     2   6 C    3.906 --     1 C    1.015    25 H    0.971    24 H    0.966
                             3 O    0.913
     3   8 O    2.362 --     4 C    1.213     2 C    0.913     5 O    0.168
     4   6 C    3.920 --     5 O    1.656     3 O    1.213     6 C    0.974
     5   8 O    2.085 --     4 C    1.656     3 O    0.168    15 P    0.111
     6   6 C    3.993 --     7 C    1.001     4 C    0.974    26 H    0.948
                            27 H    0.947
     7   6 C    3.981 --     6 C    1.001    14 S    0.966     9 C    0.944
                             8 H    0.938
     8   1 H    0.990 --     7 C    0.938
     9   6 C    3.926 --    10 O    1.750    11 O    1.152     7 C    0.944
    10   8 O    2.058 --     9 C    1.750    11 O    0.172
    11   8 O    2.306 --     9 C    1.152    12 C    0.919    10 O    0.172
    12   6 C    3.916 --    13 C    1.020    29 H    0.969    28 H    0.969
                            11 O    0.919
    13   6 C    3.990 --    12 C    1.020    32 H    0.985    31 H    0.985
                            30 H    0.982
    14  16 S    2.262 --    15 P    0.970     7 C    0.966    16 S    0.143
    15  15 P    5.235 --    16 S    1.467    17 O    1.315    19 O    1.260
                            14 S    0.970     5 O    0.111
    16  16 S    1.808 --    15 P    1.467    14 S    0.143
    17   8 O    2.438 --    15 P    1.315    18 C    0.930
    18   6 C    3.909 --    34 H    0.980    33 H    0.977    35 H    0.973
                            17 O    0.930
    19   8 O    2.370 --    15 P    1.260    20 C    0.940
    20   6 C    3.918 --    38 H    0.981    36 H    0.979    37 H    0.975
                            19 O    0.940
    21   1 H    0.997 --     1 C    0.985
    22   1 H    0.996 --     1 C    0.982
    23   1 H    0.997 --     1 C    0.986
    24   1 H    0.993 --     2 C    0.966
    25   1 H    0.995 --     2 C    0.971
    26   1 H    0.991 --     6 C    0.948
    27   1 H    0.992 --     6 C    0.947
    28   1 H    0.996 --    12 C    0.969
    29   1 H    0.997 --    12 C    0.969
    30   1 H    0.996 --    13 C    0.982
    31   1 H    0.996 --    13 C    0.985
    32   1 H    0.996 --    13 C    0.985
    33   1 H    0.995 --    18 C    0.977
    34   1 H    0.995 --    18 C    0.980
    35   1 H    0.995 --    18 C    0.973
    36   1 H    0.994 --    20 C    0.979
    37   1 H    0.995 --    20 C    0.975
    38   1 H    0.997 --    20 C    0.981
 ---------------------------------------------------------------------------

Topologies differ in total number of bonds
Writing topology from bond orders to xtbtopo.mol

molecular dipole:
                 x           y           z       tot (Debye)
 q only:        2.229       0.816      -0.204
   full:        2.296       1.257      -0.053       6.655
molecular quadrupole (traceless):
                xx          xy          yy          xz          yz          zz
 q only:        6.365       8.639     -11.602       7.889       3.100       5.236
  q+dip:        8.227       7.467     -12.623       3.160       2.320       4.397
   full:        7.776       9.344     -12.974       4.897       2.234       5.197


           -------------------------------------------------
          | TOTAL ENERGY              -64.646438733085 Eh   |
          | GRADIENT NORM               0.047483236511 Eh/α |
          | HOMO-LUMO GAP               2.506821512247 eV   |
           -------------------------------------------------

------------------------------------------------------------------------
 * finished run on 2025/04/09 at 07:31:36.922     
------------------------------------------------------------------------
 total:
 * wall-time:     0 d,  0 h,  0 min,  0.153 sec
 *  cpu-time:     0 d,  0 h,  0 min,  0.116 sec
 * ratio c/w:     0.756 speedup
 SCF:
 * wall-time:     0 d,  0 h,  0 min,  0.109 sec
 *  cpu-time:     0 d,  0 h,  0 min,  0.092 sec
 * ratio c/w:     0.838 speedup

