      -----------------------------------------------------------      
     |                   =====================                   |     
     |                           x T B                           |     
     |                   =====================                   |     
     |                         S. Grimme                         |     
     |          Mulliken Center for Theoretical Chemistry        |     
     |                    University of Bonn                     |     
      -----------------------------------------------------------      

   * xtb version 6.7.1 (edcfbbe) compiled by 'albert@albert-system' on 2024-07-22

   xtb is free software: you can redistribute it and/or modify it under
   the terms of the GNU Lesser General Public License as published by
   the Free Software Foundation, either version 3 of the License, or
   (at your option) any later version.
   
   xtb is distributed in the hope that it will be useful,
   but WITHOUT ANY WARRANTY; without even the implied warranty of
   MERCHANTABILITY or FITNESS FOR A PARTICULAR PURPOSE.  See the
   GNU Lesser General Public License for more details.
   
   Cite this work as:
   * C. Bannwarth, E. Caldeweyher, S. Ehlert, A. Hansen, P. Pracht,
     J. Seibert, S. Spicher, S. Grimme, WIREs Comput. Mol. Sci., 2020, 11,
     e01493. DOI: 10.1002/wcms.1493
   
   for GFN2-xTB:
   * C. Bannwarth, S. Ehlert and S. Grimme., J. Chem. Theory Comput., 2019,
     15, 1652-1671. DOI: 10.1021/acs.jctc.8b01176
   for GFN1-xTB:
   * S. Grimme, C. Bannwarth, P. Shushkov, J. Chem. Theory Comput., 2017,
     13, 1989-2009. DOI: 10.1021/acs.jctc.7b00118
   for GFN0-xTB:
   * P. Pracht, E. Caldeweyher, S. Ehlert, S. Grimme, ChemRxiv, 2019, preprint.
     DOI: 10.26434/chemrxiv.8326202.v1
   for GFN-FF:
   * S. Spicher and S. Grimme, Angew. Chem. Int. Ed., 2020, 59, 15665-15673.
     DOI: 10.1002/anie.202004239
   
   for ALPB and GBSA implicit solvation:
   * S. Ehlert, M. Stahn, S. Spicher, S. Grimme, J. Chem. Theory Comput.,
     2021, 17, 4250-4261. DOI: 10.1021/acs.jctc.1c00471
   
   for ddCOSMO and CPCM-X implicit solvation:
   * M. Stahn, S. Ehlert, S. Grimme, J. Phys. Chem. A,
     2023, XX, XXXX-XXXX. DOI: 10.1021/acs.jpca.3c04382
   
   for DFT-D4:
   * E. Caldeweyher, C. Bannwarth and S. Grimme, J. Chem. Phys., 2017,
     147, 034112. DOI: 10.1063/1.4993215
   * E. Caldeweyher, S. Ehlert, A. Hansen, H. Neugebauer, S. Spicher,
     C. Bannwarth and S. Grimme, J. Chem. Phys., 2019, 150, 154122.
     DOI: 10.1063/1.5090222
   * E. Caldeweyher, J.-M. Mewes, S. Ehlert and S. Grimme, Phys. Chem. Chem. Phys.
     2020, 22, 8499-8512. DOI: 10.1039/D0CP00502A
   
   for sTDA-xTB:
   * S. Grimme and C. Bannwarth, J. Chem. Phys., 2016, 145, 054103.
     DOI: 10.1063/1.4959605
   
   in the mass-spec context:
   * V. Asgeirsson, C. Bauer and S. Grimme, Chem. Sci., 2017, 8, 4879.
     DOI: 10.1039/c7sc00601b
   * J. Koopman and S. Grimme, ACS Omega 2019, 4, 12, 15120-15133.
     DOI: 10.1021/acsomega.9b02011
   
   for metadynamics refer to:
   * S. Grimme, J. Chem. Theory Comput., 2019, 155, 2847-2862
     DOI: 10.1021/acs.jctc.9b00143
   
   for SPH calculations refer to:
   * S. Spicher and S. Grimme, J. Chem. Theory Comput., 2021, 17, 1701-1714
     DOI: 10.1021/acs.jctc.0c01306
   
   for ONIOM refer to:
   * C. Plett, A. Katbashev, S. Ehlert, S. Grimme, M. Bursch,
     Phys. Chem. Chem. Phys., 2023, 25, 17860-17868. DOI: 10.1039/D3CP02178E
   
   for DIPRO refer to:
   * J. Kohn, N. Gildemeister, S. Grimme, D. Fazzi, A. Hansen,
     J. Chem. Phys., 2023, just accepted.
   
   for PTB refer to:
   * S. Grimme, M. Mueller, A. Hansen, J. Chem. Phys., 2023, 158, 124111.
     DOI: 10.1063/5.0137838
   
   with help from (in alphabetical order)
   P. Atkinson, C. Bannwarth, F. Bohle, G. Brandenburg, E. Caldeweyher
   M. Checinski, S. Dohm, S. Ehlert, S. Ehrlich, I. Gerasimov, C. Hölzer
   A. Katbashev, J. Kohn, J. Koopman, C. Lavigne, S. Lehtola, F. März, M. Müller,
   F. Musil, H. Neugebauer, J. Pisarek, C. Plett, P. Pracht, F. Pultar,
   J. Seibert, P. Shushkov, S. Spicher, M. Stahn, M. Steiner, T. Strunk,
   J. Stückrath, T. Rose, and J. Unsleber
   
 * started run on 2025/04/09 at 07:31:36.931     
   ID    Z sym.   atoms
    1    6 C      1, 2, 4, 6, 7, 9, 12, 13, 18, 20
    2    8 O      3, 5, 10, 11, 17, 19
    3    1 H      8, 21-38
    4   16 S      14, 16
    5   15 P      15

           -------------------------------------------------
          |                Calculation Setup                |
           -------------------------------------------------

          program call               : /software/projects/pawsey0265/mwang1/xtb/bin/xtb solv.coord --gfn2 --sp --chrg 0 --norestart --parallel 1 --alpb water reference -I xtb_sp-xcontrol-inp
          hostname                   : nid002043
          coordinate file            : solv.coord
          omp threads                :                     1


           -------------------------------------------------
          |                 G F N 2 - x T B                 |
           -------------------------------------------------

        Reference                      10.1021/acs.jctc.8b01176
      * Hamiltonian:
        H0-scaling (s, p, d)           1.850000    2.230000    2.230000
        zeta-weighting                 0.500000
      * Dispersion:
        s8                             2.700000
        a1                             0.520000
        a2                             5.000000
        s9                             5.000000
      * Repulsion:
        kExp                           1.500000    1.000000
        rExp                           1.000000
      * Coulomb:
        alpha                          2.000000
        third order                    shell-resolved
        anisotropic                    true
        a3                             3.000000
        a5                             4.000000
        cn-shift                       1.200000
        cn-exp                         4.000000
        max-rad                        5.000000

      * Solvation model:               ALPB
        Solvent                        water
        Parameter file                 internal GFN2-xTB/ALPB
        Dielectric constant                8.0200E+01
        Reference state                gsolv=reference [X=1]
        Free energy shift                  2.8945E-03 Eh       1.8164E+00 kcal/mol
        Temperature                        2.9815E+02 K
        Density                            1.0000E+00 kg/L
        Solvent mass                       1.8000E+01 g/mol
        Interaction kernel             P16
        Born radius scaling (c1)           1.4744E+00
        Born radii integrator          GBOBC
        Born offset                        0.0000E+00 a0       0.0000E+00 AA
        H-bond correction              true
        Ion screening                  false
        Surface tension                    1.0000E-05 Eh       1.5569E+01 dyn/cm
        Grid points                               974 per atom

          ...................................................
          :                      SETUP                      :
          :.................................................:
          :  # basis functions                 113          :
          :  # atomic orbitals                 110          :
          :  # shells                           60          :
          :  # electrons                       112          :
          :  max. iterations                   250          :
          :  Hamiltonian                  GFN2-xTB          :
          :  restarted?                      false          :
          :  GBSA solvation                   true          :
          :  PC potential                    false          :
          :  electronic temp.          300.0000000     K    :
          :  accuracy                    1.0000000          :
          :  -> integral cutoff          0.2500000E+02      :
          :  -> integral neglect         0.1000000E-07      :
          :  -> SCF convergence          0.1000000E-05 Eh   :
          :  -> wf. convergence          0.1000000E-03 e    :
          :  Broyden damping             0.4000000          :
          :  net charge                          0          :
          :  unpaired electrons                  0          :
          ...................................................

 iter      E             dE          RMSdq      gap      omega  full diag
   1    -65.0957604 -0.650958E+02  0.605E+00    4.23       0.0  T
   2    -65.2253389 -0.129579E+00  0.329E+00    3.14       1.0  T
   3    -65.2341357 -0.879683E-02  0.120E+00    3.05       1.0  T
   4    -65.2401563 -0.602065E-02  0.432E-01    2.89       1.0  T
   5    -65.2409591 -0.802721E-03  0.196E-01    3.02       1.0  T
   6    -65.2410779 -0.118806E-03  0.888E-02    3.01       1.0  T
   7    -65.2411014 -0.234779E-04  0.330E-02    3.03       1.0  T
   8    -65.2411038 -0.241034E-05  0.140E-02    3.03       1.2  T
   9    -65.2411045 -0.720706E-06  0.512E-03    3.03       3.2  T
  10    -65.2411046 -0.717816E-07  0.284E-03    3.03       5.7  T
  11    -65.2411046 -0.194624E-07  0.801E-04    3.03      20.3  T
  12    -65.2411046 -0.168782E-08  0.400E-04    3.03      40.6  T

   *** convergence criteria satisfied after 12 iterations ***

         #    Occupation            Energy/Eh            Energy/eV
      -------------------------------------------------------------
         1        2.0000           -0.7714300             -20.9917
       ...           ...                  ...                  ...
        50        2.0000           -0.4509706             -12.2715
        51        2.0000           -0.4497364             -12.2380
        52        2.0000           -0.4485267             -12.2050
        53        2.0000           -0.4380461             -11.9198
        54        2.0000           -0.4110266             -11.1846
        55        2.0000           -0.3869833             -10.5304
        56        2.0000           -0.3831484             -10.4260 (HOMO)
        57                         -0.2717360              -7.3943 (LUMO)
        58                         -0.2578601              -7.0167
        59                         -0.2514519              -6.8424
        60                         -0.2151765              -5.8552
        61                         -0.1604029              -4.3648
       ...                                ...                  ...
       110                          1.3077002              35.5843
      -------------------------------------------------------------
                  HL-Gap            0.1114125 Eh            3.0317 eV
             Fermi-level           -0.3274422 Eh           -8.9102 eV

 SCC (total)                   0 d,  0 h,  0 min,  0.135 sec
 SCC setup                      ...        0 min,  0.003 sec (  2.391%)
 Dispersion                     ...        0 min,  0.000 sec (  0.259%)
 classical contributions        ...        0 min,  0.000 sec (  0.106%)
 integral evaluation            ...        0 min,  0.061 sec ( 45.044%)
 iterations                     ...        0 min,  0.036 sec ( 26.366%)
 molecular gradient             ...        0 min,  0.035 sec ( 25.573%)
 printout                       ...        0 min,  0.000 sec (  0.242%)

         :::::::::::::::::::::::::::::::::::::::::::::::::::::
         ::                     SUMMARY                     ::
         :::::::::::::::::::::::::::::::::::::::::::::::::::::
         :: total energy             -64.670530490506 Eh    ::
         :: total w/o Gsasa/hb       -64.672008818042 Eh    ::
         :: gradient norm              0.000172020152 Eh/a0 ::
         :: HOMO-LUMO gap              3.031687128560 eV    ::
         ::.................................................::
         :: SCC energy               -65.240056304671 Eh    ::
         :: -> isotropic ES            0.183835509079 Eh    ::
         :: -> anisotropic ES         -0.023805604069 Eh    ::
         :: -> anisotropic XC          0.017356676763 Eh    ::
         :: -> dispersion             -0.043719533775 Eh    ::
         :: -> Gsolv                  -0.033851251473 Eh    ::
         ::    -> Gelec               -0.035329579009 Eh    ::
         ::    -> Gsasa                0.003927514353 Eh    ::
         ::    -> Ghb                 -0.005343735977 Eh    ::
         ::    -> Gshift               0.002894549160 Eh    ::
         :: repulsion energy           0.569525814165 Eh    ::
         :: add. restraining           0.000000000000 Eh    ::
         :: total charge              -0.000000000000 e     ::
         :::::::::::::::::::::::::::::::::::::::::::::::::::::

           -------------------------------------------------
          |                Property Printout                |
           -------------------------------------------------

    * Orbital Energies and Occupations

         #    Occupation            Energy/Eh            Energy/eV
      -------------------------------------------------------------
         1        2.0000           -0.7714300             -20.9917
       ...           ...                  ...                  ...
        44        2.0000           -0.4753953             -12.9362
        45        2.0000           -0.4720311             -12.8446
        46        2.0000           -0.4710481             -12.8179
        47        2.0000           -0.4626961             -12.5906
        48        2.0000           -0.4615459             -12.5593
        49        2.0000           -0.4555909             -12.3973
        50        2.0000           -0.4509706             -12.2715
        51        2.0000           -0.4497364             -12.2380
        52        2.0000           -0.4485267             -12.2050
        53        2.0000           -0.4380461             -11.9198
        54        2.0000           -0.4110266             -11.1846
        55        2.0000           -0.3869833             -10.5304
        56        2.0000           -0.3831484             -10.4260 (HOMO)
        57                         -0.2717360              -7.3943 (LUMO)
        58                         -0.2578601              -7.0167
        59                         -0.2514519              -6.8424
        60                         -0.2151765              -5.8552
        61                         -0.1604029              -4.3648
        62                         -0.1497454              -4.0748
        63                         -0.1199506              -3.2640
        64                         -0.0520451              -1.4162
        65                         -0.0378223              -1.0292
        66                         -0.0274225              -0.7462
        67                         -0.0223681              -0.6087
       ...                                ...                  ...
       110                          1.3077002              35.5843
      -------------------------------------------------------------
                  HL-Gap            0.1114125 Eh            3.0317 eV
             Fermi-level           -0.3274422 Eh           -8.9102 eV

     #   Z          covCN         q      C6AA      α(0)
     1   6 C        3.751    -0.126    22.975     6.836
     2   6 C        3.695     0.067    19.622     6.337
     3   8 O        1.703    -0.230    17.807     5.697
     4   6 C        2.719     0.379    20.580     7.426
     5   8 O        0.930    -0.472    23.129     6.450
     6   6 C        3.829    -0.108    22.531     6.754
     7   6 C        3.854     0.004    20.472     6.435
     8   1 H        0.925     0.141     1.454     1.885
     9   6 C        2.759     0.374    20.663     7.444
    10   8 O        0.856    -0.468    23.098     6.444
    11   8 O        1.703    -0.260    18.317     5.778
    12   6 C        3.694     0.080    19.420     6.305
    13   6 C        3.751    -0.137    23.201     6.869
    14  16 S        1.962    -0.121   146.112    20.345
    15  15 P        3.894     0.353   145.507    21.669
    16  16 S        0.925    -0.492   161.022    21.463
    17   8 O        1.656    -0.249    18.144     5.750
    18   6 C        3.789     0.042    19.880     6.350
    19   8 O        1.658    -0.290    18.836     5.859
    20   6 C        3.815     0.025    20.137     6.387
    21   1 H        0.925     0.048     2.345     2.395
    22   1 H        0.925     0.078     1.996     2.210
    23   1 H        0.925     0.076     2.023     2.224
    24   1 H        0.924     0.060     2.195     2.317
    25   1 H        0.925     0.098     1.806     2.102
    26   1 H        0.924     0.133     1.513     1.923
    27   1 H        0.924     0.140     1.464     1.892
    28   1 H        0.924     0.063     2.164     2.300
    29   1 H        0.924     0.058     2.227     2.334
    30   1 H        0.925     0.081     1.965     2.192
    31   1 H        0.925     0.078     1.997     2.210
    32   1 H        0.925     0.074     2.044     2.236
    33   1 H        0.925     0.099     1.794     2.094
    34   1 H        0.925     0.075     2.033     2.230
    35   1 H        0.924     0.073     2.056     2.242
    36   1 H        0.925     0.102     1.764     2.077
    37   1 H        0.924     0.073     2.057     2.243
    38   1 H        0.925     0.079     1.992     2.207

 Mol. C6AA /au·bohr⁶  :      18240.173679
 Mol. C8AA /au·bohr⁸  :     514598.264190
 Mol. α(0) /au        :        207.911122


Wiberg/Mayer (AO) data.
largest (>0.10) Wiberg bond orders for each atom

 ---------------------------------------------------------------------------
     #   Z sym  total        # sym  WBO       # sym  WBO       # sym  WBO
 ---------------------------------------------------------------------------
     1   6 C    3.986 --     2 C    1.013    21 H    0.986    23 H    0.983
                            22 H    0.978
     2   6 C    3.894 --     1 C    1.013    24 H    0.969    25 H    0.966
                             3 O    0.902
     3   8 O    2.372 --     4 C    1.234     2 C    0.902     5 O    0.163
     4   6 C    3.910 --     5 O    1.611     3 O    1.234     6 C    0.983
     5   8 O    2.049 --     4 C    1.611     3 O    0.163    15 P    0.120
     6   6 C    3.980 --     7 C    1.001     4 C    0.983    26 H    0.936
                            27 H    0.932
     7   6 C    3.967 --     6 C    1.001    14 S    0.960     9 C    0.951
                             8 H    0.920
     8   1 H    0.978 --     7 C    0.920
     9   6 C    3.920 --    10 O    1.698    11 O    1.184     7 C    0.951
    10   8 O    2.003 --     9 C    1.698    11 O    0.172
    11   8 O    2.324 --     9 C    1.184    12 C    0.903    10 O    0.172
    12   6 C    3.898 --    13 C    1.018    28 H    0.969    29 H    0.967
                            11 O    0.903
    13   6 C    3.981 --    12 C    1.018    32 H    0.983    31 H    0.982
                            30 H    0.978
    14  16 S    2.287 --    15 P    0.998     7 C    0.960    16 S    0.141
    15  15 P    5.286 --    16 S    1.456    17 O    1.314    19 O    1.272
                            14 S    0.998     5 O    0.120
    16  16 S    1.787 --    15 P    1.456    14 S    0.141
    17   8 O    2.414 --    15 P    1.314    18 C    0.910
    18   6 C    3.886 --    34 H    0.980    35 H    0.972    33 H    0.972
                            17 O    0.910
    19   8 O    2.355 --    15 P    1.272    20 C    0.917
    20   6 C    3.890 --    38 H    0.978    37 H    0.975    36 H    0.973
                            19 O    0.917
    21   1 H    0.998 --     1 C    0.986
    22   1 H    0.993 --     1 C    0.978
    23   1 H    0.994 --     1 C    0.983
    24   1 H    0.996 --     2 C    0.969
    25   1 H    0.990 --     2 C    0.966
    26   1 H    0.982 --     6 C    0.936
    27   1 H    0.980 --     6 C    0.932
    28   1 H    0.996 --    12 C    0.969
    29   1 H    0.996 --    12 C    0.967
    30   1 H    0.992 --    13 C    0.978
    31   1 H    0.994 --    13 C    0.982
    32   1 H    0.995 --    13 C    0.983
    33   1 H    0.990 --    18 C    0.972
    34   1 H    0.994 --    18 C    0.980
    35   1 H    0.995 --    18 C    0.972
    36   1 H    0.989 --    20 C    0.973
    37   1 H    0.995 --    20 C    0.975
    38   1 H    0.994 --    20 C    0.978
 ---------------------------------------------------------------------------

Topologies differ in total number of bonds
Writing topology from bond orders to xtbtopo.mol

molecular dipole:
                 x           y           z       tot (Debye)
 q only:        3.147       1.045      -0.788
   full:        2.889       1.439      -0.378       8.259
molecular quadrupole (traceless):
                xx          xy          yy          xz          yz          zz
 q only:        9.819      11.268     -15.763       8.553       2.964       5.943
  q+dip:       11.114       9.172     -15.780       3.337       2.023       4.666
   full:       10.603      10.944     -16.038       5.089       2.067       5.435


           -------------------------------------------------
          | TOTAL ENERGY              -64.670530490506 Eh   |
          | GRADIENT NORM               0.000172020152 Eh/α |
          | HOMO-LUMO GAP               3.031687128560 eV   |
           -------------------------------------------------

------------------------------------------------------------------------
 * finished run on 2025/04/09 at 07:31:37.114     
------------------------------------------------------------------------
 total:
 * wall-time:     0 d,  0 h,  0 min,  0.183 sec
 *  cpu-time:     0 d,  0 h,  0 min,  0.114 sec
 * ratio c/w:     0.623 speedup
 SCF:
 * wall-time:     0 d,  0 h,  0 min,  0.136 sec
 *  cpu-time:     0 d,  0 h,  0 min,  0.095 sec
 * ratio c/w:     0.701 speedup

