      -----------------------------------------------------------      
     |                   =====================                   |     
     |                           x T B                           |     
     |                   =====================                   |     
     |                         S. Grimme                         |     
     |          Mulliken Center for Theoretical Chemistry        |     
     |                    University of Bonn                     |     
      -----------------------------------------------------------      

   * xtb version 6.7.1 (edcfbbe) compiled by 'albert@albert-system' on 2024-07-22

   xtb is free software: you can redistribute it and/or modify it under
   the terms of the GNU Lesser General Public License as published by
   the Free Software Foundation, either version 3 of the License, or
   (at your option) any later version.
   
   xtb is distributed in the hope that it will be useful,
   but WITHOUT ANY WARRANTY; without even the implied warranty of
   MERCHANTABILITY or FITNESS FOR A PARTICULAR PURPOSE.  See the
   GNU Lesser General Public License for more details.
   
   Cite this work as:
   * C. Bannwarth, E. Caldeweyher, S. Ehlert, A. Hansen, P. Pracht,
     J. Seibert, S. Spicher, S. Grimme, WIREs Comput. Mol. Sci., 2020, 11,
     e01493. DOI: 10.1002/wcms.1493
   
   for GFN2-xTB:
   * C. Bannwarth, S. Ehlert and S. Grimme., J. Chem. Theory Comput., 2019,
     15, 1652-1671. DOI: 10.1021/acs.jctc.8b01176
   for GFN1-xTB:
   * S. Grimme, C. Bannwarth, P. Shushkov, J. Chem. Theory Comput., 2017,
     13, 1989-2009. DOI: 10.1021/acs.jctc.7b00118
   for GFN0-xTB:
   * P. Pracht, E. Caldeweyher, S. Ehlert, S. Grimme, ChemRxiv, 2019, preprint.
     DOI: 10.26434/chemrxiv.8326202.v1
   for GFN-FF:
   * S. Spicher and S. Grimme, Angew. Chem. Int. Ed., 2020, 59, 15665-15673.
     DOI: 10.1002/anie.202004239
   
   for ALPB and GBSA implicit solvation:
   * S. Ehlert, M. Stahn, S. Spicher, S. Grimme, J. Chem. Theory Comput.,
     2021, 17, 4250-4261. DOI: 10.1021/acs.jctc.1c00471
   
   for ddCOSMO and CPCM-X implicit solvation:
   * M. Stahn, S. Ehlert, S. Grimme, J. Phys. Chem. A,
     2023, XX, XXXX-XXXX. DOI: 10.1021/acs.jpca.3c04382
   
   for DFT-D4:
   * E. Caldeweyher, C. Bannwarth and S. Grimme, J. Chem. Phys., 2017,
     147, 034112. DOI: 10.1063/1.4993215
   * E. Caldeweyher, S. Ehlert, A. Hansen, H. Neugebauer, S. Spicher,
     C. Bannwarth and S. Grimme, J. Chem. Phys., 2019, 150, 154122.
     DOI: 10.1063/1.5090222
   * E. Caldeweyher, J.-M. Mewes, S. Ehlert and S. Grimme, Phys. Chem. Chem. Phys.
     2020, 22, 8499-8512. DOI: 10.1039/D0CP00502A
   
   for sTDA-xTB:
   * S. Grimme and C. Bannwarth, J. Chem. Phys., 2016, 145, 054103.
     DOI: 10.1063/1.4959605
   
   in the mass-spec context:
   * V. Asgeirsson, C. Bauer and S. Grimme, Chem. Sci., 2017, 8, 4879.
     DOI: 10.1039/c7sc00601b
   * J. Koopman and S. Grimme, ACS Omega 2019, 4, 12, 15120-15133.
     DOI: 10.1021/acsomega.9b02011
   
   for metadynamics refer to:
   * S. Grimme, J. Chem. Theory Comput., 2019, 155, 2847-2862
     DOI: 10.1021/acs.jctc.9b00143
   
   for SPH calculations refer to:
   * S. Spicher and S. Grimme, J. Chem. Theory Comput., 2021, 17, 1701-1714
     DOI: 10.1021/acs.jctc.0c01306
   
   for ONIOM refer to:
   * C. Plett, A. Katbashev, S. Ehlert, S. Grimme, M. Bursch,
     Phys. Chem. Chem. Phys., 2023, 25, 17860-17868. DOI: 10.1039/D3CP02178E
   
   for DIPRO refer to:
   * J. Kohn, N. Gildemeister, S. Grimme, D. Fazzi, A. Hansen,
     J. Chem. Phys., 2023, just accepted.
   
   for PTB refer to:
   * S. Grimme, M. Mueller, A. Hansen, J. Chem. Phys., 2023, 158, 124111.
     DOI: 10.1063/5.0137838
   
   with help from (in alphabetical order)
   P. Atkinson, C. Bannwarth, F. Bohle, G. Brandenburg, E. Caldeweyher
   M. Checinski, S. Dohm, S. Ehlert, S. Ehrlich, I. Gerasimov, C. Hölzer
   A. Katbashev, J. Kohn, J. Koopman, C. Lavigne, S. Lehtola, F. März, M. Müller,
   F. Musil, H. Neugebauer, J. Pisarek, C. Plett, P. Pracht, F. Pultar,
   J. Seibert, P. Shushkov, S. Spicher, M. Stahn, M. Steiner, T. Strunk,
   J. Stückrath, T. Rose, and J. Unsleber
   
 * started run on 2025/04/09 at 09:46:43.443     
   ID    Z sym.   atoms
    1    6 C      1, 2, 4, 6, 7, 9, 12, 13, 18, 20
    2    8 O      3, 5, 10, 11, 17, 19
    3    1 H      8, 21-38
    4   16 S      14, 16
    5   15 P      15

           -------------------------------------------------
          |                Calculation Setup                |
           -------------------------------------------------

          program call               : /software/projects/pawsey0265/mwang1/xtb/bin/xtb xtb_rrho.coord --gfn2 --bhess vtight --chrg 0 --enso --norestart -I rrho-xcontrol-inp --parallel 1 --alpb water
          hostname                   : nid002043
          coordinate file            : xtb_rrho.coord
          omp threads                :                     1


           -------------------------------------------------
          |                 G F N 2 - x T B                 |
           -------------------------------------------------

        Reference                      10.1021/acs.jctc.8b01176
      * Hamiltonian:
        H0-scaling (s, p, d)           1.850000    2.230000    2.230000
        zeta-weighting                 0.500000
      * Dispersion:
        s8                             2.700000
        a1                             0.520000
        a2                             5.000000
        s9                             5.000000
      * Repulsion:
        kExp                           1.500000    1.000000
        rExp                           1.000000
      * Coulomb:
        alpha                          2.000000
        third order                    shell-resolved
        anisotropic                    true
        a3                             3.000000
        a5                             4.000000
        cn-shift                       1.200000
        cn-exp                         4.000000
        max-rad                        5.000000

      * Solvation model:               ALPB
        Solvent                        water
        Parameter file                 internal GFN2-xTB/ALPB
        Dielectric constant                8.0200E+01
        Reference state                gsolv [1 M gas/solution]
        Free energy shift                  1.0808E-03 Eh       6.7819E-01 kcal/mol
        Temperature                        2.9815E+02 K
        Density                            1.0000E+00 kg/L
        Solvent mass                       1.8000E+01 g/mol
        Interaction kernel             P16
        Born radius scaling (c1)           1.4744E+00
        Born radii integrator          GBOBC
        Born offset                        0.0000E+00 a0       0.0000E+00 AA
        H-bond correction              true
        Ion screening                  false
        Surface tension                    1.0000E-05 Eh       1.5569E+01 dyn/cm
        Grid points                               974 per atom

          ...................................................
          :                      SETUP                      :
          :.................................................:
          :  # basis functions                 113          :
          :  # atomic orbitals                 110          :
          :  # shells                           60          :
          :  # electrons                       112          :
          :  max. iterations                   250          :
          :  Hamiltonian                  GFN2-xTB          :
          :  restarted?                      false          :
          :  GBSA solvation                   true          :
          :  PC potential                    false          :
          :  electronic temp.          300.0000000     K    :
          :  accuracy                    1.0000000          :
          :  -> integral cutoff          0.2500000E+02      :
          :  -> integral neglect         0.1000000E-07      :
          :  -> SCF convergence          0.1000000E-05 Eh   :
          :  -> wf. convergence          0.1000000E-03 e    :
          :  Broyden damping             0.4000000          :
          :  net charge                          0          :
          :  unpaired electrons                  0          :
          ...................................................

 iter      E             dE          RMSdq      gap      omega  full diag
   1    -65.0661061 -0.650661E+02  0.586E+00    4.27       0.0  T
   2    -65.1991040 -0.132998E+00  0.306E+00    3.26       1.0  T
   3    -65.2087023 -0.959830E-02  0.120E+00    3.31       1.0  T
   4    -65.2151504 -0.644809E-02  0.463E-01    3.16       1.0  T
   5    -65.2158772 -0.726811E-03  0.211E-01    3.26       1.0  T
   6    -65.2160150 -0.137782E-03  0.949E-02    3.26       1.0  T
   7    -65.2160331 -0.181226E-04  0.332E-02    3.27       1.0  T
   8    -65.2160352 -0.203738E-05  0.130E-02    3.27       1.2  T
   9    -65.2160359 -0.723654E-06  0.427E-03    3.27       3.8  T
  10    -65.2160360 -0.733675E-07  0.204E-03    3.27       7.9  T
  11    -65.2160360 -0.885724E-08  0.560E-04    3.27      28.9  T
  12    -65.2160360 -0.881499E-09  0.224E-04    3.27      72.6  T

   *** convergence criteria satisfied after 12 iterations ***

         #    Occupation            Energy/Eh            Energy/eV
      -------------------------------------------------------------
         1        2.0000           -0.7702577             -20.9598
       ...           ...                  ...                  ...
        50        2.0000           -0.4542785             -12.3615
        51        2.0000           -0.4472013             -12.1690
        52        2.0000           -0.4446517             -12.0996
        53        2.0000           -0.4362107             -11.8699
        54        2.0000           -0.4146365             -11.2828
        55        2.0000           -0.3968534             -10.7989
        56        2.0000           -0.3948391             -10.7441 (HOMO)
        57                         -0.2746167              -7.4727 (LUMO)
        58                         -0.2573615              -7.0032
        59                         -0.2483692              -6.7585
        60                         -0.2087679              -5.6809
        61                         -0.1785363              -4.8582
       ...                                ...                  ...
       110                          1.2703663              34.5684
      -------------------------------------------------------------
                  HL-Gap            0.1202225 Eh            3.2714 eV
             Fermi-level           -0.3347279 Eh           -9.1084 eV

 SCC (total)                   0 d,  0 h,  0 min,  0.108 sec
 SCC setup                      ...        0 min,  0.003 sec (  2.798%)
 Dispersion                     ...        0 min,  0.000 sec (  0.345%)
 classical contributions        ...        0 min,  0.000 sec (  0.075%)
 integral evaluation            ...        0 min,  0.034 sec ( 31.614%)
 iterations                     ...        0 min,  0.037 sec ( 33.950%)
 molecular gradient             ...        0 min,  0.034 sec ( 30.922%)
 printout                       ...        0 min,  0.000 sec (  0.272%)

         :::::::::::::::::::::::::::::::::::::::::::::::::::::
         ::                     SUMMARY                     ::
         :::::::::::::::::::::::::::::::::::::::::::::::::::::
         :: total energy             -64.667396214666 Eh    ::
         :: total w/o Gsasa/hb       -64.667735036147 Eh    ::
         :: gradient norm              0.054410476344 Eh/a0 ::
         :: HOMO-LUMO gap              3.271420638590 eV    ::
         ::.................................................::
         :: SCC energy               -65.215406271305 Eh    ::
         :: -> isotropic ES            0.174350360740 Eh    ::
         :: -> anisotropic ES         -0.014648218473 Eh    ::
         :: -> anisotropic XC          0.018137591880 Eh    ::
         :: -> dispersion             -0.040770159675 Eh    ::
         :: -> Gsolv                  -0.030734810277 Eh    ::
         ::    -> Gelec               -0.031073631757 Eh    ::
         ::    -> Gsasa                0.004728604591 Eh    ::
         ::    -> Ghb                 -0.005470542808 Eh    ::
         ::    -> Gshift               0.001080759698 Eh    ::
         :: repulsion energy           0.548010056639 Eh    ::
         :: add. restraining           0.000000000000 Eh    ::
         :: total charge              -0.000000000000 e     ::
         :::::::::::::::::::::::::::::::::::::::::::::::::::::

metadynamics with 1 initial structures loaded
           -------------------------------------------------
          |           Optimal kpush determination           |
           -------------------------------------------------
      ----------------------------------------------------------- 
     |                   =====================                   |
     |                        A N C O P T                        |
     |                   =====================                   |
     |               Approximate Normal Coordinate               |
     |                Rational Function Optimizer                |
      ----------------------------------------------------------- 
target rmsd / Å         0.100000
unbiased initial rmsd   0.223394
 
iter. min.        max.        rmsd       kpush
      ----------------------------------------------------------- 
     |                   =====================                   |
     |                        A N C O P T                        |
     |                   =====================                   |
     |               Approximate Normal Coordinate               |
     |                Rational Function Optimizer                |
      ----------------------------------------------------------- 
 1    0.000000    1.727273    0.014848   -0.863636
      ----------------------------------------------------------- 
     |                   =====================                   |
     |                        A N C O P T                        |
     |                   =====================                   |
     |               Approximate Normal Coordinate               |
     |                Rational Function Optimizer                |
      ----------------------------------------------------------- 
 2    0.000000    0.863636    0.021169   -0.431818
      ----------------------------------------------------------- 
     |                   =====================                   |
     |                        A N C O P T                        |
     |                   =====================                   |
     |               Approximate Normal Coordinate               |
     |                Rational Function Optimizer                |
      ----------------------------------------------------------- 
 3    0.000000    0.431818    0.031203   -0.215909
      ----------------------------------------------------------- 
     |                   =====================                   |
     |                        A N C O P T                        |
     |                   =====================                   |
     |               Approximate Normal Coordinate               |
     |                Rational Function Optimizer                |
      ----------------------------------------------------------- 
 4    0.000000    0.215909    0.046264   -0.107955
      ----------------------------------------------------------- 
     |                   =====================                   |
     |                        A N C O P T                        |
     |                   =====================                   |
     |               Approximate Normal Coordinate               |
     |                Rational Function Optimizer                |
      ----------------------------------------------------------- 
 5    0.000000    0.107955    0.066713   -0.053977
      ----------------------------------------------------------- 
     |                   =====================                   |
     |                        A N C O P T                        |
     |                   =====================                   |
     |               Approximate Normal Coordinate               |
     |                Rational Function Optimizer                |
      ----------------------------------------------------------- 
 6    0.000000    0.053977    0.091528   -0.026989
      ----------------------------------------------------------- 
     |                   =====================                   |
     |                        A N C O P T                        |
     |                   =====================                   |
     |               Approximate Normal Coordinate               |
     |                Rational Function Optimizer                |
      ----------------------------------------------------------- 
 7    0.000000    0.026989    0.118572   -0.013494
      ----------------------------------------------------------- 
     |                   =====================                   |
     |                        A N C O P T                        |
     |                   =====================                   |
     |               Approximate Normal Coordinate               |
     |                Rational Function Optimizer                |
      ----------------------------------------------------------- 
 8    0.013494    0.026989    0.102675   -0.020241
      ----------------------------------------------------------- 
     |                   =====================                   |
     |                        A N C O P T                        |
     |                   =====================                   |
     |               Approximate Normal Coordinate               |
     |                Rational Function Optimizer                |
      ----------------------------------------------------------- 
 9    0.020241    0.026989    0.096708   -0.023615
      ----------------------------------------------------------- 
     |                   =====================                   |
     |                        A N C O P T                        |
     |                   =====================                   |
     |               Approximate Normal Coordinate               |
     |                Rational Function Optimizer                |
      ----------------------------------------------------------- 
10    0.020241    0.023615    0.099614   -0.021928
final kpush: -0.021928
           -------------------------------------------------
          |            Biased Numerical Hessian             |
           -------------------------------------------------
kpush                :  -0.02193
alpha                :   1.00000
step length          :   0.00500
SCC accuracy         :   0.30000
Hessian scale factor :   1.00000
frozen atoms in %    :   0.00000    0
RMS gradient         :   0.00007
estimated CPU  time      0.15 min
estimated wall time      0.15 min

writing file <hessian>.

 projected vibrational frequencies (cm⁻¹)
eigval :       -0.00    -0.00     0.00     0.00     0.00     0.00
eigval :       50.04    51.90    61.82    62.88    68.22    81.99
eigval :       79.45    80.13    90.36    98.96    98.69   104.04
eigval :      119.14   122.51   143.50   161.23   160.40   111.76
eigval :      123.60   207.69   182.04   244.01   240.23   284.57
eigval :      271.04   303.65   307.10   322.51   365.84   395.90
eigval :      410.68   441.89   438.28   478.61   526.47   605.23
eigval :      639.75   674.31   697.69   742.28   769.58   780.54
eigval :      810.30   827.43   877.24   899.79   901.27   949.14
eigval :      976.05   983.52  1022.86  1037.73  1047.92  1088.98
eigval :     1093.68  1096.38  1095.14  1102.42  1107.39  1106.97
eigval :     1114.12  1133.95  1143.71  1146.03  1174.72  1187.69
eigval :     1225.60  1247.87  1248.67  1292.24  1309.72  1310.96
eigval :     1367.54  1378.03  1393.28  1394.19  1411.42  1421.17
eigval :     1423.92  1429.63  1431.74  1436.20  1444.24  1463.40
eigval :     1465.36  1479.46  1485.01  1699.48  1709.83  2914.54
eigval :     2946.44  2954.40  2977.49  2982.85  2985.07  2989.51
eigval :     2990.72  2998.61  3000.14  3008.64  3026.13  3031.15
eigval :     3037.61  3040.63  3051.43  3051.58  3061.76  3061.99
           -------------------------------------------------
          |                Property Printout                |
           -------------------------------------------------

    * Orbital Energies and Occupations

         #    Occupation            Energy/Eh            Energy/eV
      -------------------------------------------------------------
         1        2.0000           -0.7754367             -21.1007
       ...           ...                  ...                  ...
        44        2.0000           -0.4766240             -12.9696
        45        2.0000           -0.4680597             -12.7366
        46        2.0000           -0.4664683             -12.6932
        47        2.0000           -0.4616544             -12.5623
        48        2.0000           -0.4576584             -12.4535
        49        2.0000           -0.4556660             -12.3993
        50        2.0000           -0.4535746             -12.3424
        51        2.0000           -0.4471310             -12.1671
        52        2.0000           -0.4438933             -12.0790
        53        2.0000           -0.4354308             -11.8487
        54        2.0000           -0.4129895             -11.2380
        55        2.0000           -0.3947972             -10.7430
        56        2.0000           -0.3924966             -10.6804 (HOMO)
        57                         -0.2706377              -7.3644 (LUMO)
        58                         -0.2576919              -7.0122
        59                         -0.2425425              -6.5999
        60                         -0.2006583              -5.4602
        61                         -0.1763161              -4.7978
        62                         -0.1616116              -4.3977
        63                         -0.1217377              -3.3127
        64                         -0.0496529              -1.3511
        65                         -0.0465272              -1.2661
        66                         -0.0379369              -1.0323
        67                         -0.0219308              -0.5968
       ...                                ...                  ...
       110                          1.2647787              34.4164
      -------------------------------------------------------------
                  HL-Gap            0.1218590 Eh            3.3160 eV
             Fermi-level           -0.3315672 Eh           -9.0224 eV

     #   Z          covCN         q      C6AA      α(0)
     1   6 C        3.751    -0.124    22.943     6.831
     2   6 C        3.694     0.065    19.651     6.342
     3   8 O        1.703    -0.258    18.276     5.772
     4   6 C        2.715     0.375    20.644     7.437
     5   8 O        0.856    -0.480    23.339     6.477
     6   6 C        3.832    -0.094    22.267     6.714
     7   6 C        3.855     0.008    20.410     6.425
     8   1 H        0.924     0.118     1.629     1.996
     9   6 C        2.743     0.371    20.715     7.452
    10   8 O        0.856    -0.454    22.796     6.401
    11   8 O        1.703    -0.257    18.259     5.769
    12   6 C        3.695     0.076    19.472     6.313
    13   6 C        3.750    -0.129    23.033     6.844
    14  16 S        1.946    -0.117   145.933    20.332
    15  15 P        3.861     0.380   144.459    21.590
    16  16 S        0.926    -0.478   160.343    21.418
    17   8 O        1.654    -0.254    18.232     5.764
    18   6 C        3.825     0.006    20.463     6.437
    19   8 O        1.656    -0.260    18.323     5.778
    20   6 C        3.811     0.010    20.402     6.429
    21   1 H        0.925     0.051     2.307     2.375
    22   1 H        0.925     0.064     2.156     2.296
    23   1 H        0.925     0.077     2.015     2.220
    24   1 H        0.924     0.090     1.875     2.141
    25   1 H        0.924     0.066     2.128     2.281
    26   1 H        0.924     0.088     1.898     2.154
    27   1 H        0.924     0.118     1.628     1.996
    28   1 H        0.925     0.087     1.905     2.158
    29   1 H        0.924     0.060     2.203     2.321
    30   1 H        0.925     0.075     2.033     2.230
    31   1 H        0.925     0.081     1.968     2.194
    32   1 H        0.925     0.053     2.278     2.361
    33   1 H        0.925     0.114     1.664     2.017
    34   1 H        0.925     0.095     1.827     2.114
    35   1 H        0.925     0.094     1.837     2.120
    36   1 H        0.924     0.078     2.001     2.212
    37   1 H        0.925     0.090     1.876     2.142
    38   1 H        0.925     0.113     1.668     2.020

 Mol. C6AA /au·bohr⁶  :      18238.993995
 Mol. C8AA /au·bohr⁸  :     514308.739032
 Mol. α(0) /au        :        207.876406


Wiberg/Mayer (AO) data.
largest (>0.10) Wiberg bond orders for each atom

 ---------------------------------------------------------------------------
     #   Z sym  total        # sym  WBO       # sym  WBO       # sym  WBO
 ---------------------------------------------------------------------------
     1   6 C    3.988 --     2 C    1.014    21 H    0.986    22 H    0.985
                            23 H    0.979
     2   6 C    3.900 --     1 C    1.014    25 H    0.970    24 H    0.968
                             3 O    0.909
     3   8 O    2.336 --     4 C    1.193     2 C    0.909     5 O    0.174
     4   6 C    3.917 --     5 O    1.689     3 O    1.193     6 C    0.960
     5   8 O    1.976 --     4 C    1.689     3 O    0.174
     6   6 C    3.985 --     7 C    0.996    26 H    0.963     4 C    0.960
                            27 H    0.941
     7   6 C    3.970 --     6 C    0.996    14 S    0.956     9 C    0.956
                             8 H    0.924
     8   1 H    0.986 --     7 C    0.924
     9   6 C    3.919 --    10 O    1.704    11 O    1.179     7 C    0.956
    10   8 O    2.017 --     9 C    1.704    11 O    0.171
    11   8 O    2.347 --     9 C    1.179    12 C    0.899    10 O    0.171
    12   6 C    3.894 --    13 C    1.014    29 H    0.971    28 H    0.968
                            11 O    0.899
    13   6 C    3.984 --    12 C    1.014    32 H    0.985    30 H    0.983
                            31 H    0.977
    14  16 S    2.268 --    15 P    0.973     7 C    0.956    16 S    0.133
    15  15 P    5.281 --    16 S    1.525    17 O    1.334    19 O    1.301
                            14 S    0.973
    16  16 S    1.842 --    15 P    1.525    14 S    0.133
    17   8 O    2.397 --    15 P    1.334    18 C    0.886
    18   6 C    3.870 --    34 H    0.977    35 H    0.972    33 H    0.971
                            17 O    0.886
    19   8 O    2.392 --    15 P    1.301    20 C    0.910
    20   6 C    3.881 --    36 H    0.977    37 H    0.976    38 H    0.971
                            19 O    0.910
    21   1 H    0.997 --     1 C    0.986
    22   1 H    0.996 --     1 C    0.985
    23   1 H    0.993 --     1 C    0.979
    24   1 H    0.992 --     2 C    0.968
    25   1 H    0.996 --     2 C    0.970
    26   1 H    0.992 --     6 C    0.963
    27   1 H    0.985 --     6 C    0.941
    28   1 H    0.992 --    12 C    0.968
    29   1 H    0.996 --    12 C    0.971
    30   1 H    0.994 --    13 C    0.983
    31   1 H    0.993 --    13 C    0.977
    32   1 H    0.997 --    13 C    0.985
    33   1 H    0.987 --    18 C    0.971
    34   1 H    0.991 --    18 C    0.977
    35   1 H    0.991 --    18 C    0.972
    36   1 H    0.994 --    20 C    0.977
    37   1 H    0.992 --    20 C    0.976
    38   1 H    0.987 --    20 C    0.971
 ---------------------------------------------------------------------------

Topologies differ in total number of bonds
Writing topology from bond orders to xtbtopo.mol

molecular dipole:
                 x           y           z       tot (Debye)
 q only:       -1.836       0.703      -1.283
   full:       -1.811       0.818      -1.021       5.679
molecular quadrupole (traceless):
                xx          xy          yy          xz          yz          zz
 q only:       12.269      -8.931      15.865      13.554      11.156     -28.134
  q+dip:       10.541      -7.915      14.885       8.404      11.834     -25.427
   full:       10.843      -7.867      15.045       8.580      12.301     -25.889

           -------------------------------------------------
          |                Geometry Summary                 |
           -------------------------------------------------

      molecular mass/u    :      330.3579996
   center of mass at/Å    :       -0.0287173      -0.0207754       0.0243406
  moments of inertia/u·Å² :        0.1170907E+04   0.2509092E+04   0.3006015E+04
rotational constants/cm⁻¹ :        0.1439708E-01   0.6718617E-02   0.5607967E-02

 * 34 selected distances

     #   Z          #   Z                                           value/Å
     1   6 C        2   6 C                                       1.5198726
     2   6 C        3   8 O                                       1.4406979
     3   8 O        4   6 C                                       1.3164602
     4   6 C        5   8 O                                       1.2125819
     6   6 C        7   6 C                                       1.5221688
     7   6 C        8   1 H                                       1.0972006
     9   6 C       10   8 O                                       1.2086120
     9   6 C       11   8 O                                       1.3195618
    11   8 O       12   6 C                                       1.4436280
    12   6 C       13   6 C                                       1.5200369
    14  16 S       15  15 P                                       2.1258459 (max)
    15  15 P       16  16 S                                       1.9583015
    15  15 P       17   8 O                                       1.5790072
    17   8 O       18   6 C                                       1.4427349
    15  15 P       19   8 O                                       1.6002411
    19   8 O       20   6 C                                       1.4328950
     1   6 C       21   1 H                                       1.0878612
     1   6 C       22   1 H                                       1.0866024
     1   6 C       23   1 H                                       1.0849908 (min)
     2   6 C       24   1 H                                       1.0903189
     2   6 C       25   1 H                                       1.0940253
     6   6 C       26   1 H                                       1.0908082
     6   6 C       27   1 H                                       1.0913284
    12   6 C       28   1 H                                       1.0899453
    12   6 C       29   1 H                                       1.0938424
    13   6 C       30   1 H                                       1.0864388
    13   6 C       31   1 H                                       1.0853013
    13   6 C       32   1 H                                       1.0880246
    18   6 C       33   1 H                                       1.0867240
    18   6 C       34   1 H                                       1.0879612
    18   6 C       35   1 H                                       1.0897572
    20   6 C       36   1 H                                       1.0907741
    20   6 C       37   1 H                                       1.0895854
    20   6 C       38   1 H                                       1.0874846

 * 5 distinct bonds (by element types)

   Z      Z             #   av. dist./Å        max./Å        min./Å
   1 H    6 C          19     1.0894197     1.0972006     1.0849908
   6 C    6 C           3     1.5206928     1.5221688     1.5198726
   6 C    8 O           8     1.3521465     1.4436280     1.2086120
   8 O   15 P           2     1.5896242     1.6002411     1.5790072
  15 P   16 S           2     2.0420737     2.1258459     1.9583015

           -------------------------------------------------
          |               Frequency Printout                |
           -------------------------------------------------
 projected vibrational frequencies (cm⁻¹)
eigval :       -0.00    -0.00     0.00     0.00     0.00     0.00
eigval :       50.04    51.90    61.82    62.88    68.22    81.99
eigval :       79.45    80.13    90.36    98.96    98.69   104.04
eigval :      119.14   122.51   143.50   161.23   160.40   111.76
eigval :      123.60   207.69   182.04   244.01   240.23   284.57
eigval :      271.04   303.65   307.10   322.51   365.84   395.90
eigval :      410.68   441.89   438.28   478.61   526.47   605.23
eigval :      639.75   674.31   697.69   742.28   769.58   780.54
eigval :      810.30   827.43   877.24   899.79   901.27   949.14
eigval :      976.05   983.52  1022.86  1037.73  1047.92  1088.98
eigval :     1093.68  1096.38  1095.14  1102.42  1107.39  1106.97
eigval :     1114.12  1133.95  1143.71  1146.03  1174.72  1187.69
eigval :     1225.60  1247.87  1248.67  1292.24  1309.72  1310.96
eigval :     1367.54  1378.03  1393.28  1394.19  1411.42  1421.17
eigval :     1423.92  1429.63  1431.74  1436.20  1444.24  1463.40
eigval :     1465.36  1479.46  1485.01  1699.48  1709.83  2914.54
eigval :     2946.44  2954.40  2977.49  2982.85  2985.07  2989.51
eigval :     2990.72  2998.61  3000.14  3008.64  3026.13  3031.15
eigval :     3037.61  3040.63  3051.43  3051.58  3061.76  3061.99
 reduced masses (amu)
   1: 14.48   2: 14.98   3: 14.83   4: 18.11   5: 17.31   6: 19.08   7: 18.33   8: 19.17
   9: 16.54  10: 15.25  11: 12.48  12: 16.61  13: 12.18  14: 11.64  15: 11.97  16: 13.17
  17: 12.25  18: 11.38  19: 14.33  20: 12.03  21: 15.61  22: 20.26  23: 17.74  24:  3.88
  25:  1.58  26: 10.78  27:  3.87  28: 16.63  29:  8.20  30: 17.18  31:  8.54  32: 14.43
  33: 10.26  34: 18.07  35: 14.02  36: 19.18  37: 18.82  38: 27.02  39: 10.43  40: 12.99
  41: 11.77  42: 10.63  43: 25.21  44: 12.61  45: 11.82  46: 22.32  47: 22.84  48: 10.85
  49:  4.54  50:  4.74  51:  8.99  52:  9.97  53: 10.37  54: 10.46  55:  8.24  56: 14.50
  57: 14.12  58:  8.59  59:  8.99  60:  7.27  61:  7.45  62:  7.10  63:  3.48  64:  4.13
  65:  6.74  66:  3.58  67:  4.21  68:  4.80  69:  7.23  70:  6.00  71:  9.32  72:  9.76
  73:  5.31  74:  3.26  75:  3.45  76:  5.12  77:  3.82  78:  3.32  79:  2.34  80:  2.34
  81:  3.04  82:  3.00  83:  1.94  84:  1.60  85:  2.02  86:  1.91  87:  1.52  88:  1.57
  89:  1.57  90:  1.48  91:  1.50  92:  1.56  93:  1.58  94: 13.33  95: 13.42  96:  1.75
  97:  1.71  98:  1.72  99:  1.65 100:  1.73 101:  1.61 102:  1.75 103:  1.71 104:  1.74
 105:  1.77 106:  1.70 107:  1.81 108:  1.87 109:  1.79 110:  1.84 111:  1.65 112:  1.51
 113:  1.81 114:  1.73
 IR intensities (km·mol⁻¹)
   1:  0.21   2:  0.28   3:  0.20   4:  0.11   5:  0.19   6:  0.24   7:  5.05   8:  7.20
   9:  6.58  10:  0.28  11:  0.75  12:  2.18  13:  4.31  14:  4.66  15:  4.57  16:  1.97
  17:  1.99  18:  0.92  19: 10.10  20:  1.49  21:  2.95  22: 11.75  23:  2.14  24:  0.50
  25:  0.67  26:  2.91  27:  8.13  28:  5.66  29:  5.65  30: 22.01  31: 13.06  32: 19.78
  33: 37.92  34: 25.98  35: 12.51  36: 20.32  37:  2.80  38:104.48  39:  4.54  40: 15.06
  41: 34.64  42: 17.07  43:228.75  44: 13.77  45: 34.88  46:301.69  47:248.98  48: 30.64
  49:  7.68  50:  7.13  51: 34.56  52: 16.95  53:  1.47  54:  6.99  55: 21.77  56:319.23
  57:177.33  58: 41.94  59: 26.47  60: 21.05  61: 37.90  62: 16.13  63:  0.97  64:  7.02
  65:165.85  66:  1.28  67:  5.99  68: 60.06  69: 75.18  70: 68.73  71:212.11  72:260.23
  73:105.44  74: 14.13  75: 62.73  76:135.75  77: 34.03  78:  6.57  79: 17.28  80: 20.66
  81:  6.93  82:  6.90  83: 11.29  84: 15.52  85:  5.48  86:  2.19  87: 13.54  88: 12.83
  89:  7.70  90:  8.30  91:  7.44  92:  2.72  93:  6.61  94:693.99  95:520.39  96:  5.52
  97: 26.52  98: 22.61  99: 11.51 100:  0.10 101:  8.13 102: 11.10 103:  9.31 104:  6.47
 105:  5.65 106:  4.60 107:  1.01 108:  0.57 109: 35.56 110: 34.48 111: 17.04 112: 25.16
 113: 26.34 114: 13.06
 Raman intensities (Ä⁴*amu⁻¹)
   1:  0.00   2:  0.00   3:  0.00   4:  0.00   5:  0.00   6:  0.00   7:  0.00   8:  0.00
   9:  0.00  10:  0.00  11:  0.00  12:  0.00  13:  0.00  14:  0.00  15:  0.00  16:  0.00
  17:  0.00  18:  0.00  19:  0.00  20:  0.00  21:  0.00  22:  0.00  23:  0.00  24:  0.00
  25:  0.00  26:  0.00  27:  0.00  28:  0.00  29:  0.00  30:  0.00  31:  0.00  32:  0.00
  33:  0.00  34:  0.00  35:  0.00  36:  0.00  37:  0.00  38:  0.00  39:  0.00  40:  0.00
  41:  0.00  42:  0.00  43:  0.00  44:  0.00  45:  0.00  46:  0.00  47:  0.00  48:  0.00
  49:  0.00  50:  0.00  51:  0.00  52:  0.00  53:  0.00  54:  0.00  55:  0.00  56:  0.00
  57:  0.00  58:  0.00  59:  0.00  60:  0.00  61:  0.00  62:  0.00  63:  0.00  64:  0.00
  65:  0.00  66:  0.00  67:  0.00  68:  0.00  69:  0.00  70:  0.00  71:  0.00  72:  0.00
  73:  0.00  74:  0.00  75:  0.00  76:  0.00  77:  0.00  78:  0.00  79:  0.00  80:  0.00
  81:  0.00  82:  0.00  83:  0.00  84:  0.00  85:  0.00  86:  0.00  87:  0.00  88:  0.00
  89:  0.00  90:  0.00  91:  0.00  92:  0.00  93:  0.00  94:  0.00  95:  0.00  96:  0.00
  97:  0.00  98:  0.00  99:  0.00 100:  0.00 101:  0.00 102:  0.00 103:  0.00 104:  0.00
 105:  0.00 106:  0.00 107:  0.00 108:  0.00 109:  0.00 110:  0.00 111:  0.00 112:  0.00
 113:  0.00 114:  0.00
 output can be read by thermo (or use thermo option).
 writing <g98.out> molden fake output.
 recommended (thermochemical) frequency scaling factor: 1.0
           -------------------------------------------------
          |             Thermodynamic Functions             |
           -------------------------------------------------

Molecule has no symmetry elements
It seems to be the C1 point group
c1  symmetry found (for desy threshold:  0.10E+00) used in thermo

          ...................................................
          :                      SETUP                      :
          :.................................................:
          :  # frequencies                         108      :
          :  # imaginary freq.                       0      :
          :  linear?                             false      :
          :  only rotor calc.                    false      :
          :  symmetry                               c1      :
          :  rotational number                       1      :
          :  scaling factor                  1.0000000      :
          :  rotor cutoff                    0.0000000 cm⁻¹ :
          :  imag. cutoff                 -100.0000000 cm⁻¹ :
          :.................................................:

    mode    ω/cm⁻¹     T·S(HO)/kcal·mol⁻¹    T·S(FR)/kcal·mol⁻¹   T·S(vib)
   ------------------------------------------------------------------------
       1     50.04    -1.43588 (100.00%)    -1.05629 (  0.00%)    -1.43588
       2     51.90    -1.41433 (100.00%)    -1.04547 (  0.00%)    -1.41433
       3     61.82    -1.31131 (100.00%)    -0.99364 (  0.00%)    -1.31131
       4     62.88    -1.30134 (100.00%)    -0.98862 (  0.00%)    -1.30134
       5     68.22    -1.25341 (100.00%)    -0.96446 (  0.00%)    -1.25341
       6     81.99    -1.14568 (100.00%)    -0.91000 (  0.00%)    -1.14568
       7     79.45    -1.16412 (100.00%)    -0.91934 (  0.00%)    -1.16412
       8     80.13    -1.15911 (100.00%)    -0.91681 (  0.00%)    -1.15911
       9     90.36    -1.08889 (100.00%)    -0.88120 (  0.00%)    -1.08889
      10     98.96    -1.03595 (100.00%)    -0.85427 (  0.00%)    -1.03595
      11     98.69    -1.03757 (100.00%)    -0.85509 (  0.00%)    -1.03757
      12    104.04    -1.00688 (100.00%)    -0.83944 (  0.00%)    -1.00688
      13    119.14    -0.92854 (100.00%)    -0.79932 (  0.00%)    -0.92854
      14    122.51    -0.91246 (100.00%)    -0.79105 (  0.00%)    -0.91246
      15    143.50    -0.82188 (100.00%)    -0.74419 (  0.00%)    -0.82188
      16    161.23    -0.75591 (100.00%)    -0.70970 (  0.00%)    -0.75591
      17    160.40    -0.75881 (100.00%)    -0.71122 (  0.00%)    -0.75881
      18    111.76    -0.96545 (100.00%)    -0.81826 (  0.00%)    -0.96545
      19    123.60    -0.90737 (100.00%)    -0.78843 (  0.00%)    -0.90737
      20    207.69    -0.61533 (100.00%)    -0.63468 (  0.00%)    -0.61533
      21    182.04    -0.68794 (100.00%)    -0.67373 (  0.00%)    -0.68794
      22    244.01    -0.52876 (100.00%)    -0.58695 (  0.00%)    -0.52876
      23    240.23    -0.53702 (100.00%)    -0.59157 (  0.00%)    -0.53702
      24    284.57    -0.44902 (100.00%)    -0.54139 (  0.00%)    -0.44902
      25    271.04    -0.47392 (100.00%)    -0.55582 (  0.00%)    -0.47392
   ------------------------------------------------------------------------

   temp. (K)  partition function   enthalpy   heat capacity  entropy
                                   cal/mol     cal/K/mol   cal/K/mol   J/K/mol
 298.15  VIB  0.283E+11            13845.347     79.095     94.265
         ROT  0.718E+07              888.752      2.981     34.353
         INT  0.203E+18            14734.100     82.075    128.619
         TR   0.581E+28             1481.254      4.968     43.260
         TOT                       16215.3537    87.0436   171.8790   719.1415

       T/K    H(0)-H(T)+PV         H(T)/Eh          T*S/Eh         G(T)/Eh
   ------------------------------------------------------------------------
    298.15    0.258408E-01    0.314495E+00    0.816652E-01    0.232830E+00
   ------------------------------------------------------------------------

         :::::::::::::::::::::::::::::::::::::::::::::::::::::
         ::                  THERMODYNAMIC                  ::
         :::::::::::::::::::::::::::::::::::::::::::::::::::::
         :: total free energy         -64.462519152516 Eh   ::
         ::.................................................::
         :: total energy              -64.695349034248 Eh   ::
         :: zero point energy           0.288654306278 Eh   ::
         :: G(RRHO) w/o ZPVE           -0.055824424546 Eh   ::
         :: G(RRHO) contrib.            0.232829881732 Eh   ::
         :::::::::::::::::::::::::::::::::::::::::::::::::::::

optimized geometry written to: xtbopt.coord


           -------------------------------------------------
          | TOTAL ENERGY              -64.695349034248 Eh   |
          | TOTAL ENTHALPY            -64.380853916986 Eh   |
          | TOTAL FREE ENERGY         -64.462519152516 Eh   |
          | GRADIENT NORM               0.000066000832 Eh/α |
          | HOMO-LUMO GAP               3.315951719083 eV   |
           -------------------------------------------------

------------------------------------------------------------------------
 * finished run on 2025/04/09 at 09:47:01.694     
------------------------------------------------------------------------
 total:
 * wall-time:     0 d,  0 h,  0 min, 18.250 sec
 *  cpu-time:     0 d,  0 h,  0 min, 18.177 sec
 * ratio c/w:     0.996 speedup
 SCF:
 * wall-time:     0 d,  0 h,  0 min,  0.109 sec
 *  cpu-time:     0 d,  0 h,  0 min,  0.095 sec
 * ratio c/w:     0.870 speedup
 analytical hessian:
 * wall-time:     0 d,  0 h,  0 min,  8.988 sec
 *  cpu-time:     0 d,  0 h,  0 min,  8.985 sec
 * ratio c/w:     1.000 speedup

