      -----------------------------------------------------------      
     |                   =====================                   |     
     |                           x T B                           |     
     |                   =====================                   |     
     |                         S. Grimme                         |     
     |          Mulliken Center for Theoretical Chemistry        |     
     |                    University of Bonn                     |     
      -----------------------------------------------------------      

   * xtb version 6.7.1 (edcfbbe) compiled by 'albert@albert-system' on 2024-07-22

   xtb is free software: you can redistribute it and/or modify it under
   the terms of the GNU Lesser General Public License as published by
   the Free Software Foundation, either version 3 of the License, or
   (at your option) any later version.
   
   xtb is distributed in the hope that it will be useful,
   but WITHOUT ANY WARRANTY; without even the implied warranty of
   MERCHANTABILITY or FITNESS FOR A PARTICULAR PURPOSE.  See the
   GNU Lesser General Public License for more details.
   
   Cite this work as:
   * C. Bannwarth, E. Caldeweyher, S. Ehlert, A. Hansen, P. Pracht,
     J. Seibert, S. Spicher, S. Grimme, WIREs Comput. Mol. Sci., 2020, 11,
     e01493. DOI: 10.1002/wcms.1493
   
   for GFN2-xTB:
   * C. Bannwarth, S. Ehlert and S. Grimme., J. Chem. Theory Comput., 2019,
     15, 1652-1671. DOI: 10.1021/acs.jctc.8b01176
   for GFN1-xTB:
   * S. Grimme, C. Bannwarth, P. Shushkov, J. Chem. Theory Comput., 2017,
     13, 1989-2009. DOI: 10.1021/acs.jctc.7b00118
   for GFN0-xTB:
   * P. Pracht, E. Caldeweyher, S. Ehlert, S. Grimme, ChemRxiv, 2019, preprint.
     DOI: 10.26434/chemrxiv.8326202.v1
   for GFN-FF:
   * S. Spicher and S. Grimme, Angew. Chem. Int. Ed., 2020, 59, 15665-15673.
     DOI: 10.1002/anie.202004239
   
   for ALPB and GBSA implicit solvation:
   * S. Ehlert, M. Stahn, S. Spicher, S. Grimme, J. Chem. Theory Comput.,
     2021, 17, 4250-4261. DOI: 10.1021/acs.jctc.1c00471
   
   for ddCOSMO and CPCM-X implicit solvation:
   * M. Stahn, S. Ehlert, S. Grimme, J. Phys. Chem. A,
     2023, XX, XXXX-XXXX. DOI: 10.1021/acs.jpca.3c04382
   
   for DFT-D4:
   * E. Caldeweyher, C. Bannwarth and S. Grimme, J. Chem. Phys., 2017,
     147, 034112. DOI: 10.1063/1.4993215
   * E. Caldeweyher, S. Ehlert, A. Hansen, H. Neugebauer, S. Spicher,
     C. Bannwarth and S. Grimme, J. Chem. Phys., 2019, 150, 154122.
     DOI: 10.1063/1.5090222
   * E. Caldeweyher, J.-M. Mewes, S. Ehlert and S. Grimme, Phys. Chem. Chem. Phys.
     2020, 22, 8499-8512. DOI: 10.1039/D0CP00502A
   
   for sTDA-xTB:
   * S. Grimme and C. Bannwarth, J. Chem. Phys., 2016, 145, 054103.
     DOI: 10.1063/1.4959605
   
   in the mass-spec context:
   * V. Asgeirsson, C. Bauer and S. Grimme, Chem. Sci., 2017, 8, 4879.
     DOI: 10.1039/c7sc00601b
   * J. Koopman and S. Grimme, ACS Omega 2019, 4, 12, 15120-15133.
     DOI: 10.1021/acsomega.9b02011
   
   for metadynamics refer to:
   * S. Grimme, J. Chem. Theory Comput., 2019, 155, 2847-2862
     DOI: 10.1021/acs.jctc.9b00143
   
   for SPH calculations refer to:
   * S. Spicher and S. Grimme, J. Chem. Theory Comput., 2021, 17, 1701-1714
     DOI: 10.1021/acs.jctc.0c01306
   
   for ONIOM refer to:
   * C. Plett, A. Katbashev, S. Ehlert, S. Grimme, M. Bursch,
     Phys. Chem. Chem. Phys., 2023, 25, 17860-17868. DOI: 10.1039/D3CP02178E
   
   for DIPRO refer to:
   * J. Kohn, N. Gildemeister, S. Grimme, D. Fazzi, A. Hansen,
     J. Chem. Phys., 2023, just accepted.
   
   for PTB refer to:
   * S. Grimme, M. Mueller, A. Hansen, J. Chem. Phys., 2023, 158, 124111.
     DOI: 10.1063/5.0137838
   
   with help from (in alphabetical order)
   P. Atkinson, C. Bannwarth, F. Bohle, G. Brandenburg, E. Caldeweyher
   M. Checinski, S. Dohm, S. Ehlert, S. Ehrlich, I. Gerasimov, C. Hölzer
   A. Katbashev, J. Kohn, J. Koopman, C. Lavigne, S. Lehtola, F. März, M. Müller,
   F. Musil, H. Neugebauer, J. Pisarek, C. Plett, P. Pracht, F. Pultar,
   J. Seibert, P. Shushkov, S. Spicher, M. Stahn, M. Steiner, T. Strunk,
   J. Stückrath, T. Rose, and J. Unsleber
   
 * started run on 2025/04/09 at 05:21:11.401     
   ID    Z sym.   atoms
    1    6 C      1, 2, 7, 8, 10, 15, 16, 18, 19
    2    8 O      3, 6, 14, 17
    3   15 P      4, 12
    4   16 S      5, 9, 11, 13
    5    1 H      20-41

           -------------------------------------------------
          |                Calculation Setup                |
           -------------------------------------------------

          program call               : /srv/scratch/z5358697/.xtb/bin/xtb gas.coord --gfn2 --sp --chrg 0 --norestart --parallel 1
          hostname                   : k163
          coordinate file            : gas.coord
          omp threads                :                     1


           -------------------------------------------------
          |                 G F N 2 - x T B                 |
           -------------------------------------------------

        Reference                      10.1021/acs.jctc.8b01176
      * Hamiltonian:
        H0-scaling (s, p, d)           1.850000    2.230000    2.230000
        zeta-weighting                 0.500000
      * Dispersion:
        s8                             2.700000
        a1                             0.520000
        a2                             5.000000
        s9                             5.000000
      * Repulsion:
        kExp                           1.500000    1.000000
        rExp                           1.000000
      * Coulomb:
        alpha                          2.000000
        third order                    shell-resolved
        anisotropic                    true
        a3                             3.000000
        a5                             4.000000
        cn-shift                       1.200000
        cn-exp                         4.000000
        max-rad                        5.000000


          ...................................................
          :                      SETUP                      :
          :.................................................:
          :  # basis functions                 134          :
          :  # atomic orbitals                 128          :
          :  # shells                           66          :
          :  # electrons                       116          :
          :  max. iterations                   250          :
          :  Hamiltonian                  GFN2-xTB          :
          :  restarted?                      false          :
          :  GBSA solvation                  false          :
          :  PC potential                    false          :
          :  electronic temp.          300.0000000     K    :
          :  accuracy                    1.0000000          :
          :  -> integral cutoff          0.2500000E+02      :
          :  -> integral neglect         0.1000000E-07      :
          :  -> SCF convergence          0.1000000E-05 Eh   :
          :  -> wf. convergence          0.1000000E-03 e    :
          :  Broyden damping             0.4000000          :
          :  net charge                          0          :
          :  unpaired electrons                  0          :
          ...................................................

 iter      E             dE          RMSdq      gap      omega  full diag
   1    -65.3786994 -0.653787E+02  0.659E+00    4.14       0.0  T
   2    -65.5472874 -0.168588E+00  0.423E+00    3.11       1.0  T
   3    -65.5657045 -0.184171E-01  0.133E+00    2.97       1.0  T
   4    -65.5693428 -0.363825E-02  0.556E-01    2.68       1.0  T
   5    -65.5704269 -0.108409E-02  0.278E-01    2.81       1.0  T
   6    -65.5707455 -0.318658E-03  0.125E-01    2.79       1.0  T
   7    -65.5707904 -0.448868E-04  0.484E-02    2.80       1.0  T
   8    -65.5707991 -0.871593E-05  0.211E-02    2.81       1.0  T
   9    -65.5708001 -0.937262E-06  0.535E-03    2.80       2.9  T
  10    -65.5708002 -0.790291E-07  0.258E-03    2.80       6.0  T
  11    -65.5708002 -0.828129E-08  0.557E-04    2.80      28.1  T
  12    -65.5708002 -0.850363E-09  0.251E-04    2.80      62.1  T

   *** convergence criteria satisfied after 12 iterations ***

         #    Occupation            Energy/Eh            Energy/eV
      -------------------------------------------------------------
         1        2.0000           -0.7593676             -20.6634
       ...           ...                  ...                  ...
        52        2.0000           -0.4403920             -11.9837
        53        2.0000           -0.4091496             -11.1335
        54        2.0000           -0.4012838             -10.9195
        55        2.0000           -0.3744114             -10.1883
        56        2.0000           -0.3717169             -10.1149
        57        2.0000           -0.3715664             -10.1108
        58        2.0000           -0.3682025             -10.0193 (HOMO)
        59                         -0.2651740              -7.2158 (LUMO)
        60                         -0.2330535              -6.3417
        61                         -0.2152508              -5.8573
        62                         -0.1892380              -5.1494
        63                         -0.1604276              -4.3655
       ...                                ...                  ...
       128                          1.3030535              35.4579
      -------------------------------------------------------------
                  HL-Gap            0.1030285 Eh            2.8035 eV
             Fermi-level           -0.3166883 Eh           -8.6175 eV

 SCC (total)                   0 d,  0 h,  0 min,  0.066 sec
 SCC setup                      ...        0 min,  0.000 sec (  0.416%)
 Dispersion                     ...        0 min,  0.000 sec (  0.466%)
 classical contributions        ...        0 min,  0.000 sec (  0.091%)
 integral evaluation            ...        0 min,  0.021 sec ( 31.391%)
 iterations                     ...        0 min,  0.023 sec ( 34.872%)
 molecular gradient             ...        0 min,  0.021 sec ( 32.385%)
 printout                       ...        0 min,  0.000 sec (  0.354%)

         :::::::::::::::::::::::::::::::::::::::::::::::::::::
         ::                     SUMMARY                     ::
         :::::::::::::::::::::::::::::::::::::::::::::::::::::
         :: total energy             -65.009873926955 Eh    ::
         :: gradient norm              0.029025248930 Eh/a0 ::
         :: HOMO-LUMO gap              2.803549105848 eV    ::
         ::.................................................::
         :: SCC energy               -65.569782745372 Eh    ::
         :: -> isotropic ES            0.108268322790 Eh    ::
         :: -> anisotropic ES         -0.008674543656 Eh    ::
         :: -> anisotropic XC          0.031255437410 Eh    ::
         :: -> dispersion             -0.054135639625 Eh    ::
         :: repulsion energy           0.559908818417 Eh    ::
         :: add. restraining           0.000000000000 Eh    ::
         :: total charge               0.000000000000 e     ::
         :::::::::::::::::::::::::::::::::::::::::::::::::::::

           -------------------------------------------------
          |                Property Printout                |
           -------------------------------------------------

    * Orbital Energies and Occupations

         #    Occupation            Energy/Eh            Energy/eV
      -------------------------------------------------------------
         1        2.0000           -0.7593676             -20.6634
       ...           ...                  ...                  ...
        46        2.0000           -0.4656540             -12.6711
        47        2.0000           -0.4626814             -12.5902
        48        2.0000           -0.4598745             -12.5138
        49        2.0000           -0.4561044             -12.4112
        50        2.0000           -0.4535798             -12.3425
        51        2.0000           -0.4470112             -12.1638
        52        2.0000           -0.4403920             -11.9837
        53        2.0000           -0.4091496             -11.1335
        54        2.0000           -0.4012838             -10.9195
        55        2.0000           -0.3744114             -10.1883
        56        2.0000           -0.3717169             -10.1149
        57        2.0000           -0.3715664             -10.1108
        58        2.0000           -0.3682025             -10.0193 (HOMO)
        59                         -0.2651740              -7.2158 (LUMO)
        60                         -0.2330535              -6.3417
        61                         -0.2152508              -5.8573
        62                         -0.1892380              -5.1494
        63                         -0.1604276              -4.3655
        64                         -0.1527486              -4.1565
        65                         -0.1481682              -4.0319
        66                         -0.1419197              -3.8618
        67                         -0.1229027              -3.3444
        68                         -0.1185807              -3.2267
        69                         -0.0342534              -0.9321
       ...                                ...                  ...
       128                          1.3030535              35.4579
      -------------------------------------------------------------
                  HL-Gap            0.1030285 Eh            2.8035 eV
             Fermi-level           -0.3166883 Eh           -8.6175 eV

     #   Z          covCN         q      C6AA      α(0)
     1   6 C        3.751    -0.116    22.790     6.808
     2   6 C        3.868     0.082    19.182     6.228
     3   8 O        1.655    -0.257    18.278     5.771
     4  15 P        3.868     0.387   144.179    21.570
     5  16 S        0.926    -0.415   157.335    21.216
     6   8 O        1.656    -0.243    18.043     5.734
     7   6 C        3.872     0.087    19.103     6.215
     8   6 C        3.751    -0.114    22.735     6.800
     9  16 S        2.027    -0.112   145.723    20.317
    10   6 C        3.809     0.035    19.979     6.363
    11  16 S        1.985    -0.126   146.335    20.360
    12  15 P        3.909     0.380   144.453    21.590
    13  16 S        0.926    -0.415   157.349    21.217
    14   8 O        1.654    -0.249    18.138     5.749
    15   6 C        3.870     0.092    19.014     6.200
    16   6 C        3.751    -0.114    22.754     6.803
    17   8 O        1.655    -0.255    18.245     5.766
    18   6 C        3.864     0.086    19.123     6.219
    19   6 C        3.751    -0.115    22.761     6.804
    20   1 H        0.925     0.062     2.177     2.307
    21   1 H        0.925     0.054     2.270     2.356
    22   1 H        0.925     0.064     2.149     2.292
    23   1 H        0.924     0.063     2.167     2.302
    24   1 H        0.924     0.063     2.163     2.300
    25   1 H        0.924     0.060     2.195     2.317
    26   1 H        0.924     0.067     2.119     2.277
    27   1 H        0.925     0.058     2.218     2.329
    28   1 H        0.925     0.061     2.187     2.313
    29   1 H        0.925     0.058     2.217     2.328
    30   1 H        0.925     0.083     1.949     2.183
    31   1 H        0.925     0.090     1.878     2.143
    32   1 H        0.924     0.051     2.305     2.374
    33   1 H        0.924     0.059     2.216     2.328
    34   1 H        0.925     0.059     2.213     2.326
    35   1 H        0.925     0.064     2.154     2.295
    36   1 H        0.925     0.070     2.086     2.258
    37   1 H        0.924     0.061     2.184     2.311
    38   1 H        0.924     0.049     2.328     2.386
    39   1 H        0.925     0.063     2.169     2.303
    40   1 H        0.925     0.062     2.171     2.304
    41   1 H        0.925     0.060     2.193     2.316

 Mol. C6AA /au·bohr⁶  :      26566.426740
 Mol. C8AA /au·bohr⁸  :     863248.162013
 Mol. α(0) /au        :        258.378726


Wiberg/Mayer (AO) data.
largest (>0.10) Wiberg bond orders for each atom

 ---------------------------------------------------------------------------
     #   Z sym  total        # sym  WBO       # sym  WBO       # sym  WBO
 ---------------------------------------------------------------------------
     1   6 C    3.991 --     2 C    1.021    21 H    0.984    20 H    0.980
                            22 H    0.975
     2   6 C    3.911 --     1 C    1.021    24 H    0.969    23 H    0.967
                             3 O    0.910
     3   8 O    2.398 --     4 P    1.277     2 C    0.910
     4  15 P    5.272 --     5 S    1.570     6 O    1.308     3 O    1.277
                             9 S    0.979
     5  16 S    1.866 --     4 P    1.570     9 S    0.101
     6   8 O    2.404 --     4 P    1.308     7 C    0.896
     7   6 C    3.910 --     8 C    1.023    26 H    0.969    25 H    0.967
                             6 O    0.896
     8   6 C    3.992 --     7 C    1.023    28 H    0.984    27 H    0.980
                            29 H    0.977
     9  16 S    2.281 --    10 C    0.989     4 P    0.979     5 S    0.101
    10   6 C    3.963 --     9 S    0.989    11 S    0.978    30 H    0.964
                            31 H    0.963
    11  16 S    2.295 --    12 P    1.007    10 C    0.978    13 S    0.141
    12  15 P    5.276 --    13 S    1.533    17 O    1.306    14 O    1.305
                            11 S    1.007
    13  16 S    1.866 --    12 P    1.533    11 S    0.141
    14   8 O    2.395 --    12 P    1.305    15 C    0.891
    15   6 C    3.910 --    16 C    1.021    33 H    0.971    32 H    0.969
                            14 O    0.891
    16   6 C    3.987 --    15 C    1.021    36 H    0.980    35 H    0.980
                            34 H    0.979
    17   8 O    2.401 --    12 P    1.306    18 C    0.904
    18   6 C    3.910 --    19 C    1.019    38 H    0.974    37 H    0.966
                            17 O    0.904
    19   6 C    3.989 --    18 C    1.019    40 H    0.985    39 H    0.984
                            41 H    0.980
    20   1 H    0.996 --     1 C    0.980
    21   1 H    0.997 --     1 C    0.984
    22   1 H    0.996 --     1 C    0.975
    23   1 H    0.996 --     2 C    0.967
    24   1 H    0.996 --     2 C    0.969
    25   1 H    0.996 --     7 C    0.967
    26   1 H    0.995 --     7 C    0.969
    27   1 H    0.996 --     8 C    0.980
    28   1 H    0.996 --     8 C    0.984
    29   1 H    0.997 --     8 C    0.977
    30   1 H    0.993 --    10 C    0.964
    31   1 H    0.989 --    10 C    0.963
    32   1 H    0.997 --    15 C    0.969
    33   1 H    0.997 --    15 C    0.971
    34   1 H    0.995 --    16 C    0.979
    35   1 H    0.996 --    16 C    0.980
    36   1 H    0.995 --    16 C    0.980
    37   1 H    0.996 --    18 C    0.966
    38   1 H    0.998 --    18 C    0.974
    39   1 H    0.996 --    19 C    0.984
    40   1 H    0.996 --    19 C    0.985
    41   1 H    0.995 --    19 C    0.980
 ---------------------------------------------------------------------------

Topologies differ in total number of bonds
Writing topology from bond orders to xtbtopo.mol

molecular dipole:
                 x           y           z       tot (Debye)
 q only:        0.171      -1.594       0.761
   full:        0.085      -1.990       1.122       5.811
molecular quadrupole (traceless):
                xx          xy          yy          xz          yz          zz
 q only:       13.203      -5.722      -9.455     -16.032       2.413      -3.748
  q+dip:       13.739     -10.729     -10.937     -18.802       3.696      -2.803
   full:       14.488     -10.248     -11.168     -19.351       3.784      -3.320


           -------------------------------------------------
          | TOTAL ENERGY              -65.009873926955 Eh   |
          | GRADIENT NORM               0.029025248930 Eh/α |
          | HOMO-LUMO GAP               2.803549105848 eV   |
           -------------------------------------------------

------------------------------------------------------------------------
 * finished run on 2025/04/09 at 05:21:11.499     
------------------------------------------------------------------------
 total:
 * wall-time:     0 d,  0 h,  0 min,  0.097 sec
 *  cpu-time:     0 d,  0 h,  0 min,  0.066 sec
 * ratio c/w:     0.682 speedup
 SCF:
 * wall-time:     0 d,  0 h,  0 min,  0.066 sec
 *  cpu-time:     0 d,  0 h,  0 min,  0.053 sec
 * ratio c/w:     0.807 speedup

