      -----------------------------------------------------------      
     |                   =====================                   |     
     |                           x T B                           |     
     |                   =====================                   |     
     |                         S. Grimme                         |     
     |          Mulliken Center for Theoretical Chemistry        |     
     |                    University of Bonn                     |     
      -----------------------------------------------------------      

   * xtb version 6.7.1 (edcfbbe) compiled by 'albert@albert-system' on 2024-07-22

   xtb is free software: you can redistribute it and/or modify it under
   the terms of the GNU Lesser General Public License as published by
   the Free Software Foundation, either version 3 of the License, or
   (at your option) any later version.
   
   xtb is distributed in the hope that it will be useful,
   but WITHOUT ANY WARRANTY; without even the implied warranty of
   MERCHANTABILITY or FITNESS FOR A PARTICULAR PURPOSE.  See the
   GNU Lesser General Public License for more details.
   
   Cite this work as:
   * C. Bannwarth, E. Caldeweyher, S. Ehlert, A. Hansen, P. Pracht,
     J. Seibert, S. Spicher, S. Grimme, WIREs Comput. Mol. Sci., 2020, 11,
     e01493. DOI: 10.1002/wcms.1493
   
   for GFN2-xTB:
   * C. Bannwarth, S. Ehlert and S. Grimme., J. Chem. Theory Comput., 2019,
     15, 1652-1671. DOI: 10.1021/acs.jctc.8b01176
   for GFN1-xTB:
   * S. Grimme, C. Bannwarth, P. Shushkov, J. Chem. Theory Comput., 2017,
     13, 1989-2009. DOI: 10.1021/acs.jctc.7b00118
   for GFN0-xTB:
   * P. Pracht, E. Caldeweyher, S. Ehlert, S. Grimme, ChemRxiv, 2019, preprint.
     DOI: 10.26434/chemrxiv.8326202.v1
   for GFN-FF:
   * S. Spicher and S. Grimme, Angew. Chem. Int. Ed., 2020, 59, 15665-15673.
     DOI: 10.1002/anie.202004239
   
   for ALPB and GBSA implicit solvation:
   * S. Ehlert, M. Stahn, S. Spicher, S. Grimme, J. Chem. Theory Comput.,
     2021, 17, 4250-4261. DOI: 10.1021/acs.jctc.1c00471
   
   for ddCOSMO and CPCM-X implicit solvation:
   * M. Stahn, S. Ehlert, S. Grimme, J. Phys. Chem. A,
     2023, XX, XXXX-XXXX. DOI: 10.1021/acs.jpca.3c04382
   
   for DFT-D4:
   * E. Caldeweyher, C. Bannwarth and S. Grimme, J. Chem. Phys., 2017,
     147, 034112. DOI: 10.1063/1.4993215
   * E. Caldeweyher, S. Ehlert, A. Hansen, H. Neugebauer, S. Spicher,
     C. Bannwarth and S. Grimme, J. Chem. Phys., 2019, 150, 154122.
     DOI: 10.1063/1.5090222
   * E. Caldeweyher, J.-M. Mewes, S. Ehlert and S. Grimme, Phys. Chem. Chem. Phys.
     2020, 22, 8499-8512. DOI: 10.1039/D0CP00502A
   
   for sTDA-xTB:
   * S. Grimme and C. Bannwarth, J. Chem. Phys., 2016, 145, 054103.
     DOI: 10.1063/1.4959605
   
   in the mass-spec context:
   * V. Asgeirsson, C. Bauer and S. Grimme, Chem. Sci., 2017, 8, 4879.
     DOI: 10.1039/c7sc00601b
   * J. Koopman and S. Grimme, ACS Omega 2019, 4, 12, 15120-15133.
     DOI: 10.1021/acsomega.9b02011
   
   for metadynamics refer to:
   * S. Grimme, J. Chem. Theory Comput., 2019, 155, 2847-2862
     DOI: 10.1021/acs.jctc.9b00143
   
   for SPH calculations refer to:
   * S. Spicher and S. Grimme, J. Chem. Theory Comput., 2021, 17, 1701-1714
     DOI: 10.1021/acs.jctc.0c01306
   
   for ONIOM refer to:
   * C. Plett, A. Katbashev, S. Ehlert, S. Grimme, M. Bursch,
     Phys. Chem. Chem. Phys., 2023, 25, 17860-17868. DOI: 10.1039/D3CP02178E
   
   for DIPRO refer to:
   * J. Kohn, N. Gildemeister, S. Grimme, D. Fazzi, A. Hansen,
     J. Chem. Phys., 2023, just accepted.
   
   for PTB refer to:
   * S. Grimme, M. Mueller, A. Hansen, J. Chem. Phys., 2023, 158, 124111.
     DOI: 10.1063/5.0137838
   
   with help from (in alphabetical order)
   P. Atkinson, C. Bannwarth, F. Bohle, G. Brandenburg, E. Caldeweyher
   M. Checinski, S. Dohm, S. Ehlert, S. Ehrlich, I. Gerasimov, C. Hölzer
   A. Katbashev, J. Kohn, J. Koopman, C. Lavigne, S. Lehtola, F. März, M. Müller,
   F. Musil, H. Neugebauer, J. Pisarek, C. Plett, P. Pracht, F. Pultar,
   J. Seibert, P. Shushkov, S. Spicher, M. Stahn, M. Steiner, T. Strunk,
   J. Stückrath, T. Rose, and J. Unsleber
   
 * started run on 2025/04/09 at 05:20:43.791     
   ID    Z sym.   atoms
    1    6 C      1, 2, 7, 8, 10, 15, 16, 18, 19
    2    8 O      3, 6, 14, 17
    3   15 P      4, 12
    4   16 S      5, 9, 11, 13
    5    1 H      20-41

           -------------------------------------------------
          |                Calculation Setup                |
           -------------------------------------------------

          program call               : /srv/scratch/z5358697/.xtb/bin/xtb gas.coord --gfn2 --sp --chrg 0 --norestart --parallel 1
          hostname                   : k163
          coordinate file            : gas.coord
          omp threads                :                     1


           -------------------------------------------------
          |                 G F N 2 - x T B                 |
           -------------------------------------------------

        Reference                      10.1021/acs.jctc.8b01176
      * Hamiltonian:
        H0-scaling (s, p, d)           1.850000    2.230000    2.230000
        zeta-weighting                 0.500000
      * Dispersion:
        s8                             2.700000
        a1                             0.520000
        a2                             5.000000
        s9                             5.000000
      * Repulsion:
        kExp                           1.500000    1.000000
        rExp                           1.000000
      * Coulomb:
        alpha                          2.000000
        third order                    shell-resolved
        anisotropic                    true
        a3                             3.000000
        a5                             4.000000
        cn-shift                       1.200000
        cn-exp                         4.000000
        max-rad                        5.000000


          ...................................................
          :                      SETUP                      :
          :.................................................:
          :  # basis functions                 134          :
          :  # atomic orbitals                 128          :
          :  # shells                           66          :
          :  # electrons                       116          :
          :  max. iterations                   250          :
          :  Hamiltonian                  GFN2-xTB          :
          :  restarted?                      false          :
          :  GBSA solvation                  false          :
          :  PC potential                    false          :
          :  electronic temp.          300.0000000     K    :
          :  accuracy                    1.0000000          :
          :  -> integral cutoff          0.2500000E+02      :
          :  -> integral neglect         0.1000000E-07      :
          :  -> SCF convergence          0.1000000E-05 Eh   :
          :  -> wf. convergence          0.1000000E-03 e    :
          :  Broyden damping             0.4000000          :
          :  net charge                          0          :
          :  unpaired electrons                  0          :
          ...................................................

 iter      E             dE          RMSdq      gap      omega  full diag
   1    -65.3715702 -0.653716E+02  0.640E+00    4.29       0.0  T
   2    -65.5484531 -0.176883E+00  0.417E+00    3.03       1.0  T
   3    -65.5679984 -0.195453E-01  0.149E+00    2.92       1.0  T
   4    -65.5706097 -0.261129E-02  0.586E-01    2.66       1.0  T
   5    -65.5714242 -0.814497E-03  0.263E-01    2.79       1.0  T
   6    -65.5716162 -0.191985E-03  0.132E-01    2.75       1.0  T
   7    -65.5716717 -0.555540E-04  0.514E-02    2.77       1.0  T
   8    -65.5716827 -0.109528E-04  0.246E-02    2.77       1.0  T
   9    -65.5716844 -0.177670E-05  0.650E-03    2.77       2.4  T
  10    -65.5716846 -0.153954E-06  0.318E-03    2.77       4.9  T
  11    -65.5716846 -0.102259E-07  0.772E-04    2.77      20.2  T
  12    -65.5716846 -0.114025E-08  0.396E-04    2.77      39.4  T

   *** convergence criteria satisfied after 12 iterations ***

         #    Occupation            Energy/Eh            Energy/eV
      -------------------------------------------------------------
         1        2.0000           -0.7556492             -20.5623
       ...           ...                  ...                  ...
        52        2.0000           -0.4314427             -11.7402
        53        2.0000           -0.4076639             -11.0931
        54        2.0000           -0.3981426             -10.8340
        55        2.0000           -0.3695081             -10.0548
        56        2.0000           -0.3662289              -9.9656
        57        2.0000           -0.3624307              -9.8622
        58        2.0000           -0.3575765              -9.7302 (HOMO)
        59                         -0.2556775              -6.9573 (LUMO)
        60                         -0.2422668              -6.5924
        61                         -0.2040664              -5.5529
        62                         -0.1746089              -4.7513
        63                         -0.1584889              -4.3127
       ...                                ...                  ...
       128                          1.3156149              35.7997
      -------------------------------------------------------------
                  HL-Gap            0.1018990 Eh            2.7728 eV
             Fermi-level           -0.3066270 Eh           -8.3437 eV

 SCC (total)                   0 d,  0 h,  0 min,  0.053 sec
 SCC setup                      ...        0 min,  0.000 sec (  0.523%)
 Dispersion                     ...        0 min,  0.000 sec (  0.609%)
 classical contributions        ...        0 min,  0.000 sec (  0.112%)
 integral evaluation            ...        0 min,  0.008 sec ( 15.939%)
 iterations                     ...        0 min,  0.023 sec ( 44.035%)
 molecular gradient             ...        0 min,  0.020 sec ( 38.379%)
 printout                       ...        0 min,  0.000 sec (  0.375%)

         :::::::::::::::::::::::::::::::::::::::::::::::::::::
         ::                     SUMMARY                     ::
         :::::::::::::::::::::::::::::::::::::::::::::::::::::
         :: total energy             -65.010457987452 Eh    ::
         :: gradient norm              0.039162993104 Eh/a0 ::
         :: HOMO-LUMO gap              2.772812955219 eV    ::
         ::.................................................::
         :: SCC energy               -65.570619956729 Eh    ::
         :: -> isotropic ES            0.108303127006 Eh    ::
         :: -> anisotropic ES         -0.013232620789 Eh    ::
         :: -> anisotropic XC          0.030784015649 Eh    ::
         :: -> dispersion             -0.056195164117 Eh    ::
         :: repulsion energy           0.560161969278 Eh    ::
         :: add. restraining           0.000000000000 Eh    ::
         :: total charge              -0.000000000000 e     ::
         :::::::::::::::::::::::::::::::::::::::::::::::::::::

           -------------------------------------------------
          |                Property Printout                |
           -------------------------------------------------

    * Orbital Energies and Occupations

         #    Occupation            Energy/Eh            Energy/eV
      -------------------------------------------------------------
         1        2.0000           -0.7556492             -20.5623
       ...           ...                  ...                  ...
        46        2.0000           -0.4612984             -12.5526
        47        2.0000           -0.4600590             -12.5188
        48        2.0000           -0.4595224             -12.5042
        49        2.0000           -0.4587284             -12.4826
        50        2.0000           -0.4477489             -12.1839
        51        2.0000           -0.4353217             -11.8457
        52        2.0000           -0.4314427             -11.7402
        53        2.0000           -0.4076639             -11.0931
        54        2.0000           -0.3981426             -10.8340
        55        2.0000           -0.3695081             -10.0548
        56        2.0000           -0.3662289              -9.9656
        57        2.0000           -0.3624307              -9.8622
        58        2.0000           -0.3575765              -9.7302 (HOMO)
        59                         -0.2556775              -6.9573 (LUMO)
        60                         -0.2422668              -6.5924
        61                         -0.2040664              -5.5529
        62                         -0.1746089              -4.7513
        63                         -0.1584889              -4.3127
        64                         -0.1546283              -4.2077
        65                         -0.1507508              -4.1021
        66                         -0.1492105              -4.0602
        67                         -0.1119257              -3.0457
        68                         -0.1067140              -2.9038
        69                         -0.0395917              -1.0773
       ...                                ...                  ...
       128                          1.3156149              35.7997
      -------------------------------------------------------------
                  HL-Gap            0.1018990 Eh            2.7728 eV
             Fermi-level           -0.3066270 Eh           -8.3437 eV

     #   Z          covCN         q      C6AA      α(0)
     1   6 C        3.751    -0.116    22.786     6.808
     2   6 C        3.863     0.083    19.165     6.226
     3   8 O        1.655    -0.258    18.288     5.773
     4  15 P        3.820     0.380   144.448    21.590
     5  16 S        0.927    -0.401   156.662    21.170
     6   8 O        1.655    -0.239    17.972     5.723
     7   6 C        3.829     0.089    19.087     6.216
     8   6 C        3.751    -0.113    22.722     6.798
     9  16 S        2.016    -0.149   147.316    20.428
    10   6 C        3.808     0.043    19.850     6.342
    11  16 S        2.013    -0.160   147.791    20.461
    12  15 P        3.775     0.379   144.470    21.591
    13  16 S        0.928    -0.386   155.946    21.122
    14   8 O        1.654    -0.236    17.926     5.715
    15   6 C        3.811     0.082    19.209     6.239
    16   6 C        3.751    -0.117    22.801     6.810
    17   8 O        1.655    -0.255    18.238     5.765
    18   6 C        3.828     0.082    19.199     6.235
    19   6 C        3.751    -0.118    22.830     6.814
    20   1 H        0.925     0.061     2.191     2.315
    21   1 H        0.925     0.060     2.198     2.318
    22   1 H        0.925     0.059     2.207     2.323
    23   1 H        0.924     0.063     2.165     2.301
    24   1 H        0.924     0.061     2.191     2.315
    25   1 H        0.924     0.066     2.132     2.283
    26   1 H        0.924     0.048     2.339     2.392
    27   1 H        0.925     0.059     2.210     2.325
    28   1 H        0.925     0.078     2.001     2.212
    29   1 H        0.925     0.052     2.291     2.367
    30   1 H        0.925     0.082     1.960     2.189
    31   1 H        0.924     0.090     1.878     2.143
    32   1 H        0.924     0.068     2.110     2.272
    33   1 H        0.924     0.057     2.231     2.336
    34   1 H        0.925     0.056     2.241     2.341
    35   1 H        0.925     0.061     2.186     2.312
    36   1 H        0.925     0.069     2.099     2.265
    37   1 H        0.924     0.055     2.253     2.347
    38   1 H        0.924     0.066     2.133     2.284
    39   1 H        0.925     0.069     2.097     2.264
    40   1 H        0.925     0.068     2.108     2.271
    41   1 H        0.925     0.059     2.216     2.328

 Mol. C6AA /au·bohr⁶  :      26550.993504
 Mol. C8AA /au·bohr⁸  :     863333.785654
 Mol. α(0) /au        :        258.328983


Wiberg/Mayer (AO) data.
largest (>0.10) Wiberg bond orders for each atom

 ---------------------------------------------------------------------------
     #   Z sym  total        # sym  WBO       # sym  WBO       # sym  WBO
 ---------------------------------------------------------------------------
     1   6 C    3.991 --     2 C    1.022    20 H    0.984    22 H    0.981
                            21 H    0.977
     2   6 C    3.912 --     1 C    1.022    24 H    0.970    23 H    0.967
                             3 O    0.910
     3   8 O    2.400 --     4 P    1.298     2 C    0.910
     4  15 P    5.281 --     5 S    1.531     6 O    1.315     3 O    1.298
                             9 S    0.991
     5  16 S    1.892 --     4 P    1.531     9 S    0.147
     6   8 O    2.409 --     4 P    1.315     7 C    0.893
     7   6 C    3.911 --     8 C    1.022    26 H    0.973    25 H    0.969
                             6 O    0.893
     8   6 C    3.989 --     7 C    1.022    29 H    0.981    28 H    0.980
                            27 H    0.976
     9  16 S    2.285 --     4 P    0.991    10 C    0.981     5 S    0.147
    10   6 C    3.956 --    11 S    0.993     9 S    0.981    30 H    0.968
                            31 H    0.941
    11  16 S    2.274 --    10 C    0.993    12 P    0.949    13 S    0.144
    12  15 P    5.282 --    13 S    1.557    14 O    1.342    17 O    1.305
                            11 S    0.949
    13  16 S    1.894 --    12 P    1.557    11 S    0.144
    14   8 O    2.424 --    12 P    1.342    15 C    0.888
    15   6 C    3.912 --    16 C    1.022    33 H    0.973    32 H    0.970
                            14 O    0.888
    16   6 C    3.990 --    15 C    1.022    36 H    0.981    34 H    0.980
                            35 H    0.978
    17   8 O    2.403 --    12 P    1.305    18 C    0.904
    18   6 C    3.911 --    19 C    1.022    37 H    0.970    38 H    0.969
                            17 O    0.904
    19   6 C    3.988 --    18 C    1.022    39 H    0.982    41 H    0.980
                            40 H    0.974
    20   1 H    0.996 --     1 C    0.984
    21   1 H    0.996 --     1 C    0.977
    22   1 H    0.996 --     1 C    0.981
    23   1 H    0.996 --     2 C    0.967
    24   1 H    0.996 --     2 C    0.970
    25   1 H    0.996 --     7 C    0.969
    26   1 H    0.997 --     7 C    0.973
    27   1 H    0.996 --     8 C    0.976
    28   1 H    0.994 --     8 C    0.980
    29   1 H    0.996 --     8 C    0.981
    30   1 H    0.993 --    10 C    0.968
    31   1 H    0.992 --    10 C    0.941
    32   1 H    0.995 --    15 C    0.970
    33   1 H    0.997 --    15 C    0.973
    34   1 H    0.996 --    16 C    0.980
    35   1 H    0.996 --    16 C    0.978
    36   1 H    0.995 --    16 C    0.981
    37   1 H    0.997 --    18 C    0.970
    38   1 H    0.996 --    18 C    0.969
    39   1 H    0.995 --    19 C    0.982
    40   1 H    0.995 --    19 C    0.974
    41   1 H    0.996 --    19 C    0.980
 ---------------------------------------------------------------------------

Topologies differ in total number of bonds
Writing topology from bond orders to xtbtopo.mol

molecular dipole:
                 x           y           z       tot (Debye)
 q only:       -0.385      -1.242       1.638
   full:       -0.278      -0.876       2.284       6.258
molecular quadrupole (traceless):
                xx          xy          yy          xz          yz          zz
 q only:       21.694       4.240      -9.036       2.477       7.570     -12.658
  q+dip:       25.318       3.215     -12.948       2.241      10.807     -12.370
   full:       25.970       4.006     -12.553       2.236      11.314     -13.417


           -------------------------------------------------
          | TOTAL ENERGY              -65.010457987452 Eh   |
          | GRADIENT NORM               0.039162993104 Eh/α |
          | HOMO-LUMO GAP               2.772812955219 eV   |
           -------------------------------------------------

------------------------------------------------------------------------
 * finished run on 2025/04/09 at 05:20:43.877     
------------------------------------------------------------------------
 total:
 * wall-time:     0 d,  0 h,  0 min,  0.086 sec
 *  cpu-time:     0 d,  0 h,  0 min,  0.066 sec
 * ratio c/w:     0.767 speedup
 SCF:
 * wall-time:     0 d,  0 h,  0 min,  0.053 sec
 *  cpu-time:     0 d,  0 h,  0 min,  0.052 sec
 * ratio c/w:     0.990 speedup

