
                                 *****************
                                 * O   R   C   A *
                                 *****************

                                            #,                                       
                                            ###                                      
                                            ####                                     
                                            #####                                    
                                            ######                                   
                                           ########,                                 
                                     ,,################,,,,,                         
                               ,,#################################,,                 
                          ,,##########################################,,             
                       ,#########################################, ''#####,          
                    ,#############################################,,   '####,        
                  ,##################################################,,,,####,       
                ,###########''''           ''''###############################       
              ,#####''   ,,,,##########,,,,          '''####'''          '####       
            ,##' ,,,,###########################,,,                        '##       
           ' ,,###''''                  '''############,,,                           
         ,,##''                                '''############,,,,        ,,,,,,###''
      ,#''                                            '''#######################'''  
     '                                                          ''''####''''         
             ,#######,   #######,   ,#######,      ##                                
            ,#'     '#,  ##    ##  ,#'     '#,    #''#        ,####,   ,####,        
            ##       ##  ##   ,#'  ##            #'  '#       #'       #'  '#        
            ##       ##  #######   ##           ,######,      #####,   #    #        
            '#,     ,#'  ##    ##  '#,     ,#' ,#      #,     #,   #   #,  ,#        
             '#######'   ##     ##  '#######'  #'      '#     '####' # '####'        



                #########################################################
                #                        -***-                          #
                #          Department of theory and spectroscopy        #
                #                                                       #
                #                      Frank Neese                      #
                #                                                       #
                #     Directorship, Architecture, Infrastructure        #
                #                    SHARK, DRIVERS                     #
                #        Core code/Algorithms in most modules           #
                #                                                       #
                #        Max Planck Institute fuer Kohlenforschung      #
                #                Kaiser Wilhelm Platz 1                 #
                #                 D-45470 Muelheim/Ruhr                 #
                #                      Germany                          #
                #                                                       #
                #                  All rights reserved                  #
                #                        -***-                          #
                #########################################################


                         Program Version 6.0.1  -  RELEASE   -


 With contributions from (in alphabetic order):
[Max-Planck-Institut fuer Kohlenforschung]                               
  Daniel Aravena         : Magnetic Suceptibility                        
  Michael Atanasov       : Ab Initio Ligand Field Theory (pilot matlab implementation)
  Alexander A. Auer      : GIAO ZORA, VPT2 properties, NMR spectrum      
  Ute Becker             : All parallelization in ORCA, NUMFREQ, NUMCALC 
  Giovanni Bistoni       : ED, misc. LED, open-shell LED, HFLD           
  Martin Brehm           : Molecular dynamics                            
  Dmytro Bykov           : pre 5.0 version of the SCF Hessian            
  Marcos Casanova-Páez   : Triplet and SCS-CIS(D). UHF-(DLPNO)-IP/EA/STEOM-CCSD. UHF-CVS-IP/STEOM-CCSD   
  Vijay G. Chilkuri      : MRCI spin determinant printing, contributions to CSF-ICE 
  Pauline Colinet        : FMM embedding                                 
  Dipayan Datta          : RHF DLPNO-CCSD density                        
  Achintya Kumar Dutta   : EOM-CC, STEOM-CC                              
  Nicolas Foglia         : Exact transition moments, OPA infrastructure, MCD improvements    
  Dmitry Ganyushin       : Spin-Orbit,Spin-Spin,Magnetic field MRCI      
  Miquel Garcia-Rates    : C-PCM and meta-GGA Hessian, CCSD/C-PCM, Gaussian charge scheme 
  Tiago L. C. Gouveia    : GS-ROHF, GS-ROCIS                             
  Yang Guo               : DLPNO-NEVPT2, F12-NEVPT2, CIM, IAO-localization        
  Andreas Hansen         : Spin unrestricted coupled pair/coupled cluster methods 
  Ingolf Harden          : AUTO-CI MPn and infrastructure                
  Benjamin Helmich-Paris : MC-RPA, TRAH-(SCF,CASSCF), AVAS, COSX integrals, SCF dyn. polar. 
  Lee Huntington         : MR-EOM, pCC                                   
  Robert Izsak           : Overlap fitted RIJCOSX, COSX-SCS-MP3, EOM     
  Riya Kayal             : Wick's Theorem for AUTO-CI, AUTO-CI UHF-CCSDT 
  Emily Kempfer          : AUTO-CI, RHF CISDT and CCSDT                  
  Christian Kollmar      : KDIIS, OOCD, Brueckner-CCSD(T), CCSD density, CASPT2, CASPT2-K, improved NEVPT2 
  Axel Koslowski         : Symmetry handling                             
  Simone Kossmann        : meta-GGA functionals, TD-DFT gradient, OOMP2, (MP2 Hessian; deprecated post 5.0) 
  Lucas Lang             : DCDCAS                                        
  Marvin Lechner         : AUTO-CI (C++ implementation), FIC-MRCC        
  Spencer Leger          : CASSCF response                               
  Dagmar Lenk            : GEPOL surface, SMD, ORCA-2-JSON               
  Dimitrios Liakos       : Extrapolation schemes; Compound Job, initial MDCI parallelization 
  Dimitrios Manganas     : Further ROCIS development; embedding schemes. LFT, Crystal Embedding 
  Dimitrios Pantazis     : SARC Basis sets                               
  Anastasios Papadopoulos: AUTO-CI, single reference methods and gradients 
  Taras Petrenko         : pre 6.0 DFT Hessian and TD-DFT gradient, (ASA, deprecated), ECA, 1-Electron XAS/XES, NRVS 
  Peter Pinski           : DLPNO-MP2, DLPNO-MP2 Gradient                 
  Christoph Reimann      : Effective Core Potentials                     
  Marius Retegan         : Local ZFS, SOC                                
  Christoph Riplinger    : Optimizer, TS searches, QM/MM, DLPNO-CCSD(T), (RO)-DLPNO pert. Triples 
  Michael Roemelt        : Original ROCIS implementation                 
  Masaaki Saitow         : Open-shell DLPNO-CCSD energy and density      
  Barbara Sandhoefer     : DKH picture change effects                    
  Kantharuban Sivalingam : CASSCF convergence/infrastructure, NEVPT2 and variants, FIC-MRCI 
  Bernardo de Souza      : ESD, SOC TD-DFT                               
  Georgi L. Stoychev     : AutoAux, RI-MP2 NMR, DLPNO-MP2 response, X2C  
  Van Anh Tran           : RI-MP2 g-tensors                              
  Willem Van den Heuvel  : Paramagnetic NMR                              
  Zikuan Wang            : NOTCH, Electric field optimization            
  Frank Wennmohs         : Technical directorship and infrastructure     
  Hang Xu                : AUTO-CI-Response properties                   
                                                                         
[FACCTs GmbH]                                                            
  Markus Bursch, Miquel Garcia-Rates, Christoph Riplinger, Bernardo de Souza, Georgi L. Stoychev 
                                                                 
  APM, Basis sets (HGBS, AHGBS, def-TZVP (Ac-Lr), def2-XVPD (La-Lu)), CI-OPT, improved COSX, DLPNO-Multilevel,           
  DOCKER, DRACO, updates on ESD, GOAT, IRC, LR-CPCM, MBIS, meta-GGA TD-DFT gradient, ML-optimized integration grids, 
  MM, NACMEs, nearIR, NEB, NEB-TS, NL-DFT gradient (VV10), 2- and 3-layer-ONIOM, interface openCOSMO-RS, QMMM,   
  Crystal-QMMM, SF, symmetry and pop. for TD-DFT, r2SCAN hybrids, SOLVATOR                                   
                                                                         
[Other institutions]                                                     
  V. Asgeirsson          : NEB                                           
  Christoph Bannwarth    : sTDA-DFT, sTD-DFT, PBEh-3c, B97-3c, D3        
  Sebastian Ehlert       : rSCAN, r2SCAN, r2SCAN-3c, D4, dhf basis sets  
  Marvin Friede          : D4 for Fr, Ra, Ac-Lr                          
  Lars Goerigk           : TD-DFT with DH, B97 family of functionals     
  Stefan Grimme          : VdW corrections, initial TS optimization, DFT functionals, gCP, sTDA/sTD-DF 
  Waldemar Hujo          : DFT-NL                                        
  H. Jonsson             : NEB                                           
  Holger Kruse           : gCP                                           
  Marcel Mueller         : wB97X-3c, vDZP basis set                      
  Hagen Neugebauer       : wr2SCAN                                       
  Tobias Risthaus        : range-separated hybrid DFT                    
  Lukas Wittmann         : regularized MP2, r2SCAN double-hybrids, wr2SCAN        
                                                                         
We gratefully acknowledge several colleagues who have allowed us to      
interface, adapt or use parts of their codes:                            
  Ed Valeev, F. Pavosevic, A. Kumar             : LibInt (2-el integral package), F12 methods 
  Garnet Chan, S. Sharma, J. Yang, R. Olivares  : DMRG                   
  Ulf Ekstrom                                   : XCFun DFT Library      
  Mihaly Kallay                                 : mrcc  (arbitrary order and MRCC methods)
  Frank Weinhold                                : gennbo (NPA and NBO analysis)           
  Simon Mueller                                 : openCOSMO-RS                            
  Christopher J. Cramer and Donald G. Truhlar   : smd solvation model                     
  S Lehtola, MJT Oliveira, MAL Marques          : LibXC Library                           
  Liviu Ungur et al                             : ANISO software                          


 Your calculation uses the libint2 library for the computation of 2-el integrals
 For citations please refer to: http://libint.valeyev.net

 Your ORCA version has been built with support for libXC version: 6.2.2
 For citations please refer to: https://libxc.gitlab.io

 This ORCA versions uses:
   CBLAS   interface :  Fast vector & matrix operations
   LAPACKE interface :  Fast linear algebra routines
   SCALAPACK package :  Parallel linear algebra routines
   Shared memory     :  Shared parallel matrices
   BLAS/LAPACK       :  OpenBLAS 0.3.27  USE64BITINT DYNAMIC_ARCH NO_AFFINITY Zen SINGLE_THREADED
        Core in use  :  Zen
   Copyright (c) 2011-2014, The OpenBLAS Project


Your calculation utilizes the geometrical counterpoise correction gCP
Please cite in your paper:
H.Kruse, S. Grimme J.Chem.Phys., 136, (2012), 154101 
   

Your calculation utilizes the atom-pairwise dispersion correction
based on EEQ partial charges (D4)


================================================================================

----- Orbital basis set information -----
Your calculation utilizes the basis: def2-mTZVPP
   Stefan Grimme, Andreas Hansen, Sebastian Ehlert, and Jan-Michael Mewes 
   J. Chem. Phys. 154, 064103 (2021). DOI: 10.1063/5.0040021

----- AuxJ basis set information -----
Your calculation utilizes the auxiliary basis: def2/J
   F. Weigend, Phys. Chem. Chem. Phys. 8, 1057 (2006).

================================================================================
                                        WARNINGS
                       Please study these warnings very carefully!
================================================================================

WARNING: Old DensityContainer found on disk!
         Will remove this file - 
         If you want to keep old densities, please start your calculation with a different basename. 



WARNING: SCAN, rSCAN, or r2SCAN functional requested.
  ===> : libXC variant has now been activated.



================================================================================
                                       INPUT FILE
================================================================================
NAME = sp_gas.inp
|  1> ! r2scan-3c def2/J RI DEFGRID2 scfconv6 printgap
|  2> %output
|  3>     printlevel normal
|  4> end
|  5> * xyz 0 1
|  6> C 4.6291548477 -3.2345930692 -2.018004124
|  7> C 3.632125321 -3.5911737969 -0.9268473381
|  8> O 3.2732759884 -2.4287377829 -0.1545430633
|  9> C 2.2919851691 -1.6636898399 -0.5906353981
| 10> O 1.63942396 -1.8772512759 -1.5872419743
| 11> C 2.0871910144 -0.4708161093 0.3257923106
| 12> C 0.7187811648 0.1475959113 0.0923407108
| 13> H 0.5484227228 0.258901881 -0.987197919
| 14> C 0.5262241459 1.5107667604 0.7253356229
| 15> O -0.5096898755 1.8298378144 1.2744165647
| 16> O 1.5633786946 2.2881073563 0.5825970646
| 17> C 1.456471737 3.6429662314 1.0761254275
| 18> C 2.7440792433 4.3655249975 0.7370224324
| 19> S -0.6023233754 -0.9415990006 0.72715553
| 20> P -2.2628622492 0.1955941145 0.0487778822
| 21> S -1.9754096382 1.4295616961 -1.442846308
| 22> O -3.2860712406 -0.9895672795 -0.3286967622
| 23> C -3.057366408 -1.8284183196 -1.4626247457
| 24> O -3.0470262401 0.8179831335 1.2676005368
| 25> C -3.3848627864 0.055576752 2.4427309364
| 26> H 4.1731807219 -2.5540817901 -2.7335327945
| 27> H 5.5050800763 -2.7598528246 -1.5847713686
| 28> H 4.9315090213 -4.1383322477 -2.5366583324
| 29> H 4.0665637551 -4.2767408785 -0.1994002824
| 30> H 2.7220096415 -4.0173792278 -1.3579936734
| 31> H 2.8567242112 0.2697995039 0.0967779314
| 32> H 2.2094843343 -0.7944852856 1.3591985291
| 33> H 0.585983019 4.1082314813 0.6035474575
| 34> H 1.2815924572 3.5992503827 2.1550291137
| 35> H 2.8994930254 4.3643418461 -0.337583451
| 36> H 2.6787257611 5.3903450353 1.0865988965
| 37> H 3.5859395954 3.8763642919 1.2170096892
| 38> H -2.9034619826 -1.2183798512 -2.3543996125
| 39> H -3.9535409071 -2.4345692359 -1.5649547365
| 40> H -2.1829158944 -2.4580373825 -1.2937976707
| 41> H -2.4831366011 -0.3779854957 2.8754318961
| 42> H -4.0931354081 -0.7293671367 2.1833214541
| 43> H -3.8303341787 0.7749199321 3.124821382
| 44> *
| 45> 
| 46>                          ****END OF INPUT****
================================================================================

                       ****************************
                       * Single Point Calculation *
                       ****************************

---------------------------------
CARTESIAN COORDINATES (ANGSTROEM)
---------------------------------
  C      4.629155   -3.234593   -2.018004
  C      3.632125   -3.591174   -0.926847
  O      3.273276   -2.428738   -0.154543
  C      2.291985   -1.663690   -0.590635
  O      1.639424   -1.877251   -1.587242
  C      2.087191   -0.470816    0.325792
  C      0.718781    0.147596    0.092341
  H      0.548423    0.258902   -0.987198
  C      0.526224    1.510767    0.725336
  O     -0.509690    1.829838    1.274417
  O      1.563379    2.288107    0.582597
  C      1.456472    3.642966    1.076125
  C      2.744079    4.365525    0.737022
  S     -0.602323   -0.941599    0.727156
  P     -2.262862    0.195594    0.048778
  S     -1.975410    1.429562   -1.442846
  O     -3.286071   -0.989567   -0.328697
  C     -3.057366   -1.828418   -1.462625
  O     -3.047026    0.817983    1.267601
  C     -3.384863    0.055577    2.442731
  H      4.173181   -2.554082   -2.733533
  H      5.505080   -2.759853   -1.584771
  H      4.931509   -4.138332   -2.536658
  H      4.066564   -4.276741   -0.199400
  H      2.722010   -4.017379   -1.357994
  H      2.856724    0.269800    0.096778
  H      2.209484   -0.794485    1.359199
  H      0.585983    4.108231    0.603547
  H      1.281592    3.599250    2.155029
  H      2.899493    4.364342   -0.337583
  H      2.678726    5.390345    1.086599
  H      3.585940    3.876364    1.217010
  H     -2.903462   -1.218380   -2.354400
  H     -3.953541   -2.434569   -1.564955
  H     -2.182916   -2.458037   -1.293798
  H     -2.483137   -0.377985    2.875432
  H     -4.093135   -0.729367    2.183321
  H     -3.830334    0.774920    3.124821

----------------------------
CARTESIAN COORDINATES (A.U.)
----------------------------
  NO LB      ZA    FRAG     MASS         X           Y           Z
   0 C     6.0000    0    12.011    8.747835   -6.112495   -3.813475
   1 C     6.0000    0    12.011    6.863722   -6.786335   -1.751488
   2 O     8.0000    0    15.999    6.185595   -4.589649   -0.292044
   3 C     6.0000    0    12.011    4.331224   -3.143918   -1.116139
   4 O     8.0000    0    15.999    3.098062   -3.547491   -2.999453
   5 C     6.0000    0    12.011    3.944219   -0.889714    0.615658
   6 C     6.0000    0    12.011    1.358300    0.278916    0.174499
   7 H     1.0000    0     1.008    1.036369    0.489254   -1.865534
   8 C     6.0000    0    12.011    0.994420    2.854935    1.370686
   9 O     8.0000    0    15.999   -0.963174    3.457892    2.408298
  10 O     8.0000    0    15.999    2.954358    4.323896    1.100949
  11 C     6.0000    0    12.011    2.752333    6.884208    2.033582
  12 C     6.0000    0    12.011    5.185558    8.249647    1.392771
  13 S    16.0000    0    32.060   -1.138226   -1.779364    1.374125
  14 P    15.0000    0    30.974   -4.276190    0.369619    0.092177
  15 S    16.0000    0    32.060   -3.732983    2.701480   -2.726584
  16 O     8.0000    0    15.999   -6.209775   -1.870011   -0.621147
  17 C     6.0000    0    12.011   -5.777585   -3.455210   -2.763960
  18 O     8.0000    0    15.999   -5.758045    1.545764    2.395418
  19 C     6.0000    0    12.011   -6.396464    0.105025    4.616092
  20 H     1.0000    0     1.008    7.886169   -4.826515   -5.165628
  21 H     1.0000    0     1.008   10.403094   -5.215366   -2.994784
  22 H     1.0000    0     1.008    9.319201   -7.820315   -4.793590
  23 H     1.0000    0     1.008    7.684692   -8.081869   -0.376812
  24 H     1.0000    0     1.008    5.143853   -7.591747   -2.566236
  25 H     1.0000    0     1.008    5.398426    0.509847    0.182884
  26 H     1.0000    0     1.008    4.175320   -1.501360    2.568513
  27 H     1.0000    0     1.008    1.107347    7.763432    1.140539
  28 H     1.0000    0     1.008    2.421859    6.801598    4.072415
  29 H     1.0000    0     1.008    5.479248    8.247411   -0.637940
  30 H     1.0000    0     1.008    5.062058   10.186276    2.053374
  31 H     1.0000    0     1.008    6.776444    7.325267    2.299815
  32 H     1.0000    0     1.008   -5.486748   -2.302404   -4.449170
  33 H     1.0000    0     1.008   -7.471110   -4.600669   -2.957336
  34 H     1.0000    0     1.008   -4.125113   -4.645017   -2.444923
  35 H     1.0000    0     1.008   -4.692448   -0.714289    5.433779
  36 H     1.0000    0     1.008   -7.734905   -1.378304    4.125880
  37 H     1.0000    0     1.008   -7.238283    1.464386    5.905057

--------------------------------
INTERNAL COORDINATES (ANGSTROEM)
--------------------------------
 C      0   0   0     0.000000000000     0.00000000     0.00000000
 C      1   0   0     1.520473881359     0.00000000     0.00000000
 O      2   1   0     1.441001118329   111.02241990     0.00000000
 C      3   2   1     1.318486462427   118.43432862    86.07285370
 O      4   3   2     1.210235219407   124.83956372     1.67212322
 C      4   3   2     1.518133106229   110.89573495   181.74402286
 C      6   4   3     1.519696875418   110.39462034   198.00197643
 H      7   6   4     1.098551168987   109.37969181   313.46992774
 C      7   6   4     1.515254278367   114.60392388   192.77573016
 O      9   7   6     1.215077807337   122.23237513   220.70183773
 O      9   7   6     1.303964054700   112.92324403    42.34105271
 C     11   9   7     1.445905223038   117.54377628   176.21479089
 C     12  11   9     1.514930725160   107.91940351   182.86697797
 S      7   6   4     1.826103123299   110.81274682    71.01394973
 P     14   7   6     2.123862934717    97.77193862   184.79591217
 S     15  14   7     1.957101867763   117.78796276    22.41472070
 O     15  14   7     1.610605872669   100.22785117   144.41962313
 C     17  15  14     1.428905049223   121.08368468   289.23636389
 O     15  14   7     1.577279277415   110.68126081   248.13744266
 C     19  15  14     1.440947076971   122.54543981   314.26648083
 H      1   2   3     1.087653107700   110.11715335   295.68694412
 H      1   2   3     1.086422535799   110.18120750    56.05698065
 H      1   2   3     1.084972228649   109.29605533   176.13103761
 H      2   1   3     1.089916600132   111.41488403   244.07325662
 H      2   1   3     1.093548710320   110.74471399   120.68872512
 H      6   4   3     1.092309669175   108.12922901    78.79410963
 H      6   4   3     1.089791633393   108.89985021   320.80788146
 H     12  11   9     1.094327327018   108.04736326   304.31293871
 H     12  11   9     1.093858766947   108.12156252    61.44635376
 H     13  12  11     1.085786649463   110.03978214    59.41283405
 H     13  12  11     1.084772276455   109.10241746   179.18002832
 H     13  12  11     1.085538951411   110.19720519   299.14374780
 H     18  17  15     1.091373409123   110.05106922   307.20063686
 H     18  17  15     1.086747023546   105.67476625   187.81856414
 H     18  17  15     1.090681642990   110.14396903    68.19621944
 H     20  19  15     1.090099287410   109.88971249    55.89310543
 H     20  19  15     1.088613932744   109.85942495   294.43418649
 H     20  19  15     1.086805754536   104.93530113   174.92061576

---------------------------
INTERNAL COORDINATES (A.U.)
---------------------------
 C      0   0   0     0.000000000000     0.00000000     0.00000000
 C      1   0   0     2.873279229548     0.00000000     0.00000000
 O      2   1   0     2.723097472316   111.02241990     0.00000000
 C      3   2   1     2.491578325269   118.43432862    86.07285370
 O      4   3   2     2.287013122306   124.83956372     1.67212322
 C      4   3   2     2.868855805612   110.89573495   181.74402286
 C      6   4   3     2.871810901115   110.39462034   198.00197643
 H      7   6   4     2.075960853484   109.37969181   313.46992774
 C      7   6   4     2.863415609365   114.60392388   192.77573016
 O      9   7   6     2.296164287272   122.23237513   220.70183773
 O      9   7   6     2.464134951860   112.92324403    42.34105271
 C     11   9   7     2.732364887147   117.54377628   176.21479089
 C     12  11   9     2.862804182415   107.91940351   182.86697797
 S      7   6   4     3.450834795333   110.81274682    71.01394973
 P     14   7   6     4.013519292602    97.77193862   184.79591217
 S     15  14   7     3.698386546257   117.78796276    22.41472070
 O     15  14   7     3.043604009029   100.22785117   144.41962313
 C     17  15  14     2.700239214409   121.08368468   289.23636389
 O     15  14   7     2.980625871023   110.68126081   248.13744266
 C     19  15  14     2.722995348950   122.54543981   314.26648083
 H      1   2   3     2.055366502261   110.11715335   295.68694412
 H      1   2   3     2.053041058381   110.18120750    56.05698065
 H      1   2   3     2.050300375057   109.29605533   176.13103761
 H      2   1   3     2.059643883064   111.41488403   244.07325662
 H      2   1   3     2.066507576608   110.74471399   120.68872512
 H      6   4   3     2.064166128175   108.12922901    78.79410963
 H      6   4   3     2.059407730151   108.89985021   320.80788146
 H     12  11   9     2.067978948931   108.04736326   304.31293871
 H     12  11   9     2.067093498719   108.12156252    61.44635376
 H     13  12  11     2.051839407353   110.03978214    59.41283405
 H     13  12  11     2.049922520170   109.10241746   179.18002832
 H     13  12  11     2.051371325872   110.19720519   299.14374780
 H     18  17  15     2.062396853087   110.05106922   307.20063686
 H     18  17  15     2.053654251356   105.67476625   187.81856414
 H     18  17  15     2.061089604546   110.14396903    68.19621944
 H     20  19  15     2.059989111988   109.88971249    55.89310543
 H     20  19  15     2.057182198457   109.85942495   294.43418649
 H     20  19  15     2.053765236843   104.93530113   174.92061576

---------------------
BASIS SET INFORMATION
---------------------
There are 5 groups of distinct atoms

 Group   1 Type C   : 11s6p1d contracted to 5s3p1d pattern {62111/411/1}
 Group   2 Type O   : 11s6p2d contracted to 5s3p2d pattern {62111/411/11}
 Group   3 Type H   : 4s1p contracted to 2s1p pattern {31/1}
 Group   4 Type S   : 14s9p2d contracted to 5s4p2d pattern {73211/6111/11}
 Group   5 Type P   : 14s9p2d contracted to 5s4p2d pattern {73211/6111/11}

Atom   0C    basis set group =>   1
Atom   1C    basis set group =>   1
Atom   2O    basis set group =>   2
Atom   3C    basis set group =>   1
Atom   4O    basis set group =>   2
Atom   5C    basis set group =>   1
Atom   6C    basis set group =>   1
Atom   7H    basis set group =>   3
Atom   8C    basis set group =>   1
Atom   9O    basis set group =>   2
Atom  10O    basis set group =>   2
Atom  11C    basis set group =>   1
Atom  12C    basis set group =>   1
Atom  13S    basis set group =>   4
Atom  14P    basis set group =>   5
Atom  15S    basis set group =>   4
Atom  16O    basis set group =>   2
Atom  17C    basis set group =>   1
Atom  18O    basis set group =>   2
Atom  19C    basis set group =>   1
Atom  20H    basis set group =>   3
Atom  21H    basis set group =>   3
Atom  22H    basis set group =>   3
Atom  23H    basis set group =>   3
Atom  24H    basis set group =>   3
Atom  25H    basis set group =>   3
Atom  26H    basis set group =>   3
Atom  27H    basis set group =>   3
Atom  28H    basis set group =>   3
Atom  29H    basis set group =>   3
Atom  30H    basis set group =>   3
Atom  31H    basis set group =>   3
Atom  32H    basis set group =>   3
Atom  33H    basis set group =>   3
Atom  34H    basis set group =>   3
Atom  35H    basis set group =>   3
Atom  36H    basis set group =>   3
Atom  37H    basis set group =>   3
---------------------------------
AUXILIARY/J BASIS SET INFORMATION
---------------------------------
There are 5 groups of distinct atoms

 Group   1 Type C   : 12s5p4d2f1g contracted to 6s4p3d1f1g pattern {711111/2111/211/2/1}
 Group   2 Type O   : 12s5p4d2f1g contracted to 6s4p3d1f1g pattern {711111/2111/211/2/1}
 Group   3 Type H   : 5s2p1d contracted to 3s1p1d pattern {311/2/1}
 Group   4 Type S   : 14s5p5d2f1g contracted to 8s4p3d1f1g pattern {71111111/2111/311/2/1}
 Group   5 Type P   : 14s5p5d2f1g contracted to 8s4p3d1f1g pattern {71111111/2111/311/2/1}

Atom   0C    basis set group =>   1
Atom   1C    basis set group =>   1
Atom   2O    basis set group =>   2
Atom   3C    basis set group =>   1
Atom   4O    basis set group =>   2
Atom   5C    basis set group =>   1
Atom   6C    basis set group =>   1
Atom   7H    basis set group =>   3
Atom   8C    basis set group =>   1
Atom   9O    basis set group =>   2
Atom  10O    basis set group =>   2
Atom  11C    basis set group =>   1
Atom  12C    basis set group =>   1
Atom  13S    basis set group =>   4
Atom  14P    basis set group =>   5
Atom  15S    basis set group =>   4
Atom  16O    basis set group =>   2
Atom  17C    basis set group =>   1
Atom  18O    basis set group =>   2
Atom  19C    basis set group =>   1
Atom  20H    basis set group =>   3
Atom  21H    basis set group =>   3
Atom  22H    basis set group =>   3
Atom  23H    basis set group =>   3
Atom  24H    basis set group =>   3
Atom  25H    basis set group =>   3
Atom  26H    basis set group =>   3
Atom  27H    basis set group =>   3
Atom  28H    basis set group =>   3
Atom  29H    basis set group =>   3
Atom  30H    basis set group =>   3
Atom  31H    basis set group =>   3
Atom  32H    basis set group =>   3
Atom  33H    basis set group =>   3
Atom  34H    basis set group =>   3
Atom  35H    basis set group =>   3
Atom  36H    basis set group =>   3
Atom  37H    basis set group =>   3

Checking for AutoStart:
The File: sp_gas.gbw exists
Trying to determine its content:
     ... Fine, the file contains calculation information
     ... Fine, the calculation information was read
     ... Fine, the file contains a basis set
     ... Fine, the basis set was read
     ... Fine, the file contains a geometry
     ... Fine, the geometry was read
     ... Fine, the file contains a set of orbitals
     ... Fine, the orbitals can be read
     => possible old guess file was deleted
     => GBW file was renamed to GES file
     => GES file is set as startup file
     => Guess is set to MORead
     ... now leaving AutoStart

------------------------------------------------------------------------------
                             ORCA STARTUP CALCULATIONS
                           -- RI-GTO INTEGRALS CHOSEN --
------------------------------------------------------------------------------
------------------------------------------------------------------------------
                   ___                                                        
                  /   \      - P O W E R E D   B Y -                         
                 /     \                                                     
                 |  |  |   _    _      __       _____    __    __             
                 |  |  |  | |  | |    /  \     |  _  \  |  |  /  |          
                  \  \/   | |  | |   /    \    | | | |  |  | /  /          
                 / \  \   | |__| |  /  /\  \   | |_| |  |  |/  /          
                |  |  |   |  __  | /  /__\  \  |    /   |      \           
                |  |  |   | |  | | |   __   |  |    \   |  |\   \          
                \     /   | |  | | |  |  |  |  | |\  \  |  | \   \       
                 \___/    |_|  |_| |__|  |__|  |_| \__\ |__|  \__/        
                                                                              
                      - O R C A' S   B I G   F R I E N D -                    
                                      &                                       
                       - I N T E G R A L  F E E D E R -                       
                                                                              
 v1 FN, 2020, v2 2021, v3 2022-2024                                           
------------------------------------------------------------------------------


----------------------
SHARK INTEGRAL PACKAGE
----------------------

Number of atoms                             ...     38
Number of basis functions                   ...    510
Number of shells                            ...    240
Maximum angular momentum                    ...      2
Integral batch strategy                     ... SHARK/LIBINT Hybrid
RI-J (if used) integral strategy            ... SPLIT-RIJ (Revised 2003 algorithm where possible)
Printlevel                                  ...      1
Contraction scheme used                     ... SEGMENTED contraction
Prescreening option                         ... SCHWARTZ
   Thresh                                   ... 1.000e-10
   Tcut                                     ... 1.000e-11
   Tpresel                                  ... 1.000e-11 
Coulomb Range Separation                    ... NOT USED
Exchange Range Separation                   ... NOT USED
Multipole approximations                    ... NOT USED
Finite Nucleus Model                        ... NOT USED
CABS basis                                  ... NOT available
Auxiliary Coulomb fitting basis             ... AVAILABLE
   # of basis functions in Aux-J            ...   1146
   # of shells in Aux-J                     ...    386
   Maximum angular momentum in Aux-J        ...      4
Auxiliary J/K fitting basis                 ... NOT available
Auxiliary Correlation fitting basis         ... NOT available
Auxiliary 'external' fitting basis          ... NOT available

Checking pre-screening integrals            ... done (  0.0 sec) Dimension = 240
Check shell pair data                       ... done (  0.0 sec)
Shell pair information
Shell pair cut-off parameter TPreSel        ...   1.0e-11
Total number of shell pairs                 ...     28920
Shell pairs after pre-screening             ...     18852
Total number of primitive shell pairs       ...    108409
Primitive shell pairs kept                  ...     43497
          la=0 lb=0:   5341 shell pairs
          la=1 lb=0:   6852 shell pairs
          la=1 lb=1:   2207 shell pairs
          la=2 lb=0:   2536 shell pairs
          la=2 lb=1:   1604 shell pairs
          la=2 lb=2:    312 shell pairs

Calculating one electron integrals          ... done (  0.1 sec)
Calculating RI/J V-Matrix + Cholesky decomp.... done (  0.1 sec)
Calculating Nuclear repulsion               ... done (  0.0 sec) ENN=   2103.472986260444 Eh

Diagonalization of the overlap matrix:
Smallest eigenvalue                        ... 4.879e-05
Time for diagonalization                   ...    0.033 sec
Threshold for overlap eigenvalues          ... 1.000e-07
Number of eigenvalues below threshold      ... 0
Time for construction of square roots      ...    0.018 sec
Total time needed                          ...    0.052 sec

-------------------
DFT GRID GENERATION
-------------------

General Integration Accuracy     IntAcc      ... 4.388
Radial Grid Type                 RadialGrid  ... OptM3 with GC (2021)
Angular Grid (max. ang.)         AngularGrid ... 4 (Lebedev-302)
Angular grid pruning method      GridPruning ... 4 (adaptive)
Weight generation scheme         WeightScheme... mBecke (2022)
Basis function cutoff            BFCut       ... 1.0000e-10
Integration weight cutoff        WCut        ... 1.0000e-14
Partially contracted basis set               ... off
Rotationally invariant grid construction     ... off
Angular grids for H and He will be reduced by one unit
Diffuse basis detected: some atoms will have their outermost
                        angular grid increased by 1.

Total number of grid points                  ...   180584
Total number of batches                      ...     2841
Average number of points per batch           ...       63
Average number of grid points per atom       ...     4752
Initializing property integral containers    ... done (  0.0 sec)

SHARK setup successfully completed in   2.5 seconds

Maximum memory used throughout the entire STARTUP-calculation: 96.1 MB
-------------------------------------------------------------------------------
                                 ORCA GUESS
                   Start orbitals & Density for SCF / CASSCF
-------------------------------------------------------------------------------

------------
SCF SETTINGS
------------
Hamiltonian:
 Density Functional     Method          .... DFT(GTOs)
  Functional kind                       .... Exchange
  Functional name                       .... Re-regularized SCAN exchange by Furness et al
  Functional family                     .... MGGA
  Functional refs                              
    [ 0] J. W. Furness, A. D. Kaplan, J. Ning, J. P. Perdew, and J. Sun.,  J. Phys. Chem. Lett. 11, 8208-8215 (2020), doi: 10.1021/acs.jpclett.0c02405
    [ 1] J. W. Furness, A. D. Kaplan, J. Ning, J. P. Perdew, and J. Sun.,  J. Phys. Chem. Lett. 11, 9248-9248 (2020), doi: 10.1021/acs.jpclett.0c03077
  Functional external parameters        .... 6
    Parameter  0 _c1        =  6.670000e-01 : c1 parameter        
    Parameter  1 _c2        =  8.000000e-01 : c2 parameter        
    Parameter  2 _d         =  1.240000e+00 : d parameter         
    Parameter  3 _k1        =  6.500000e-02 : k1 parameter        
    Parameter  4 _eta       =  1.000000e-03 : eta parameter       
    Parameter  5 _dp2       =  3.610000e-01 : dp2 parameter       
  Functional kind                       .... Correlation
  Functional name                       .... Re-regularized SCAN correlation by Furness et al
  Functional family                     .... MGGA
  Functional refs                              
    [ 0] J. W. Furness, A. D. Kaplan, J. Ning, J. P. Perdew, and J. Sun.,  J. Phys. Chem. Lett. 11, 8208-8215 (2020), doi: 10.1021/acs.jpclett.0c02405
    [ 1] J. W. Furness, A. D. Kaplan, J. Ning, J. P. Perdew, and J. Sun.,  J. Phys. Chem. Lett. 11, 9248-9248 (2020), doi: 10.1021/acs.jpclett.0c03077
  Functional external parameters        .... 1
    Parameter  0 _eta       =  1.000000e-03 : Regularization parameter
 Gradients option       PostSCFGGA      .... off
 RI-approximation to the Coulomb term is turned on
   Number of AuxJ basis functions       .... 1146


General Settings:
 Integral files         IntName         .... sp_gas
 Hartree-Fock type      HFTyp           .... RHF
 Total Charge           Charge          ....    0
 Multiplicity           Mult            ....    1
 Number of Electrons    NEL             ....  174
 Basis Dimension        Dim             ....  510
 Nuclear Repulsion      ENuc            ....   2103.4729862604 Eh

Convergence Acceleration:
 AO-DIIS                CNVDIIS         .... on
   Start iteration      DIISMaxIt       ....    12
   Startup error        DIISStart       ....  0.200000
   # of expansion vecs  DIISMaxEq       ....     5
   Bias factor          DIISBfac        ....   1.050
   Max. coefficient     DIISMaxC        ....  10.000
 MO-DIIS                CNVKDIIS        .... off
 Trust-Rad. Augm. Hess. CNVTRAH         .... auto
   Auto Start mean grad. ratio tolernc. ....  1.125000
   Auto Start start iteration           ....     1
   Auto Start num. interpolation iter.  ....    10
   Max. Number of Micro iterations      ....    24
   Max. Number of Macro iterations      .... Maxiter - #DIIS iter
   Number of Davidson start vectors     ....     2
   Converg. threshold    (grad. norm)   ....   3.330e-04
   Grad. Scal. Fac. for Micro threshold ....   0.100
   Minimum threshold for Micro iter.    ....   1.000e-02
   NR start threshold (gradient norm)   ....   1.000e-04
   Initial trust radius                 ....   0.400
   Minimum AH scaling param. (alpha)    ....   1.000
   Maximum AH scaling param. (alpha)    .... 1000.000
   Quad. conv. algorithm                .... NR
   White noise on init. David. guess    .... on
   Maximum white noise                  ....   0.010
   Pseudo random numbers                .... off
   Inactive MOs                         .... canonical
   Orbital update algorithm             .... Taylor
   Preconditioner                       .... Diag
   Full preconditioner red. dimension   ....   250
   COSX micro iterations for RIJONX calc.... off
 SOSCF                  CNVSOSCF        .... on
   Start iteration      SOSCFMaxIt      ....   150
   Startup grad/error   SOSCFStart      ....  0.003300
   Hessian update       SOSCFHessUp     .... L-BFGS
 Level Shifting         CNVShift        .... on
   Level shift para.    LevelShift      ....    0.2500
   Turn off err/grad.   ShiftErr        ....    0.0010
 Zerner damping         CNVZerner       .... off
 Static damping         CNVDamp         .... on
   Fraction old density DampFac         ....    0.7000
   Max. Damping (<1)    DampMax         ....    0.9800
   Min. Damping (>=0)   DampMin         ....    0.0000
   Turn off err/grad.   DampErr         ....    0.1000

SCF Procedure:
 Maximum # iterations   MaxIter         ....   125
 SCF integral mode      SCFMode         .... Direct
   Integral package                     .... SHARK and LIBINT hybrid scheme
 Reset frequency        DirectResetFreq ....    20
 Integral Threshold     Thresh          ....  1.000e-10 Eh
 Primitive CutOff       TCut            ....  1.000e-11 Eh

Convergence Tolerance:
 Convergence Check Mode ConvCheckMode   .... Total+1el-Energy
 Convergence forced     ConvForced      .... 0
 Energy Change          TolE            ....  1.000e-06 Eh
 1-El. energy change                    ....  1.000e-03 Eh
 Orbital Gradient       TolG            ....  3.330e-04
 Orbital Rotation angle TolX            ....  3.330e-04
 DIIS Error             TolErr          ....  1.000e-06

---------------------
INITIAL GUESS: MOREAD
---------------------
Guess MOs are being read from file: sp_gas.ges
Input Geometry matches current geometry (good)
Atom 0: N(Shells)= 9 and 6 - projection required
Input basis set needs projection
NBasis(read)= 316
NBasis(calc)= 510
Basis set overlap was calculated
Using GuessMode=FMatrix for the initial guess
C*T matrix was formed
Effective Fockian was calculated
Effective Fockian was diagonalized
Initial density was built
                      ------------------
                      INITIAL GUESS DONE (   0.1 sec)
                      ------------------
             **** ENERGY FILE WAS UPDATED (sp_gas.en.tmp) ****
Finished Guess after   0.2 sec
Maximum memory used throughout the entire GUESS-calculation: 55.2 MB

-------------------------------------------------------------------------------------------
                                      ORCA LEAN-SCF
                              memory conserving SCF solver
-------------------------------------------------------------------------------------------

----------------------------------------D-I-I-S--------------------------------------------
Iteration    Energy (Eh)           Delta-E    RMSDP     MaxDP     DIISErr   Damp  Time(sec)
-------------------------------------------------------------------------------------------
               ***  Starting incremental Fock matrix formation  ***
    1    -1980.9767990653795096     0.00e+00  4.13e-03  5.47e-01  6.33e-01  0.700   7.7
    2    -1981.1233229771482911    -1.47e-01  3.19e-03  3.88e-01  4.44e-01  0.700   6.6
    3    -1981.2268041170955257    -1.03e-01  2.29e-03  2.69e-01  3.12e-01  0.700   6.4
    4    -1981.2994162308168598    -7.26e-02  1.62e-03  1.87e-01  2.18e-01  0.700   6.5
                               ***Turning on AO-DIIS***
    5    -1981.3503271712911555    -5.09e-02  1.15e-03  1.29e-01  1.53e-01  0.700   6.2
    6    -1981.3860012519294287    -3.57e-02  8.14e-04  9.05e-02  1.07e-01  0.700   6.1
    7    -1981.4110040337227474    -2.50e-02  5.72e-04  6.33e-02  7.48e-02  0.700   5.9
    8    -1981.4285185131147955    -1.75e-02  1.33e-03  1.47e-01  5.24e-02  0.000   5.8
                              *** Initializing SOSCF ***
---------------------------------------S-O-S-C-F--------------------------------------
Iteration    Energy (Eh)           Delta-E    RMSDP     MaxDP     MaxGrad    Time(sec)
--------------------------------------------------------------------------------------
    9    -1981.4694281619040339    -4.09e-02  5.85e-06  3.19e-04  1.18e-04     6.2
               *** Restarting incremental Fock matrix formation ***
   10    -1981.4694281611564293     7.48e-10  6.07e-06  3.99e-04  6.06e-05     7.7
                  *** Gradient check signals convergence ***

               *****************************************************
               *                     SUCCESS                       *
               *           SCF CONVERGED AFTER  10 CYCLES          *
               *****************************************************

             **** ENERGY FILE WAS UPDATED (sp_gas.en.tmp) ****

----------------
TOTAL SCF ENERGY
----------------

Total Energy       :      -1981.46942816115643 Eh          -53918.52431 eV

Components:
Nuclear Repulsion  :       2103.47298626044358 Eh           57238.40990 eV
Electronic Energy  :      -4084.94241442160001 Eh         -111156.93421 eV
One Electron Energy:      -6913.40717925504123 Eh         -188123.37336 eV
Two Electron Energy:       2828.46476483344122 Eh           76966.43915 eV

Virial components:
Potential Energy   :      -3956.60881496528236 Eh         -107664.79943 eV
Kinetic Energy     :       1975.13938680412571 Eh           53746.27512 eV
Virial Ratio       :          2.00320485804664

DFT components:
N(Alpha)           :       87.000032747564 electrons
N(Beta)            :       87.000032747564 electrons
N(Total)           :      174.000065495128 electrons
E(X)               :     -181.412874197870 Eh       
E(C)               :       -5.969616160776 Eh       
E(XC)              :     -187.382490358646 Eh       

---------------
SCF CONVERGENCE
---------------

  Last Energy change         ...   -7.4760e-10  Tolerance :   1.0000e-06
  Last MAX-Density change    ...    3.9897e-04  Tolerance :   1.0000e-05
  Last RMS-Density change    ...    6.0721e-06  Tolerance :   1.0000e-06
  Last DIIS Error            ...    1.1761e-04  Tolerance :   1.0000e-06
  Last Orbital Gradient      ...    6.0584e-05  Tolerance :   3.3300e-04
  Last Orbital Rotation      ...    2.3508e-04  Tolerance :   3.3300e-04


----------------
ORBITAL ENERGIES
----------------

  NO   OCC          E(Eh)            E(eV) 
   0   2.0000     -88.566768     -2410.0243 
   1   2.0000     -88.503604     -2408.3055 
   2   2.0000     -76.902108     -2092.6128 
   3   2.0000     -19.013810      -517.3921 
   4   2.0000     -19.008849      -517.2571 
   5   2.0000     -18.978736      -516.4377 
   6   2.0000     -18.974377      -516.3190 
   7   2.0000     -18.940869      -515.4073 
   8   2.0000     -18.937573      -515.3176 
   9   2.0000     -10.166337      -276.6401 
  10   2.0000     -10.164640      -276.5939 
  11   2.0000     -10.101073      -274.8642 
  12   2.0000     -10.100113      -274.8380 
  13   2.0000     -10.091391      -274.6007 
  14   2.0000     -10.086538      -274.4687 
  15   2.0000     -10.075725      -274.1744 
  16   2.0000     -10.066998      -273.9369 
  17   2.0000     -10.038710      -273.1672 
  18   2.0000     -10.035759      -273.0869 
  19   2.0000      -7.861117      -213.9119 
  20   2.0000      -7.798550      -212.2093 
  21   2.0000      -6.579936      -179.0492 
  22   2.0000      -5.807967      -158.0428 
  23   2.0000      -5.805153      -157.9662 
  24   2.0000      -5.798080      -157.7738 
  25   2.0000      -5.746476      -156.3696 
  26   2.0000      -5.738930      -156.1642 
  27   2.0000      -5.738135      -156.1426 
  28   2.0000      -4.725623      -128.5907 
  29   2.0000      -4.725128      -128.5773 
  30   2.0000      -4.723395      -128.5301 
  31   2.0000      -1.091448       -29.6998 
  32   2.0000      -1.085456       -29.5368 
  33   2.0000      -1.035675       -28.1822 
  34   2.0000      -0.993246       -27.0276 
  35   2.0000      -0.990421       -26.9507 
  36   2.0000      -0.989019       -26.9126 
  37   2.0000      -0.809958       -22.0401 
  38   2.0000      -0.760050       -20.6820 
  39   2.0000      -0.753196       -20.4955 
  40   2.0000      -0.724976       -19.7276 
  41   2.0000      -0.694905       -18.9093 
  42   2.0000      -0.662789       -18.0354 
  43   2.0000      -0.657357       -17.8876 
  44   2.0000      -0.642944       -17.4954 
  45   2.0000      -0.631249       -17.1771 
  46   2.0000      -0.594882       -16.1876 
  47   2.0000      -0.545087       -14.8326 
  48   2.0000      -0.533076       -14.5057 
  49   2.0000      -0.523552       -14.2466 
  50   2.0000      -0.501269       -13.6402 
  51   2.0000      -0.483189       -13.1482 
  52   2.0000      -0.480243       -13.0681 
  53   2.0000      -0.473179       -12.8759 
  54   2.0000      -0.469236       -12.7686 
  55   2.0000      -0.454529       -12.3684 
  56   2.0000      -0.443514       -12.0686 
  57   2.0000      -0.438368       -11.9286 
  58   2.0000      -0.436238       -11.8706 
  59   2.0000      -0.423474       -11.5233 
  60   2.0000      -0.416971       -11.3463 
  61   2.0000      -0.412330       -11.2201 
  62   2.0000      -0.406678       -11.0663 
  63   2.0000      -0.405162       -11.0250 
  64   2.0000      -0.392307       -10.6752 
  65   2.0000      -0.382167       -10.3993 
  66   2.0000      -0.381628       -10.3846 
  67   2.0000      -0.374901       -10.2016 
  68   2.0000      -0.364666        -9.9231 
  69   2.0000      -0.357554        -9.7295 
  70   2.0000      -0.349867        -9.5204 
  71   2.0000      -0.343352        -9.3431 
  72   2.0000      -0.336473        -9.1559 
  73   2.0000      -0.328299        -8.9335 
  74   2.0000      -0.323685        -8.8079 
  75   2.0000      -0.317595        -8.6422 
  76   2.0000      -0.306900        -8.3512 
  77   2.0000      -0.301156        -8.1949 
  78   2.0000      -0.285890        -7.7795 
  79   2.0000      -0.283486        -7.7140 
  80   2.0000      -0.276071        -7.5123 
  81   2.0000      -0.263262        -7.1637 
  82   2.0000      -0.251339        -6.8393 
  83   2.0000      -0.246660        -6.7120 
  84   2.0000      -0.226601        -6.1661 
  85   2.0000      -0.205893        -5.6026 
  86   2.0000      -0.198192        -5.3931 
  87   0.0000      -0.040631        -1.1056 
  88   0.0000      -0.028121        -0.7652 
  89   0.0000      -0.017826        -0.4851 
  90   0.0000       0.011898         0.3238 
  91   0.0000       0.030627         0.8334 
  92   0.0000       0.047313         1.2874 
  93   0.0000       0.060434         1.6445 
  94   0.0000       0.075587         2.0568 
  95   0.0000       0.080257         2.1839 
  96   0.0000       0.084119         2.2890 
  97   0.0000       0.091348         2.4857 
*Only the first 10 virtual orbitals were printed.

                    ********************************
                    * MULLIKEN POPULATION ANALYSIS *
                    ********************************

-----------------------
MULLIKEN ATOMIC CHARGES
-----------------------
   0 C :   -0.469420
   1 C :   -0.135909
   2 O :   -0.172044
   3 C :    0.382817
   4 O :   -0.419352
   5 C :   -0.425922
   6 C :   -0.020463
   7 H :    0.258543
   8 C :    0.340616
   9 O :   -0.398763
  10 O :   -0.151339
  11 C :   -0.150658
  12 C :   -0.447953
  13 S :   -0.222006
  14 P :    0.808760
  15 S :   -0.465794
  16 O :   -0.359671
  17 C :   -0.294669
  18 O :   -0.304031
  19 C :   -0.297035
  20 H :    0.173419
  21 H :    0.153112
  22 H :    0.149645
  23 H :    0.150955
  24 H :    0.169406
  25 H :    0.202269
  26 H :    0.189534
  27 H :    0.172664
  28 H :    0.156990
  29 H :    0.157808
  30 H :    0.151860
  31 H :    0.151159
  32 H :    0.173894
  33 H :    0.146141
  34 H :    0.158819
  35 H :    0.164724
  36 H :    0.166880
  37 H :    0.155014
Sum of atomic charges:    0.0000000

--------------------------------
MULLIKEN REDUCED ORBITAL CHARGES
--------------------------------
  0 C s       :     3.324829  s :     3.324829
      pz      :     1.009717  p :     3.118961
      px      :     1.017692
      py      :     1.091552
      dz2     :     0.003065  d :     0.025630
      dxz     :     0.007208
      dyz     :     0.006601
      dx2y2   :     0.004098
      dxy     :     0.004658

  1 C s       :     3.255269  s :     3.255269
      pz      :     0.953156  p :     2.827525
      px      :     1.048354
      py      :     0.826014
      dz2     :     0.007096  d :     0.053115
      dxz     :     0.010977
      dyz     :     0.015489
      dx2y2   :     0.009634
      dxy     :     0.009919

  2 O s       :     3.701192  s :     3.701192
      pz      :     1.649485  p :     4.441920
      px      :     1.496032
      py      :     1.296403
      dz2     :     0.003276  d :     0.028932
      dxz     :     0.011370
      dyz     :     0.011866
      dx2y2   :     0.003259
      dxy     :    -0.000840

  3 C s       :     3.125789  s :     3.125789
      pz      :     0.775780  p :     2.364913
      px      :     0.740969
      py      :     0.848163
      dz2     :     0.026858  d :     0.126481
      dxz     :     0.023026
      dyz     :     0.031675
      dx2y2   :     0.023672
      dxy     :     0.021251

  4 O s       :     3.845377  s :     3.845377
      pz      :     1.358650  p :     4.550279
      px      :     1.510867
      py      :     1.680763
      dz2     :     0.008672  d :     0.023696
      dxz     :     0.006855
      dyz     :     0.001761
      dx2y2   :     0.003666
      dxy     :     0.002742

  5 C s       :     3.290783  s :     3.290783
      pz      :     1.049926  p :     3.100405
      px      :     1.001124
      py      :     1.049355
      dz2     :     0.007381  d :     0.034734
      dxz     :     0.004393
      dyz     :     0.008157
      dx2y2   :     0.006455
      dxy     :     0.008347

  6 C s       :     3.056323  s :     3.056323
      pz      :     1.113450  p :     2.920356
      px      :     0.878065
      py      :     0.928842
      dz2     :     0.009450  d :     0.043784
      dxz     :     0.006139
      dyz     :     0.007706
      dx2y2   :     0.010670
      dxy     :     0.009818

  7 H s       :     0.722647  s :     0.722647
      pz      :     0.011975  p :     0.018810
      px      :     0.003635
      py      :     0.003200

  8 C s       :     3.158435  s :     3.158435
      pz      :     0.759677  p :     2.373917
      px      :     0.754881
      py      :     0.859359
      dz2     :     0.015324  d :     0.127032
      dxz     :     0.023310
      dyz     :     0.015545
      dx2y2   :     0.034492
      dxy     :     0.038360

  9 O s       :     3.843527  s :     3.843527
      pz      :     1.433741  p :     4.526380
      px      :     1.349436
      py      :     1.743203
      dz2     :     0.006866  d :     0.028855
      dxz     :     0.012006
      dyz     :     0.001458
      dx2y2   :     0.004418
      dxy     :     0.004107

 10 O s       :     3.699185  s :     3.699185
      pz      :     1.701843  p :     4.412084
      px      :     1.517772
      py      :     1.192469
      dz2     :     0.006399  d :     0.040071
      dxz     :     0.006256
      dyz     :     0.006046
      dx2y2   :     0.007069
      dxy     :     0.014300

 11 C s       :     3.287902  s :     3.287902
      pz      :     1.059109  p :     2.809820
      px      :     1.021486
      py      :     0.729225
      dz2     :     0.011743  d :     0.052937
      dxz     :     0.005744
      dyz     :     0.009907
      dx2y2   :     0.014097
      dxy     :     0.011446

 12 C s       :     3.318350  s :     3.318350
      pz      :     1.089764  p :     3.103840
      px      :     0.963569
      py      :     1.050507
      dz2     :     0.007008  d :     0.025763
      dxz     :     0.004501
      dyz     :     0.002662
      dx2y2   :     0.005981
      dxy     :     0.005611

 13 S s       :     5.938539  s :     5.938539
      pz      :     3.717586  p :    10.185893
      px      :     3.011434
      py      :     3.456874
      dz2     :     0.011528  d :     0.097574
      dxz     :     0.018734
      dyz     :     0.015790
      dx2y2   :     0.016818
      dxy     :     0.034703

 14 P s       :     5.091144  s :     5.091144
      pz      :     2.763649  p :     8.377962
      px      :     2.844122
      py      :     2.770191
      dz2     :     0.167307  d :     0.722134
      dxz     :     0.162404
      dyz     :     0.117426
      dx2y2   :     0.125109
      dxy     :     0.149888

 15 S s       :     5.901214  s :     5.901214
      pz      :     3.346731  p :    10.501341
      px      :     3.688689
      py      :     3.465921
      dz2     :     0.014087  d :     0.063239
      dxz     :     0.008892
      dyz     :     0.024325
      dx2y2   :     0.009008
      dxy     :     0.006928

 16 O s       :     3.764193  s :     3.764193
      pz      :     1.493745  p :     4.569500
      px      :     1.660269
      py      :     1.415486
      dz2     :     0.003853  d :     0.025978
      dxz     :     0.001927
      dyz     :    -0.000016
      dx2y2   :     0.002555
      dxy     :     0.017659

 17 C s       :     3.325756  s :     3.325756
      pz      :     0.854675  p :     2.924275
      px      :     1.103227
      py      :     0.966372
      dz2     :     0.013135  d :     0.044638
      dxz     :     0.004700
      dyz     :     0.012829
      dx2y2   :     0.003346
      dxy     :     0.010628

 18 O s       :     3.749012  s :     3.749012
      pz      :     1.223775  p :     4.543778
      px      :     1.668018
      py      :     1.651984
      dz2     :    -0.005789  d :     0.011241
      dxz     :     0.002860
      dyz     :     0.001970
      dx2y2   :     0.005672
      dxy     :     0.006528

 19 C s       :     3.329284  s :     3.329284
      pz      :     0.817666  p :     2.924267
      px      :     1.087987
      py      :     1.018615
      dz2     :     0.009374  d :     0.043485
      dxz     :     0.008925
      dyz     :     0.012493
      dx2y2   :     0.002875
      dxy     :     0.009818

 20 H s       :     0.808383  s :     0.808383
      pz      :     0.006840  p :     0.018197
      px      :     0.004868
      py      :     0.006490

 21 H s       :     0.828677  s :     0.828677
      pz      :     0.004612  p :     0.018212
      px      :     0.008469
      py      :     0.005130

 22 H s       :     0.831865  s :     0.831865
      pz      :     0.005533  p :     0.018490
      px      :     0.004345
      py      :     0.008612

 23 H s       :     0.831653  s :     0.831653
      pz      :     0.006519  p :     0.017392
      px      :     0.004695
      py      :     0.006178

 24 H s       :     0.812751  s :     0.812751
      pz      :     0.004593  p :     0.017843
      px      :     0.009402
      py      :     0.003848

 25 H s       :     0.779388  s :     0.779388
      pz      :     0.003801  p :     0.018343
      px      :     0.007135
      py      :     0.007406

 26 H s       :     0.792446  s :     0.792446
      pz      :     0.010571  p :     0.018020
      px      :     0.003378
      py      :     0.004071

 27 H s       :     0.809826  s :     0.809826
      pz      :     0.004589  p :     0.017510
      px      :     0.009108
      py      :     0.003813

 28 H s       :     0.825523  s :     0.825523
      pz      :     0.011543  p :     0.017487
      px      :     0.003750
      py      :     0.002194

 29 H s       :     0.823959  s :     0.823959
      pz      :     0.010974  p :     0.018233
      px      :     0.003691
      py      :     0.003568

 30 H s       :     0.829699  s :     0.829699
      pz      :     0.004447  p :     0.018441
      px      :     0.003555
      py      :     0.010439

 31 H s       :     0.830578  s :     0.830578
      pz      :     0.005007  p :     0.018263
      px      :     0.008221
      py      :     0.005035

 32 H s       :     0.807999  s :     0.807999
      pz      :     0.008527  p :     0.018108
      px      :     0.003741
      py      :     0.005840

 33 H s       :     0.836139  s :     0.836139
      pz      :     0.002907  p :     0.017720
      px      :     0.008958
      py      :     0.005855

 34 H s       :     0.823240  s :     0.823240
      pz      :     0.002779  p :     0.017941
      px      :     0.009220
      py      :     0.005942

 35 H s       :     0.817232  s :     0.817232
      pz      :     0.004177  p :     0.018044
      px      :     0.009265
      py      :     0.004602

 36 H s       :     0.815430  s :     0.815430
      pz      :     0.002956  p :     0.017690
      px      :     0.007004
      py      :     0.007730

 37 H s       :     0.827314  s :     0.827314
      pz      :     0.006070  p :     0.017672
      px      :     0.004982
      py      :     0.006620


------------------------
MULLIKEN OVERLAP CHARGES
------------------------
B(  0-C ,  1-C ) :   0.5474 B(  0-C ,  2-O ) :  -0.1088 B(  0-C , 20-H ) :   0.8446 
B(  0-C , 21-H ) :   0.8316 B(  0-C , 22-H ) :   0.7970 B(  0-C , 23-H ) :  -0.0522 
B(  0-C , 24-H ) :  -0.0784 B(  1-C ,  2-O ) :   0.3096 B(  1-C ,  3-C ) :  -0.1988 
B(  1-C , 20-H ) :  -0.0857 B(  1-C , 21-H ) :  -0.0708 B(  1-C , 22-H ) :  -0.0657 
B(  1-C , 23-H ) :   0.8037 B(  1-C , 24-H ) :   0.8622 B(  2-O ,  3-C ) :   0.5238 
B(  2-O ,  4-O ) :  -0.2145 B(  2-O ,  5-C ) :  -0.1914 B(  2-O , 23-H ) :  -0.0957 
B(  2-O , 24-H ) :  -0.0627 B(  3-C ,  4-O ) :   1.0322 B(  3-C ,  5-C ) :   0.3156 
B(  4-O ,  5-C ) :  -0.3381 B(  4-O ,  6-C ) :   0.1583 B(  5-C ,  6-C ) :  -0.0741 
B(  5-C , 10-O ) :   0.0830 B(  5-C , 25-H ) :   0.7564 B(  5-C , 26-H ) :   0.8133 
B(  6-C ,  7-H ) :   0.8618 B(  6-C ,  8-C ) :  -0.0654 B(  6-C ,  9-O ) :  -0.2456 
B(  6-C , 10-O ) :  -0.2162 B(  6-C , 13-S ) :   0.3985 B(  6-C , 14-P ) :  -0.0604 
B(  6-C , 15-S ) :   0.0590 B(  6-C , 25-H ) :  -0.0681 B(  7-H ,  8-C ) :  -0.0872 
B(  7-H , 13-S ) :  -0.0572 B(  8-C ,  9-O ) :   0.9375 B(  8-C , 10-O ) :   0.6396 
B(  8-C , 11-C ) :  -0.2115 B(  8-C , 13-S ) :  -0.1513 B(  9-O , 10-O ) :  -0.2198 
B(  9-O , 14-P ) :   0.0814 B(  9-O , 15-S ) :  -0.0567 B( 10-O , 11-C ) :   0.2452 
B( 10-O , 12-C ) :  -0.1023 B( 10-O , 27-H ) :  -0.0621 B( 10-O , 28-H ) :  -0.0634 
B( 11-C , 12-C ) :   0.4626 B( 11-C , 27-H ) :   0.8212 B( 11-C , 28-H ) :   0.7927 
B( 11-C , 29-H ) :  -0.0665 B( 11-C , 30-H ) :  -0.0743 B( 11-C , 31-H ) :  -0.0613 
B( 12-C , 28-H ) :  -0.0527 B( 12-C , 29-H ) :   0.8279 B( 12-C , 30-H ) :   0.8163 
B( 12-C , 31-H ) :   0.8256 B( 13-S , 14-P ) :   0.5840 B( 13-S , 15-S ) :  -0.1082 
B( 13-S , 16-O ) :  -0.1052 B( 13-S , 18-O ) :  -0.0621 B( 14-P , 15-S ) :   1.2603 
B( 14-P , 16-O ) :   0.4125 B( 14-P , 17-C ) :  -0.1767 B( 14-P , 18-O ) :   0.7415 
B( 14-P , 19-C ) :  -0.2172 B( 15-S , 16-O ) :  -0.0970 B( 15-S , 18-O ) :  -0.0938 
B( 16-O , 17-C ) :   0.3667 B( 16-O , 18-O ) :  -0.2360 B( 16-O , 32-H ) :  -0.0870 
B( 16-O , 33-H ) :  -0.0967 B( 16-O , 34-H ) :  -0.0750 B( 17-C , 32-H ) :   0.8326 
B( 17-C , 33-H ) :   0.7999 B( 17-C , 34-H ) :   0.7980 B( 18-O , 19-C ) :   0.3232 
B( 18-O , 35-H ) :  -0.0865 B( 18-O , 36-H ) :  -0.0810 B( 18-O , 37-H ) :  -0.0802 
B( 19-C , 35-H ) :   0.8196 B( 19-C , 36-H ) :   0.8260 B( 19-C , 37-H ) :   0.7805 
B( 27-H , 28-H ) :  -0.0595 B( 32-H , 34-H ) :  -0.0591 B( 35-H , 36-H ) :  -0.0650 



                     *******************************
                     * LOEWDIN POPULATION ANALYSIS *
                     *******************************

----------------------
LOEWDIN ATOMIC CHARGES
----------------------
   0 C :   -0.388717
   1 C :    0.030887
   2 O :   -0.584418
   3 C :    0.355565
   4 O :   -0.433340
   5 C :   -0.203409
   6 C :   -0.199169
   7 H :    0.224813
   8 C :    0.345913
   9 O :   -0.443267
  10 O :   -0.583327
  11 C :    0.041470
  12 C :   -0.384895
  13 S :    0.207348
  14 P :    0.407761
  15 S :   -0.088169
  16 O :   -0.693648
  17 C :   -0.064715
  18 O :   -0.638948
  19 C :   -0.050919
  20 H :    0.165521
  21 H :    0.157662
  22 H :    0.160647
  23 H :    0.179311
  24 H :    0.189197
  25 H :    0.205149
  26 H :    0.191355
  27 H :    0.187366
  28 H :    0.180516
  29 H :    0.161872
  30 H :    0.162113
  31 H :    0.158589
  32 H :    0.176198
  33 H :    0.173949
  34 H :    0.169541
  35 H :    0.172313
  36 H :    0.171780
  37 H :    0.180105

-------------------------------
LOEWDIN REDUCED ORBITAL CHARGES
-------------------------------
  0 C s       :     2.973547  s :     2.973547
      pz      :     1.096132  p :     3.354790
      px      :     1.107585
      py      :     1.151074
      dz2     :     0.006024  d :     0.060380
      dxz     :     0.016748
      dyz     :     0.016488
      dx2y2   :     0.009435
      dxy     :     0.011684

  1 C s       :     2.871069  s :     2.871069
      pz      :     1.008768  p :     2.978917
      px      :     1.069271
      py      :     0.900878
      dz2     :     0.013095  d :     0.119127
      dxz     :     0.026958
      dyz     :     0.036439
      dx2y2   :     0.020522
      dxy     :     0.022114

  2 O s       :     3.459567  s :     3.459567
      pz      :     1.649641  p :     4.654016
      px      :     1.558327
      py      :     1.446048
      dz2     :     0.073909  d :     0.470836
      dxz     :     0.080022
      dyz     :     0.097103
      dx2y2   :     0.099525
      dxy     :     0.120277

  3 C s       :     2.730515  s :     2.730515
      pz      :     0.923246  p :     2.637328
      px      :     0.834928
      py      :     0.879154
      dz2     :     0.054593  d :     0.276592
      dxz     :     0.058012
      dyz     :     0.067918
      dx2y2   :     0.049125
      dxy     :     0.046943

  4 O s       :     3.545052  s :     3.545052
      pz      :     1.479826  p :     4.655911
      px      :     1.529178
      py      :     1.646907
      dz2     :     0.056717  d :     0.232378
      dxz     :     0.062808
      dyz     :     0.050607
      dx2y2   :     0.031713
      dxy     :     0.030534

  5 C s       :     2.915705  s :     2.915705
      pz      :     1.099134  p :     3.213515
      px      :     1.061371
      py      :     1.053010
      dz2     :     0.017455  d :     0.074189
      dxz     :     0.008126
      dyz     :     0.016670
      dx2y2   :     0.012838
      dxy     :     0.019099

  6 C s       :     2.915007  s :     2.915007
      pz      :     1.130115  p :     3.193783
      px      :     1.046971
      py      :     1.016697
      dz2     :     0.020904  d :     0.090379
      dxz     :     0.011364
      dyz     :     0.014966
      dx2y2   :     0.021223
      dxy     :     0.021921

  7 H s       :     0.726009  s :     0.726009
      pz      :     0.032707  p :     0.049178
      px      :     0.008438
      py      :     0.008033

  8 C s       :     2.728022  s :     2.728022
      pz      :     0.790706  p :     2.646780
      px      :     0.925427
      py      :     0.930646
      dz2     :     0.030942  d :     0.279284
      dxz     :     0.051906
      dyz     :     0.032145
      dx2y2   :     0.078585
      dxy     :     0.085706

  9 O s       :     3.540013  s :     3.540013
      pz      :     1.451915  p :     4.613992
      px      :     1.467500
      py      :     1.694577
      dz2     :     0.044709  d :     0.289262
      dxz     :     0.069376
      dyz     :     0.030534
      dx2y2   :     0.076013
      dxy     :     0.068630

 10 O s       :     3.448627  s :     3.448627
      pz      :     1.681980  p :     4.646703
      px      :     1.586591
      py      :     1.378132
      dz2     :     0.075507  d :     0.487997
      dxz     :     0.047113
      dyz     :     0.089234
      dx2y2   :     0.127466
      dxy     :     0.148675

 11 C s       :     2.870054  s :     2.870054
      pz      :     1.068335  p :     2.970482
      px      :     1.073888
      py      :     0.828258
      dz2     :     0.028352  d :     0.117994
      dxz     :     0.010970
      dyz     :     0.021364
      dx2y2   :     0.029840
      dxy     :     0.027468

 12 C s       :     2.970191  s :     2.970191
      pz      :     1.154383  p :     3.354027
      px      :     1.083099
      py      :     1.116545
      dz2     :     0.017202  d :     0.060677
      dxz     :     0.010217
      dyz     :     0.006172
      dx2y2   :     0.014663
      dxy     :     0.012422

 13 S s       :     5.410411  s :     5.410411
      pz      :     3.650635  p :    10.091396
      px      :     3.023404
      py      :     3.417358
      dz2     :     0.038970  d :     0.290845
      dxz     :     0.054646
      dyz     :     0.040013
      dx2y2   :     0.059671
      dxy     :     0.097544

 14 P s       :     4.654670  s :     4.654670
      pz      :     2.816908  p :     8.370301
      px      :     2.761045
      py      :     2.792348
      dz2     :     0.308587  d :     1.567268
      dxz     :     0.323677
      dyz     :     0.329725
      dx2y2   :     0.237398
      dxy     :     0.367881

 15 S s       :     5.556113  s :     5.556113
      pz      :     3.341071  p :    10.396886
      px      :     3.601787
      py      :     3.454029
      dz2     :     0.026536  d :     0.135170
      dxz     :     0.016295
      dyz     :     0.061163
      dx2y2   :     0.017852
      dxy     :     0.013324

 16 O s       :     3.473703  s :     3.473703
      pz      :     1.538518  p :     4.748650
      px      :     1.665688
      py      :     1.544445
      dz2     :     0.103874  d :     0.471295
      dxz     :     0.073253
      dyz     :     0.116133
      dx2y2   :     0.075641
      dxy     :     0.102394

 17 C s       :     2.915353  s :     2.915353
      pz      :     0.924586  p :     3.042843
      px      :     1.110327
      py      :     1.007931
      dz2     :     0.031239  d :     0.106519
      dxz     :     0.010303
      dyz     :     0.030781
      dx2y2   :     0.006676
      dxy     :     0.027520

 18 O s       :     3.468345  s :     3.468345
      pz      :     1.426133  p :     4.714571
      px      :     1.665061
      py      :     1.623377
      dz2     :     0.124487  d :     0.456032
      dxz     :     0.107424
      dyz     :     0.115010
      dx2y2   :     0.044736
      dxy     :     0.064375

 19 C s       :     2.915034  s :     2.915034
      pz      :     0.894057  p :     3.032238
      px      :     1.099388
      py      :     1.038793
      dz2     :     0.020999  d :     0.103646
      dxz     :     0.020810
      dyz     :     0.030698
      dx2y2   :     0.005928
      dxy     :     0.025211

 20 H s       :     0.790357  s :     0.790357
      pz      :     0.016569  p :     0.044122
      px      :     0.011620
      py      :     0.015933

 21 H s       :     0.798810  s :     0.798810
      pz      :     0.010875  p :     0.043528
      px      :     0.020637
      py      :     0.012016

 22 H s       :     0.795270  s :     0.795270
      pz      :     0.012927  p :     0.044083
      px      :     0.009744
      py      :     0.021411

 23 H s       :     0.780741  s :     0.780741
      pz      :     0.016527  p :     0.039948
      px      :     0.010738
      py      :     0.012683

 24 H s       :     0.767785  s :     0.767785
      pz      :     0.010616  p :     0.043018
      px      :     0.023857
      py      :     0.008545

 25 H s       :     0.749128  s :     0.749128
      pz      :     0.009218  p :     0.045723
      px      :     0.018013
      py      :     0.018491

 26 H s       :     0.763783  s :     0.763783
      pz      :     0.027000  p :     0.044862
      px      :     0.007784
      py      :     0.010078

 27 H s       :     0.771131  s :     0.771131
      pz      :     0.011152  p :     0.041503
      px      :     0.021779
      py      :     0.008573

 28 H s       :     0.778423  s :     0.778423
      pz      :     0.027311  p :     0.041062
      px      :     0.008373
      py      :     0.005378

 29 H s       :     0.794614  s :     0.794614
      pz      :     0.027690  p :     0.043515
      px      :     0.008123
      py      :     0.007702

 30 H s       :     0.793951  s :     0.793951
      pz      :     0.010210  p :     0.043936
      px      :     0.008011
      py      :     0.025715

 31 H s       :     0.797973  s :     0.797973
      pz      :     0.011750  p :     0.043438
      px      :     0.019781
      py      :     0.011906

 32 H s       :     0.781161  s :     0.781161
      pz      :     0.019987  p :     0.042640
      px      :     0.008159
      py      :     0.014494

 33 H s       :     0.785976  s :     0.785976
      pz      :     0.005949  p :     0.040075
      px      :     0.021710
      py      :     0.012416

 34 H s       :     0.788578  s :     0.788578
      pz      :     0.006657  p :     0.041881
      px      :     0.021745
      py      :     0.013480

 35 H s       :     0.785360  s :     0.785360
      pz      :     0.009033  p :     0.042327
      px      :     0.022973
      py      :     0.010321

 36 H s       :     0.786440  s :     0.786440
      pz      :     0.007136  p :     0.041779
      px      :     0.016700
      py      :     0.017943

 37 H s       :     0.779660  s :     0.779660
      pz      :     0.012712  p :     0.040235
      px      :     0.010871
      py      :     0.016652


---------------------------------
LOEWDIN BOND ORDERS (THRESH 0.050000)
---------------------------------
B(  0-C ,  1-C ) :   1.0855 B(  0-C ,  2-O ) :   0.1553 B(  0-C , 20-H ) :   0.9193 
B(  0-C , 21-H ) :   0.9248 B(  0-C , 22-H ) :   0.9178 B(  1-C ,  2-O ) :   1.2975 
B(  1-C ,  3-C ) :   0.0836 B(  1-C ,  4-O ) :   0.0623 B(  1-C , 22-H ) :   0.0501 
B(  1-C , 23-H ) :   0.8337 B(  1-C , 24-H ) :   0.8192 B(  2-O ,  3-C ) :   1.4729 
B(  2-O ,  4-O ) :   0.4573 B(  2-O ,  5-C ) :   0.1863 B(  2-O , 23-H ) :   0.0965 
B(  2-O , 24-H ) :   0.0910 B(  3-C ,  4-O ) :   2.1647 B(  3-C ,  5-C ) :   0.9003 
B(  3-C ,  6-C ) :   0.0730 B(  4-O ,  5-C ) :   0.1800 B(  4-O ,  6-C ) :   0.0551 
B(  5-C ,  6-C ) :   1.0352 B(  5-C ,  8-C ) :   0.0674 B(  5-C , 10-O ) :   0.0532 
B(  5-C , 13-S ) :   0.1130 B(  5-C , 25-H ) :   0.8324 B(  5-C , 26-H ) :   0.8539 
B(  6-C ,  7-H ) :   0.7844 B(  6-C ,  8-C ) :   0.8560 B(  6-C ,  9-O ) :   0.1797 
B(  6-C , 10-O ) :   0.1659 B(  6-C , 13-S ) :   1.2299 B(  6-C , 14-P ) :   0.0834 
B(  6-C , 15-S ) :   0.0531 B(  7-H , 13-S ) :   0.0541 B(  8-C ,  9-O ) :   2.0961 
B(  8-C , 10-O ) :   1.4964 B(  8-C , 11-C ) :   0.0908 B(  8-C , 13-S ) :   0.1193 
B(  9-O , 10-O ) :   0.4535 B(  9-O , 11-C ) :   0.0682 B(  9-O , 13-S ) :   0.1209 
B(  9-O , 14-P ) :   0.1209 B(  9-O , 15-S ) :   0.0763 B(  9-O , 18-O ) :   0.0855 
B( 10-O , 11-C ) :   1.2695 B( 10-O , 12-C ) :   0.1669 B( 10-O , 27-H ) :   0.0915 
B( 10-O , 28-H ) :   0.0930 B( 11-C , 12-C ) :   1.0951 B( 11-C , 27-H ) :   0.8228 
B( 11-C , 28-H ) :   0.8257 B( 12-C , 29-H ) :   0.9211 B( 12-C , 30-H ) :   0.9173 
B( 12-C , 31-H ) :   0.9225 B( 13-S , 14-P ) :   1.1879 B( 13-S , 15-S ) :   0.1441 
B( 13-S , 16-O ) :   0.1644 B( 13-S , 18-O ) :   0.1294 B( 14-P , 15-S ) :   2.0106 
B( 14-P , 16-O ) :   1.5045 B( 14-P , 17-C ) :   0.0970 B( 14-P , 18-O ) :   1.5701 
B( 14-P , 19-C ) :   0.0980 B( 15-S , 16-O ) :   0.1867 B( 15-S , 18-O ) :   0.1560 
B( 16-O , 17-C ) :   1.3593 B( 16-O , 18-O ) :   0.2360 B( 16-O , 32-H ) :   0.1027 
B( 16-O , 33-H ) :   0.1023 B( 16-O , 34-H ) :   0.1038 B( 17-C , 32-H ) :   0.8595 
B( 17-C , 33-H ) :   0.8639 B( 17-C , 34-H ) :   0.8639 B( 18-O , 19-C ) :   1.3276 
B( 18-O , 35-H ) :   0.0999 B( 18-O , 36-H ) :   0.0993 B( 18-O , 37-H ) :   0.1017 
B( 19-C , 35-H ) :   0.8629 B( 19-C , 36-H ) :   0.8677 B( 19-C , 37-H ) :   0.8626 


------------------------------------------
LOEWDIN REDUCED ORBITAL POPULATIONS PER MO
-------------------------------------------
THRESHOLD FOR PRINTING IS 0.1%%
                      0         1         2         3         4         5   
                 -88.56677 -88.50360 -76.90211 -19.01381 -19.00885 -18.97874
                   2.00000   2.00000   2.00000   2.00000   2.00000   2.00000
                  --------  --------  --------  --------  --------  --------
 2 O  s               0.0       0.0       0.0       0.0      99.9       0.0
10 O  s               0.0       0.0       0.0      99.9       0.0       0.0
13 S  s             100.0       0.0       0.0       0.0       0.0       0.0
14 P  s               0.0       0.0     100.0       0.0       0.0       0.0
15 S  s               0.0     100.0       0.0       0.0       0.0       0.0
18 O  s               0.0       0.0       0.0       0.0       0.0      99.9

                      6         7         8         9        10        11   
                 -18.97438 -18.94087 -18.93757 -10.16634 -10.16464 -10.10107
                   2.00000   2.00000   2.00000   2.00000   2.00000   2.00000
                  --------  --------  --------  --------  --------  --------
 2 O  dxy             0.0       0.0       0.0       0.2       0.0       0.0
 3 C  s               0.0       0.0       0.0      98.9       0.0       0.0
 4 O  s               0.0      99.9       0.0       0.0       0.0       0.0
 4 O  pz              0.0       0.0       0.0       0.1       0.0       0.0
 4 O  dxz             0.0       0.0       0.0       0.2       0.0       0.0
 8 C  s               0.0       0.0       0.0       0.0      98.8       0.0
 9 O  s               0.0       0.0      99.9       0.0       0.0       0.0
 9 O  px              0.0       0.0       0.0       0.0       0.2       0.0
 9 O  dxz             0.0       0.0       0.0       0.0       0.2       0.0
 9 O  dx2y2           0.0       0.0       0.0       0.0       0.1       0.0
10 O  dx2y2           0.0       0.0       0.0       0.0       0.0       0.2
10 O  dxy             0.0       0.0       0.0       0.0       0.2       0.0
11 C  s               0.0       0.0       0.0       0.0       0.0      99.4
16 O  s              99.9       0.0       0.0       0.0       0.0       0.0

                     12        13        14        15        16        17   
                 -10.10011 -10.09139 -10.08654 -10.07572 -10.06700 -10.03871
                   2.00000   2.00000   2.00000   2.00000   2.00000   2.00000
                  --------  --------  --------  --------  --------  --------
 1 C  s              99.4       0.0       0.0       0.0       0.0       0.0
 2 O  dyz             0.2       0.0       0.0       0.0       0.0       0.0
 5 C  s               0.0       0.0       0.0       0.0      99.7       0.0
 6 C  s               0.0      99.6       0.0       0.0       0.0       0.0
12 C  s               0.0       0.0       0.0       0.0       0.0      99.7
16 O  dyz             0.0       0.0       0.0       0.2       0.0       0.0
17 C  s               0.0       0.0       0.0      99.4       0.0       0.0
18 O  dyz             0.0       0.0       0.2       0.0       0.0       0.0
19 C  s               0.0       0.0      99.4       0.0       0.0       0.0

                     18        19        20        21        22        23   
                 -10.03576  -7.86112  -7.79855  -6.57994  -5.80797  -5.80515
                   2.00000   2.00000   2.00000   2.00000   2.00000   2.00000
                  --------  --------  --------  --------  --------  --------
 0 C  s              99.7       0.0       0.0       0.0       0.0       0.0
13 S  s               0.0      99.6       0.0       0.0       0.0       0.0
13 S  pz              0.0       0.0       0.0       0.0       0.4      26.4
13 S  px              0.0       0.0       0.0       0.1      99.2       0.7
13 S  py              0.0       0.0       0.0       0.0       0.4      72.8
14 P  s               0.0       0.0       0.0      96.5       0.0       0.0
14 P  dyz             0.0       0.0       0.2       0.0       0.0       0.0
15 S  s               0.0       0.0      99.6       0.0       0.0       0.0
15 S  dyz             0.0       0.0       0.0       0.2       0.0       0.0
16 O  px              0.0       0.0       0.0       0.1       0.0       0.0
16 O  py              0.0       0.0       0.0       0.2       0.0       0.0
16 O  dz2             0.0       0.0       0.0       0.2       0.0       0.0
16 O  dxy             0.0       0.0       0.0       0.6       0.0       0.0
18 O  pz              0.0       0.0       0.0       0.2       0.0       0.0
18 O  dz2             0.0       0.0       0.0       0.2       0.0       0.0
18 O  dxz             0.0       0.0       0.0       0.5       0.0       0.0
[...]
34 H  s               0.3       0.0       0.0       0.0       0.0       0.0
34 H  pz              0.3       0.0       0.0       0.0       0.0       0.0
34 H  px              0.3       0.0       0.0       0.0       0.0       0.0

                    492       493       494       495       496       497   
                  18.96102  19.31815  21.90154  21.94000  22.00015  22.00832
                   0.00000   0.00000   0.00000   0.00000   0.00000   0.00000
                  --------  --------  --------  --------  --------  --------
 0 C  s               0.0       0.0       0.2      98.3       0.3       0.0
 1 C  s               0.0       0.0       0.0       0.1       4.4       0.1
 3 C  s               0.0       0.1       0.1       0.1       0.2       0.0
 5 C  s               0.0       0.0       1.1       0.7       8.9       0.0
 6 C  s               0.0       0.5       3.2       0.0       4.4       0.5
 8 C  s               0.0       0.0       0.0       0.0       1.3       0.0
11 C  s               0.0       0.0      18.5       0.0      57.9       0.3
12 C  s               0.0       0.0      76.3       0.4      20.5       0.6
13 S  s               0.2      98.5       0.0       0.0       0.0       0.0
14 P  s               0.1       0.1       0.0       0.0       0.0       0.0
14 P  pz              0.1       0.0       0.0       0.0       0.0       0.0
15 S  s              98.8       0.2       0.0       0.0       0.0       0.0
15 S  pz              0.1       0.0       0.0       0.0       0.0       0.0
17 C  s               0.0       0.0       0.0       0.1       0.6       6.5
19 C  s               0.1       0.0       0.1       0.0       1.2      91.5

                    498       499       500       501       502       503   
                  22.02095  22.04311  22.08740  22.12123  22.31379  22.40646
                   0.00000   0.00000   0.00000   0.00000   0.00000   0.00000
                  --------  --------  --------  --------  --------  --------
 0 C  s               0.4       0.0       0.2       0.0       0.1       0.0
 1 C  s              19.0      54.2      17.7       4.0       0.0       0.0
 2 O  s               0.0       0.0       0.0       0.0       0.2       0.0
 3 C  s               0.0       0.0       0.1       0.5      96.5       1.3
 4 O  s               0.0       0.0       0.0       0.0       0.2       0.0
 4 O  pz              0.0       0.0       0.0       0.0       0.1       0.0
 5 C  s              18.3       3.0      48.8      18.1       0.0       0.6
 6 C  s               0.0       0.5      16.7      72.8       0.7       0.3
 8 C  s               0.2       0.0       0.1       0.8       1.3      95.2
 9 O  s               0.0       0.0       0.0       0.0       0.0       0.2
 9 O  px              0.0       0.0       0.0       0.0       0.0       0.1
10 O  s               0.0       0.0       0.0       0.0       0.0       0.2
11 C  s              10.5       1.9       6.9       2.5       0.2       1.0
12 C  s               1.1       0.1       0.1       0.3       0.0       0.3
13 S  s               0.0       0.0       0.0       0.2       0.1       0.0
17 C  s              47.8      35.6       8.6       0.1       0.0       0.3
19 C  s               2.3       4.0       0.1       0.3       0.0       0.0

                    504       505       506       507       508       509   
                  43.73161  43.75798  43.76867  43.79086  43.83205  43.92857
                   0.00000   0.00000   0.00000   0.00000   0.00000   0.00000
                  --------  --------  --------  --------  --------  --------
 2 O  s              14.9      31.5      48.6       4.6       0.3       0.1
 4 O  s              79.5      13.9       5.2       1.2       0.0       0.2
 9 O  s               1.0       6.5       1.6       3.6      87.3       0.1
10 O  s               1.2      42.3      41.2       0.8       6.2       8.2
14 P  s               0.0       0.0       0.0       0.0       0.0       0.1
16 O  s               3.3       1.8       0.4      86.8       5.7       1.9
18 O  s               0.1       4.0       3.0       2.9       0.4      89.4



                      *****************************
                      * MAYER POPULATION ANALYSIS *
                      *****************************

  NA   - Mulliken gross atomic population
  ZA   - Total nuclear charge
  QA   - Mulliken gross atomic charge
  VA   - Mayer's total valence
  BVA  - Mayer's bonded valence
  FA   - Mayer's free valence

  ATOM       NA         ZA         QA         VA         BVA        FA
  0 C      6.4694     6.0000    -0.4694     3.8227     3.8227     0.0000
  1 C      6.1359     6.0000    -0.1359     3.6746     3.6746     0.0000
  2 O      8.1720     8.0000    -0.1720     1.9284     1.9284     0.0000
  3 C      5.6172     6.0000     0.3828     3.8796     3.8796     0.0000
  4 O      8.4194     8.0000    -0.4194     1.9714     1.9714    -0.0000
  5 C      6.4259     6.0000    -0.4259     3.8288     3.8288     0.0000
  6 C      6.0205     6.0000    -0.0205     3.6727     3.6727    -0.0000
  7 H      0.7415     1.0000     0.2585     0.9313     0.9313    -0.0000
  8 C      5.6594     6.0000     0.3406     3.8344     3.8344    -0.0000
  9 O      8.3988     8.0000    -0.3988     1.9921     1.9921    -0.0000
 10 O      8.1513     8.0000    -0.1513     2.0177     2.0177    -0.0000
 11 C      6.1507     6.0000    -0.1507     3.6590     3.6590     0.0000
 12 C      6.4480     6.0000    -0.4480     3.8409     3.8409    -0.0000
 13 S     16.2220    16.0000    -0.2220     2.1376     2.1376    -0.0000
 14 P     14.1912    15.0000     0.8088     5.1281     5.1281    -0.0000
 15 S     16.4658    16.0000    -0.4658     2.0407     2.0407    -0.0000
 16 O      8.3597     8.0000    -0.3597     1.8234     1.8234     0.0000
 17 C      6.2947     6.0000    -0.2947     3.7818     3.7818    -0.0000
 18 O      8.3040     8.0000    -0.3040     1.9128     1.9128     0.0000
 19 C      6.2970     6.0000    -0.2970     3.7474     3.7474    -0.0000
 20 H      0.8266     1.0000     0.1734     0.9573     0.9573     0.0000
 21 H      0.8469     1.0000     0.1531     0.9617     0.9617     0.0000
 22 H      0.8504     1.0000     0.1496     0.9643     0.9643     0.0000
 23 H      0.8490     1.0000     0.1510     0.9515     0.9515     0.0000
 24 H      0.8306     1.0000     0.1694     0.9580     0.9580     0.0000
 25 H      0.7977     1.0000     0.2023     0.9461     0.9461     0.0000
 26 H      0.8105     1.0000     0.1895     0.9529     0.9529     0.0000
 27 H      0.8273     1.0000     0.1727     0.9476     0.9476     0.0000
 28 H      0.8430     1.0000     0.1570     0.9497     0.9497     0.0000
 29 H      0.8422     1.0000     0.1578     0.9603     0.9603    -0.0000
 30 H      0.8481     1.0000     0.1519     0.9629     0.9629    -0.0000
 31 H      0.8488     1.0000     0.1512     0.9613     0.9613    -0.0000
 32 H      0.8261     1.0000     0.1739     0.9560     0.9560     0.0000
 33 H      0.8539     1.0000     0.1461     0.9560     0.9560     0.0000
 34 H      0.8412     1.0000     0.1588     0.9555     0.9555     0.0000
 35 H      0.8353     1.0000     0.1647     0.9571     0.9571     0.0000
 36 H      0.8331     1.0000     0.1669     0.9518     0.9518     0.0000
 37 H      0.8450     1.0000     0.1550     0.9560     0.9560     0.0000

  Mayer bond orders larger than 0.100000
B(  0-C ,  1-C ) :   0.9392 B(  0-C , 20-H ) :   0.9707 B(  0-C , 21-H ) :   0.9736 
B(  0-C , 22-H ) :   0.9635 B(  1-C ,  2-O ) :   0.8052 B(  1-C , 23-H ) :   0.9619 
B(  1-C , 24-H ) :   0.9670 B(  2-O ,  3-C ) :   1.1003 B(  3-C ,  4-O ) :   1.8403 
B(  3-C ,  5-C ) :   0.9605 B(  5-C ,  6-C ) :   0.9025 B(  5-C , 25-H ) :   0.9201 
B(  5-C , 26-H ) :   0.9662 B(  6-C ,  7-H ) :   0.9126 B(  6-C ,  8-C ) :   0.8768 
B(  6-C , 13-S ) :   0.8790 B(  8-C ,  9-O ) :   1.8090 B(  8-C , 10-O ) :   1.1966 
B( 10-O , 11-C ) :   0.7813 B( 11-C , 12-C ) :   0.9443 B( 11-C , 27-H ) :   0.9503 
B( 11-C , 28-H ) :   0.9494 B( 12-C , 29-H ) :   0.9719 B( 12-C , 30-H ) :   0.9666 
B( 12-C , 31-H ) :   0.9725 B( 13-S , 14-P ) :   0.9789 B( 14-P , 15-S ) :   1.7824 
B( 14-P , 16-O ) :   1.0102 B( 14-P , 18-O ) :   1.1926 B( 16-O , 17-C ) :   0.8397 
B( 17-C , 32-H ) :   0.9585 B( 17-C , 33-H ) :   0.9693 B( 17-C , 34-H ) :   0.9538 
B( 18-O , 19-C ) :   0.7964 B( 19-C , 35-H ) :   0.9592 B( 19-C , 36-H ) :   0.9632 
B( 19-C , 37-H ) :   0.9656 

-------
TIMINGS
-------

Total SCF time: 0 days 0 hours 1 min 5 sec 

Total time                  ....      65.674 sec
Sum of individual times     ....      65.643 sec  (100.0%)

SCF preparation             ....       0.167 sec  (  0.3%)
Fock matrix formation       ....      64.025 sec  ( 97.5%)
  Startup                   ....       0.020 sec  (  0.0% of F)
  Split-RI-J                ....      22.232 sec  ( 34.7% of F)
  XC integration            ....      41.375 sec  ( 64.6% of F)
    XC Preparation          ....       0.000 sec  (  0.0% of XC)
    Basis function eval.    ....       6.487 sec  ( 15.7% of XC)
    Density eval.           ....      16.556 sec  ( 40.0% of XC)
    XC-Functional eval.     ....       3.015 sec  (  7.3% of XC)
    XC-Potential eval.      ....      14.565 sec  ( 35.2% of XC)
Diagonalization             ....       0.000 sec  (  0.0%)
Density matrix formation    ....       0.106 sec  (  0.2%)
Total Energy calculation    ....       0.010 sec  (  0.0%)
Population analysis         ....       0.293 sec  (  0.4%)
Orbital Transformation      ....       0.131 sec  (  0.2%)
Orbital Orthonormalization  ....       0.000 sec  (  0.0%)
DIIS solution               ....       0.805 sec  (  1.2%)
  MO trafo                  ....       0.000 sec  (  0.0 % of DIIS)
  Orb grad                  ....       0.000 sec  (  0.0 % of DIIS)
  Energy W gradient         ....       0.000 sec  (  0.0 % of DIIS)
  DIIS error                ....       0.130 sec  ( 16.1 % of DIIS)
  DIIS work                 ....       0.603 sec  ( 74.9 % of DIIS)
  Form Q                    ....       0.000 sec  (  0.0 % of DIIS)
  Form QpQm                 ....       0.000 sec  (  0.0 % of DIIS)
  Exp/Cayley                ....       0.000 sec  (  0.0 % of DIIS)
  Orb update                ....       0.000 sec  (  0.0 % of DIIS)
  Wake-sleep                ....       0.005 sec  (  0.6 % of DIIS)
SOSCF solution              ....       0.105 sec  (  0.2%)
  MO trafo                  ....       0.081 sec  ( 77.3 % of SOSCF)
  Orb grad                  ....       0.000 sec  (  0.3 % of SOSCF)
  Rot update                ....       0.000 sec  (  0.1 % of SOSCF)
  Step                      ....       0.023 sec  ( 22.2 % of SOSCF)
Finished LeanSCF after  65.7 sec

Maximum memory used throughout the entire LEANSCF-calculation: 68.7 MB


-------------------------------------------------------------------------------
                          DFT DISPERSION CORRECTION                            
                                                                               
                                DFTD4 V3.4.0                                   
-------------------------------------------------------------------------------
The R2SCAN3C composite method is recognized
Using three-body term ABC
Active option DFTDOPT                   ...         5   

-------------------------   ----------------
Dispersion correction           -0.016254099
-------------------------   ----------------

------------------   -----------------
gCP correction             0.037443557
------------------   -----------------

-------------------------   --------------------
FINAL SINGLE POINT ENERGY     -1981.448238703468
-------------------------   --------------------


------------------------------------------------------------------------------
                              ORCA PROPERTY CALCULATIONS
------------------------------------------------------------------------------

GBWName                                 ... sp_gas.gbw
Number of atoms                         ...     38
Number of basis functions               ...    510
Max core memory                         ...   1024 MB

Electric properties:
Dipole moment                           ... YES
Quadrupole moment                       ...  NO
Static polarizability (Dipole/Dipole)   ...  NO
Static polarizability (Dipole/Quad.)    ...  NO
Static polarizability (Quad./Quad.)     ...  NO
Static polarizability (Velocity)        ...  NO

Atomic electric properties:
Dipole moment                           ...  NO
Quadrupole moment                       ...  NO
Static polarizability                   ...  NO

Choice of electric origin               ... Center of mass
Position of electric origin             ...     0.000008    -0.000001    -0.000002

General magnetic properties:
Magnetizability                         ...  NO

EPR properties:
g-Tensor (aka g-matrix)                 ...  NO
Zero-Field splitting spin-orbit         ...  NO
Zero-field splitting spin-spin          ...  NO
Hyperfine couplings                     ...  NO (   0 nuclei)
Quadrupole couplings                    ...  NO (   0 nuclei)
Contact density                         ...  NO (   0 nuclei)

NMR properties:
Chemical shifts                         ...  NO (   0 nuclei)
Spin-rotation constants                 ...  NO (   0 nuclei)
Spin-spin couplings                     ...  NO (   0 nuclei,    0 pairs)

Choice of magnetic origin               ... GIAO
Position of magnetic origin             ...     0.000000     0.000000     0.000000

Properties with geometric perturbations:
SCF Hessian                             ...  NO
IR spectrum                             ...  NO
VCD spectrum                            ...  NO
X-ray spectroscopy properties:
SCF XES/XAS/RIXS spectra                ...  NO


-------------
DIPOLE MOMENT
-------------

Method             : SCF
Type of density    : Electron Density
Multiplicity       :   1
Irrep              :   0
Energy             : -1981.4694281611564293 Eh
Relativity type    : 
Basis              : AO
                                X                 Y                 Z
Electronic contribution:    -17.770673189       2.409567455       1.227638642
Nuclear contribution   :     19.539355509      -3.118550106      -0.240438837
                        -----------------------------------------
Total Dipole Moment    :      1.768682320      -0.708982651       0.987199804
                        -----------------------------------------
Magnitude (a.u.)       :      2.146032852
Magnitude (Debye)      :      5.454782011



--------------------
Rotational spectrum 
--------------------
 
Rotational constants in cm-1:             0.010628             0.006751             0.004847 
Rotational constants in MHz :           318.610636           202.394535           145.305387 

Dipole components along the rotational axes: 
x,y,z [a.u.] :    -1.672131     0.468931     1.260769 
x,y,z [Debye]:    -4.250220     1.191927     3.204620 

 

Dipole moment calculation done in   0.0 sec 

Maximum memory used throughout the entire PROP-calculation: 48.7 MB

--------------------------------
SUGGESTED CITATIONS FOR THIS RUN
--------------------------------

Below you find a list of papers that are relevant to this ORCA run
We neither can nor want to force you to cite these papers, but we appreciate if you do
You receive ORCA, which is the product of decades of hard work by many enthusiastic individuals, for free
The only thing we kindly ask in return is that you cite our papers,
We deeply appreciate it, if you show your appreciation for ORCA by not just citing the generic ORCA reference.

Please note that relegating all ORCA citations to the supporting information does *not* help us.
SI sections are not indexed - citations you put there will not count into any citation statistics
But we need these citations in order to attract the funding resources that allow us to do what we are doing

Therefore, if you are a happy ORCA user, please consider citing a few of the papers listed below in the main body of your paper

In addition to the list printed below, the program has created the file sp_gas.bibtex that contains the list in bibtex format
You can import this file easily into all common literature databanks and citation aid programs


List of essential papers. We consider these as the minimum necessary citations

  1. Neese,F.
     Software update: the ORCA program system, version 5.0
     WIRES Comput. Molec. Sci., 2022 12(1)e1606
     doi.org/10.1002/wcms.1606
  2. Grimme,S.; Hansen,A.; Ehlert,S.; Mewes,J.
     r2SCAN-3c: A 'Swiss army knife' composite electronic-structure method
     J. Chem. Phys., 2021 154 064103
     doi.org/10.1063/5.0040021

List of papers to cite with high priority. The work reported in these papers was absolutely
necessary for this run to complete.
Our perspective: the developers of density functionals and basis sets usually get cited in chemistry papers
Good! But without the algorithms to do something with them, the functionals or basis sets would not do anything.
Hence, in our opinion, the algorithm design and method developments papers are equally worthy of getting cited

  1. Neese,F.
     An improvement of the resolution of the identity approximation for the formation of the Coulomb matrix
     J. Comp. Chem., 2003 24(14)1740-1747
     doi.org/10.1002/jcc.10318
  2. Neese,F.
     The SHARK Integral Generation and Digestion System
     J. Comp. Chem., 2022  1-16
     doi.org/10.1002/jcc.26942
  3. Lehtola,S.; Steigemann,C.; Oliveira,M.; Marques,M.
     Recent developments in Libxc - A comprehensive library of functionals for density functional theory
     Software X, 2018 7 
     doi.org/10.1016/j.softx.2017.11.002
  4. Caldeweyher,E.; Bannwarth,C.; Grimme,S.
     Extension of the D3 dispersion coefficient model
     J. Chem. Phys., 2017 147 034112
     doi.org/10.1063/1.4993215
  5. Caldeweyher,E.; Ehlert,S.; Hansen,A.; Neugebauer,H.; Spicher,S.; Bannwarth,C.; Grimme,S.
     A generally applicable atomic-charge dependent London dispersion correction
     J. Chem. Phys., 2019 150 154122
     doi.org/10.1063/1.5090222
  6. Caldeweyher,E.; Mewes,J.; Ehlert,S.; Grimme,S.
     Extension and evaluation of the D4 London-dispersion model for periodic systems
     Phys. Chem. Chem. Phys., 2020 22(16)8499-8512
     doi.org/10.1039/D0CP00502A
  7. Wittmann,L.; Gordiy,I.; Friede,M.; Helmich-Paris,B.; Grimme,S.; Hansen,A.; Bursch,M.
     Extension of the D3 and D4 London Dispersion Corrections to the full Actinides Series
     Phys. Chem. Chem. Phys., 2024 26(32)21379-21394
     doi.org/https://doi.org/10.1039/D4CP01514B 

List of suggested additional citations. These are papers that are important in the 'surrounding' of 
of this run, or papers that preceded the highly important papers. If you like your results we are grateful for a citation.

  1. Neese,F.
     The ORCA program system
     WIRES Comput. Molec. Sci., 2012 2(1)73-78
     doi.org/10.1002/wcms.81
  2. Neese,F.
     Software update: the ORCA program system, version 4.0
     WIRES Comput. Molec. Sci., 2018 8(1)1-6
     doi.org/10.1002/wcms.1327
  3. Neese,F.; Wennmohs,F.; Becker,U.; Riplinger,C.
     The ORCA quantum chemistry program package
     J. Chem. Phys., 2020 152 Art. No. L224108
     doi.org/10.1063/5.0004608

List of optional additional citations

  1. Neese,F.
     Approximate second-order SCF convergence for spin unrestricted wavefunctions
     Chem. Phys. Lett., 2000 325(1-3)93-98
     doi.org/10.1016/s0009-2614(00)00662-x

Timings for individual modules:

Sum of individual times          ...       68.656 sec (=   1.144 min)
Startup calculation              ...        2.553 sec (=   0.043 min)   3.7 %
SCF iterations                   ...       65.994 sec (=   1.100 min)  96.1 %
Property calculations            ...        0.108 sec (=   0.002 min)   0.2 %
                             ****ORCA TERMINATED NORMALLY****
TOTAL RUN TIME: 0 days 0 hours 1 minutes 9 seconds 650 msec
