
                                 *****************
                                 * O   R   C   A *
                                 *****************

                                            #,                                       
                                            ###                                      
                                            ####                                     
                                            #####                                    
                                            ######                                   
                                           ########,                                 
                                     ,,################,,,,,                         
                               ,,#################################,,                 
                          ,,##########################################,,             
                       ,#########################################, ''#####,          
                    ,#############################################,,   '####,        
                  ,##################################################,,,,####,       
                ,###########''''           ''''###############################       
              ,#####''   ,,,,##########,,,,          '''####'''          '####       
            ,##' ,,,,###########################,,,                        '##       
           ' ,,###''''                  '''############,,,                           
         ,,##''                                '''############,,,,        ,,,,,,###''
      ,#''                                            '''#######################'''  
     '                                                          ''''####''''         
             ,#######,   #######,   ,#######,      ##                                
            ,#'     '#,  ##    ##  ,#'     '#,    #''#        ,####,   ,####,        
            ##       ##  ##   ,#'  ##            #'  '#       #'       #'  '#        
            ##       ##  #######   ##           ,######,      #####,   #    #        
            '#,     ,#'  ##    ##  '#,     ,#' ,#      #,     #,   #   #,  ,#        
             '#######'   ##     ##  '#######'  #'      '#     '####' # '####'        



                #########################################################
                #                        -***-                          #
                #          Department of theory and spectroscopy        #
                #                                                       #
                #                      Frank Neese                      #
                #                                                       #
                #     Directorship, Architecture, Infrastructure        #
                #                    SHARK, DRIVERS                     #
                #        Core code/Algorithms in most modules           #
                #                                                       #
                #        Max Planck Institute fuer Kohlenforschung      #
                #                Kaiser Wilhelm Platz 1                 #
                #                 D-45470 Muelheim/Ruhr                 #
                #                      Germany                          #
                #                                                       #
                #                  All rights reserved                  #
                #                        -***-                          #
                #########################################################


                         Program Version 6.0.1  -  RELEASE   -


 With contributions from (in alphabetic order):
[Max-Planck-Institut fuer Kohlenforschung]                               
  Daniel Aravena         : Magnetic Suceptibility                        
  Michael Atanasov       : Ab Initio Ligand Field Theory (pilot matlab implementation)
  Alexander A. Auer      : GIAO ZORA, VPT2 properties, NMR spectrum      
  Ute Becker             : All parallelization in ORCA, NUMFREQ, NUMCALC 
  Giovanni Bistoni       : ED, misc. LED, open-shell LED, HFLD           
  Martin Brehm           : Molecular dynamics                            
  Dmytro Bykov           : pre 5.0 version of the SCF Hessian            
  Marcos Casanova-Páez   : Triplet and SCS-CIS(D). UHF-(DLPNO)-IP/EA/STEOM-CCSD. UHF-CVS-IP/STEOM-CCSD   
  Vijay G. Chilkuri      : MRCI spin determinant printing, contributions to CSF-ICE 
  Pauline Colinet        : FMM embedding                                 
  Dipayan Datta          : RHF DLPNO-CCSD density                        
  Achintya Kumar Dutta   : EOM-CC, STEOM-CC                              
  Nicolas Foglia         : Exact transition moments, OPA infrastructure, MCD improvements    
  Dmitry Ganyushin       : Spin-Orbit,Spin-Spin,Magnetic field MRCI      
  Miquel Garcia-Rates    : C-PCM and meta-GGA Hessian, CCSD/C-PCM, Gaussian charge scheme 
  Tiago L. C. Gouveia    : GS-ROHF, GS-ROCIS                             
  Yang Guo               : DLPNO-NEVPT2, F12-NEVPT2, CIM, IAO-localization        
  Andreas Hansen         : Spin unrestricted coupled pair/coupled cluster methods 
  Ingolf Harden          : AUTO-CI MPn and infrastructure                
  Benjamin Helmich-Paris : MC-RPA, TRAH-(SCF,CASSCF), AVAS, COSX integrals, SCF dyn. polar. 
  Lee Huntington         : MR-EOM, pCC                                   
  Robert Izsak           : Overlap fitted RIJCOSX, COSX-SCS-MP3, EOM     
  Riya Kayal             : Wick's Theorem for AUTO-CI, AUTO-CI UHF-CCSDT 
  Emily Kempfer          : AUTO-CI, RHF CISDT and CCSDT                  
  Christian Kollmar      : KDIIS, OOCD, Brueckner-CCSD(T), CCSD density, CASPT2, CASPT2-K, improved NEVPT2 
  Axel Koslowski         : Symmetry handling                             
  Simone Kossmann        : meta-GGA functionals, TD-DFT gradient, OOMP2, (MP2 Hessian; deprecated post 5.0) 
  Lucas Lang             : DCDCAS                                        
  Marvin Lechner         : AUTO-CI (C++ implementation), FIC-MRCC        
  Spencer Leger          : CASSCF response                               
  Dagmar Lenk            : GEPOL surface, SMD, ORCA-2-JSON               
  Dimitrios Liakos       : Extrapolation schemes; Compound Job, initial MDCI parallelization 
  Dimitrios Manganas     : Further ROCIS development; embedding schemes. LFT, Crystal Embedding 
  Dimitrios Pantazis     : SARC Basis sets                               
  Anastasios Papadopoulos: AUTO-CI, single reference methods and gradients 
  Taras Petrenko         : pre 6.0 DFT Hessian and TD-DFT gradient, (ASA, deprecated), ECA, 1-Electron XAS/XES, NRVS 
  Peter Pinski           : DLPNO-MP2, DLPNO-MP2 Gradient                 
  Christoph Reimann      : Effective Core Potentials                     
  Marius Retegan         : Local ZFS, SOC                                
  Christoph Riplinger    : Optimizer, TS searches, QM/MM, DLPNO-CCSD(T), (RO)-DLPNO pert. Triples 
  Michael Roemelt        : Original ROCIS implementation                 
  Masaaki Saitow         : Open-shell DLPNO-CCSD energy and density      
  Barbara Sandhoefer     : DKH picture change effects                    
  Kantharuban Sivalingam : CASSCF convergence/infrastructure, NEVPT2 and variants, FIC-MRCI 
  Bernardo de Souza      : ESD, SOC TD-DFT                               
  Georgi L. Stoychev     : AutoAux, RI-MP2 NMR, DLPNO-MP2 response, X2C  
  Van Anh Tran           : RI-MP2 g-tensors                              
  Willem Van den Heuvel  : Paramagnetic NMR                              
  Zikuan Wang            : NOTCH, Electric field optimization            
  Frank Wennmohs         : Technical directorship and infrastructure     
  Hang Xu                : AUTO-CI-Response properties                   
                                                                         
[FACCTs GmbH]                                                            
  Markus Bursch, Miquel Garcia-Rates, Christoph Riplinger, Bernardo de Souza, Georgi L. Stoychev 
                                                                 
  APM, Basis sets (HGBS, AHGBS, def-TZVP (Ac-Lr), def2-XVPD (La-Lu)), CI-OPT, improved COSX, DLPNO-Multilevel,           
  DOCKER, DRACO, updates on ESD, GOAT, IRC, LR-CPCM, MBIS, meta-GGA TD-DFT gradient, ML-optimized integration grids, 
  MM, NACMEs, nearIR, NEB, NEB-TS, NL-DFT gradient (VV10), 2- and 3-layer-ONIOM, interface openCOSMO-RS, QMMM,   
  Crystal-QMMM, SF, symmetry and pop. for TD-DFT, r2SCAN hybrids, SOLVATOR                                   
                                                                         
[Other institutions]                                                     
  V. Asgeirsson          : NEB                                           
  Christoph Bannwarth    : sTDA-DFT, sTD-DFT, PBEh-3c, B97-3c, D3        
  Sebastian Ehlert       : rSCAN, r2SCAN, r2SCAN-3c, D4, dhf basis sets  
  Marvin Friede          : D4 for Fr, Ra, Ac-Lr                          
  Lars Goerigk           : TD-DFT with DH, B97 family of functionals     
  Stefan Grimme          : VdW corrections, initial TS optimization, DFT functionals, gCP, sTDA/sTD-DF 
  Waldemar Hujo          : DFT-NL                                        
  H. Jonsson             : NEB                                           
  Holger Kruse           : gCP                                           
  Marcel Mueller         : wB97X-3c, vDZP basis set                      
  Hagen Neugebauer       : wr2SCAN                                       
  Tobias Risthaus        : range-separated hybrid DFT                    
  Lukas Wittmann         : regularized MP2, r2SCAN double-hybrids, wr2SCAN        
                                                                         
We gratefully acknowledge several colleagues who have allowed us to      
interface, adapt or use parts of their codes:                            
  Ed Valeev, F. Pavosevic, A. Kumar             : LibInt (2-el integral package), F12 methods 
  Garnet Chan, S. Sharma, J. Yang, R. Olivares  : DMRG                   
  Ulf Ekstrom                                   : XCFun DFT Library      
  Mihaly Kallay                                 : mrcc  (arbitrary order and MRCC methods)
  Frank Weinhold                                : gennbo (NPA and NBO analysis)           
  Simon Mueller                                 : openCOSMO-RS                            
  Christopher J. Cramer and Donald G. Truhlar   : smd solvation model                     
  S Lehtola, MJT Oliveira, MAL Marques          : LibXC Library                           
  Liviu Ungur et al                             : ANISO software                          


 Your calculation uses the libint2 library for the computation of 2-el integrals
 For citations please refer to: http://libint.valeyev.net

 Your ORCA version has been built with support for libXC version: 6.2.2
 For citations please refer to: https://libxc.gitlab.io

 This ORCA versions uses:
   CBLAS   interface :  Fast vector & matrix operations
   LAPACKE interface :  Fast linear algebra routines
   SCALAPACK package :  Parallel linear algebra routines
   Shared memory     :  Shared parallel matrices
   BLAS/LAPACK       :  OpenBLAS 0.3.27  USE64BITINT DYNAMIC_ARCH NO_AFFINITY Zen SINGLE_THREADED
        Core in use  :  Zen
   Copyright (c) 2011-2014, The OpenBLAS Project


Your calculation utilizes the geometrical counterpoise correction gCP
Please cite in your paper:
H.Kruse, S. Grimme J.Chem.Phys., 136, (2012), 154101 
   

Your calculation utilizes the atom-pairwise dispersion correction
based on EEQ partial charges (D4)


Your calculation utilizes the SMD solvation module
Please cite in your paper:
A.V. Marenich, C.J. Cramer, D.G. Truhlar J. Phys. Chem. B, 113, (2009), 6378 

================================================================================

----- Orbital basis set information -----
Your calculation utilizes the basis: def2-mTZVPP
   Stefan Grimme, Andreas Hansen, Sebastian Ehlert, and Jan-Michael Mewes 
   J. Chem. Phys. 154, 064103 (2021). DOI: 10.1063/5.0040021

----- AuxJ basis set information -----
Your calculation utilizes the auxiliary basis: def2/J
   F. Weigend, Phys. Chem. Chem. Phys. 8, 1057 (2006).

================================================================================
                                        WARNINGS
                       Please study these warnings very carefully!
================================================================================

WARNING: Old DensityContainer found on disk!
         Will remove this file - 
         If you want to keep old densities, please start your calculation with a different basename. 



WARNING: SCAN, rSCAN, or r2SCAN functional requested.
  ===> : libXC variant has now been activated.



================================================================================
                                       INPUT FILE
================================================================================
NAME = sp_solv.inp
|  1> ! r2scan-3c def2/J RI DEFGRID2 scfconv6 printgap
|  2> %output
|  3>     printlevel normal
|  4> end
|  5> %cpcm
|  6>     smd true
|  7>     smdsolvent "water"
|  8> end
|  9> * xyz 0 1
| 10> C 4.6291548477 -3.2345930692 -2.018004124
| 11> C 3.632125321 -3.5911737969 -0.9268473381
| 12> O 3.2732759884 -2.4287377829 -0.1545430633
| 13> C 2.2919851691 -1.6636898399 -0.5906353981
| 14> O 1.63942396 -1.8772512759 -1.5872419743
| 15> C 2.0871910144 -0.4708161093 0.3257923106
| 16> C 0.7187811648 0.1475959113 0.0923407108
| 17> H 0.5484227228 0.258901881 -0.987197919
| 18> C 0.5262241459 1.5107667604 0.7253356229
| 19> O -0.5096898755 1.8298378144 1.2744165647
| 20> O 1.5633786946 2.2881073563 0.5825970646
| 21> C 1.456471737 3.6429662314 1.0761254275
| 22> C 2.7440792433 4.3655249975 0.7370224324
| 23> S -0.6023233754 -0.9415990006 0.72715553
| 24> P -2.2628622492 0.1955941145 0.0487778822
| 25> S -1.9754096382 1.4295616961 -1.442846308
| 26> O -3.2860712406 -0.9895672795 -0.3286967622
| 27> C -3.057366408 -1.8284183196 -1.4626247457
| 28> O -3.0470262401 0.8179831335 1.2676005368
| 29> C -3.3848627864 0.055576752 2.4427309364
| 30> H 4.1731807219 -2.5540817901 -2.7335327945
| 31> H 5.5050800763 -2.7598528246 -1.5847713686
| 32> H 4.9315090213 -4.1383322477 -2.5366583324
| 33> H 4.0665637551 -4.2767408785 -0.1994002824
| 34> H 2.7220096415 -4.0173792278 -1.3579936734
| 35> H 2.8567242112 0.2697995039 0.0967779314
| 36> H 2.2094843343 -0.7944852856 1.3591985291
| 37> H 0.585983019 4.1082314813 0.6035474575
| 38> H 1.2815924572 3.5992503827 2.1550291137
| 39> H 2.8994930254 4.3643418461 -0.337583451
| 40> H 2.6787257611 5.3903450353 1.0865988965
| 41> H 3.5859395954 3.8763642919 1.2170096892
| 42> H -2.9034619826 -1.2183798512 -2.3543996125
| 43> H -3.9535409071 -2.4345692359 -1.5649547365
| 44> H -2.1829158944 -2.4580373825 -1.2937976707
| 45> H -2.4831366011 -0.3779854957 2.8754318961
| 46> H -4.0931354081 -0.7293671367 2.1833214541
| 47> H -3.8303341787 0.7749199321 3.124821382
| 48> *
| 49> 
| 50>                          ****END OF INPUT****
================================================================================

                       ****************************
                       * Single Point Calculation *
                       ****************************

---------------------------------
CARTESIAN COORDINATES (ANGSTROEM)
---------------------------------
  C      4.629155   -3.234593   -2.018004
  C      3.632125   -3.591174   -0.926847
  O      3.273276   -2.428738   -0.154543
  C      2.291985   -1.663690   -0.590635
  O      1.639424   -1.877251   -1.587242
  C      2.087191   -0.470816    0.325792
  C      0.718781    0.147596    0.092341
  H      0.548423    0.258902   -0.987198
  C      0.526224    1.510767    0.725336
  O     -0.509690    1.829838    1.274417
  O      1.563379    2.288107    0.582597
  C      1.456472    3.642966    1.076125
  C      2.744079    4.365525    0.737022
  S     -0.602323   -0.941599    0.727156
  P     -2.262862    0.195594    0.048778
  S     -1.975410    1.429562   -1.442846
  O     -3.286071   -0.989567   -0.328697
  C     -3.057366   -1.828418   -1.462625
  O     -3.047026    0.817983    1.267601
  C     -3.384863    0.055577    2.442731
  H      4.173181   -2.554082   -2.733533
  H      5.505080   -2.759853   -1.584771
  H      4.931509   -4.138332   -2.536658
  H      4.066564   -4.276741   -0.199400
  H      2.722010   -4.017379   -1.357994
  H      2.856724    0.269800    0.096778
  H      2.209484   -0.794485    1.359199
  H      0.585983    4.108231    0.603547
  H      1.281592    3.599250    2.155029
  H      2.899493    4.364342   -0.337583
  H      2.678726    5.390345    1.086599
  H      3.585940    3.876364    1.217010
  H     -2.903462   -1.218380   -2.354400
  H     -3.953541   -2.434569   -1.564955
  H     -2.182916   -2.458037   -1.293798
  H     -2.483137   -0.377985    2.875432
  H     -4.093135   -0.729367    2.183321
  H     -3.830334    0.774920    3.124821

----------------------------
CARTESIAN COORDINATES (A.U.)
----------------------------
  NO LB      ZA    FRAG     MASS         X           Y           Z
   0 C     6.0000    0    12.011    8.747835   -6.112495   -3.813475
   1 C     6.0000    0    12.011    6.863722   -6.786335   -1.751488
   2 O     8.0000    0    15.999    6.185595   -4.589649   -0.292044
   3 C     6.0000    0    12.011    4.331224   -3.143918   -1.116139
   4 O     8.0000    0    15.999    3.098062   -3.547491   -2.999453
   5 C     6.0000    0    12.011    3.944219   -0.889714    0.615658
   6 C     6.0000    0    12.011    1.358300    0.278916    0.174499
   7 H     1.0000    0     1.008    1.036369    0.489254   -1.865534
   8 C     6.0000    0    12.011    0.994420    2.854935    1.370686
   9 O     8.0000    0    15.999   -0.963174    3.457892    2.408298
  10 O     8.0000    0    15.999    2.954358    4.323896    1.100949
  11 C     6.0000    0    12.011    2.752333    6.884208    2.033582
  12 C     6.0000    0    12.011    5.185558    8.249647    1.392771
  13 S    16.0000    0    32.060   -1.138226   -1.779364    1.374125
  14 P    15.0000    0    30.974   -4.276190    0.369619    0.092177
  15 S    16.0000    0    32.060   -3.732983    2.701480   -2.726584
  16 O     8.0000    0    15.999   -6.209775   -1.870011   -0.621147
  17 C     6.0000    0    12.011   -5.777585   -3.455210   -2.763960
  18 O     8.0000    0    15.999   -5.758045    1.545764    2.395418
  19 C     6.0000    0    12.011   -6.396464    0.105025    4.616092
  20 H     1.0000    0     1.008    7.886169   -4.826515   -5.165628
  21 H     1.0000    0     1.008   10.403094   -5.215366   -2.994784
  22 H     1.0000    0     1.008    9.319201   -7.820315   -4.793590
  23 H     1.0000    0     1.008    7.684692   -8.081869   -0.376812
  24 H     1.0000    0     1.008    5.143853   -7.591747   -2.566236
  25 H     1.0000    0     1.008    5.398426    0.509847    0.182884
  26 H     1.0000    0     1.008    4.175320   -1.501360    2.568513
  27 H     1.0000    0     1.008    1.107347    7.763432    1.140539
  28 H     1.0000    0     1.008    2.421859    6.801598    4.072415
  29 H     1.0000    0     1.008    5.479248    8.247411   -0.637940
  30 H     1.0000    0     1.008    5.062058   10.186276    2.053374
  31 H     1.0000    0     1.008    6.776444    7.325267    2.299815
  32 H     1.0000    0     1.008   -5.486748   -2.302404   -4.449170
  33 H     1.0000    0     1.008   -7.471110   -4.600669   -2.957336
  34 H     1.0000    0     1.008   -4.125113   -4.645017   -2.444923
  35 H     1.0000    0     1.008   -4.692448   -0.714289    5.433779
  36 H     1.0000    0     1.008   -7.734905   -1.378304    4.125880
  37 H     1.0000    0     1.008   -7.238283    1.464386    5.905057

--------------------------------
INTERNAL COORDINATES (ANGSTROEM)
--------------------------------
 C      0   0   0     0.000000000000     0.00000000     0.00000000
 C      1   0   0     1.520473881359     0.00000000     0.00000000
 O      2   1   0     1.441001118329   111.02241990     0.00000000
 C      3   2   1     1.318486462427   118.43432862    86.07285370
 O      4   3   2     1.210235219407   124.83956372     1.67212322
 C      4   3   2     1.518133106229   110.89573495   181.74402286
 C      6   4   3     1.519696875418   110.39462034   198.00197643
 H      7   6   4     1.098551168987   109.37969181   313.46992774
 C      7   6   4     1.515254278367   114.60392388   192.77573016
 O      9   7   6     1.215077807337   122.23237513   220.70183773
 O      9   7   6     1.303964054700   112.92324403    42.34105271
 C     11   9   7     1.445905223038   117.54377628   176.21479089
 C     12  11   9     1.514930725160   107.91940351   182.86697797
 S      7   6   4     1.826103123299   110.81274682    71.01394973
 P     14   7   6     2.123862934717    97.77193862   184.79591217
 S     15  14   7     1.957101867763   117.78796276    22.41472070
 O     15  14   7     1.610605872669   100.22785117   144.41962313
 C     17  15  14     1.428905049223   121.08368468   289.23636389
 O     15  14   7     1.577279277415   110.68126081   248.13744266
 C     19  15  14     1.440947076971   122.54543981   314.26648083
 H      1   2   3     1.087653107700   110.11715335   295.68694412
 H      1   2   3     1.086422535799   110.18120750    56.05698065
 H      1   2   3     1.084972228649   109.29605533   176.13103761
 H      2   1   3     1.089916600132   111.41488403   244.07325662
 H      2   1   3     1.093548710320   110.74471399   120.68872512
 H      6   4   3     1.092309669175   108.12922901    78.79410963
 H      6   4   3     1.089791633393   108.89985021   320.80788146
 H     12  11   9     1.094327327018   108.04736326   304.31293871
 H     12  11   9     1.093858766947   108.12156252    61.44635376
 H     13  12  11     1.085786649463   110.03978214    59.41283405
 H     13  12  11     1.084772276455   109.10241746   179.18002832
 H     13  12  11     1.085538951411   110.19720519   299.14374780
 H     18  17  15     1.091373409123   110.05106922   307.20063686
 H     18  17  15     1.086747023546   105.67476625   187.81856414
 H     18  17  15     1.090681642990   110.14396903    68.19621944
 H     20  19  15     1.090099287410   109.88971249    55.89310543
 H     20  19  15     1.088613932744   109.85942495   294.43418649
 H     20  19  15     1.086805754536   104.93530113   174.92061576

---------------------------
INTERNAL COORDINATES (A.U.)
---------------------------
 C      0   0   0     0.000000000000     0.00000000     0.00000000
 C      1   0   0     2.873279229548     0.00000000     0.00000000
 O      2   1   0     2.723097472316   111.02241990     0.00000000
 C      3   2   1     2.491578325269   118.43432862    86.07285370
 O      4   3   2     2.287013122306   124.83956372     1.67212322
 C      4   3   2     2.868855805612   110.89573495   181.74402286
 C      6   4   3     2.871810901115   110.39462034   198.00197643
 H      7   6   4     2.075960853484   109.37969181   313.46992774
 C      7   6   4     2.863415609365   114.60392388   192.77573016
 O      9   7   6     2.296164287272   122.23237513   220.70183773
 O      9   7   6     2.464134951860   112.92324403    42.34105271
 C     11   9   7     2.732364887147   117.54377628   176.21479089
 C     12  11   9     2.862804182415   107.91940351   182.86697797
 S      7   6   4     3.450834795333   110.81274682    71.01394973
 P     14   7   6     4.013519292602    97.77193862   184.79591217
 S     15  14   7     3.698386546257   117.78796276    22.41472070
 O     15  14   7     3.043604009029   100.22785117   144.41962313
 C     17  15  14     2.700239214409   121.08368468   289.23636389
 O     15  14   7     2.980625871023   110.68126081   248.13744266
 C     19  15  14     2.722995348950   122.54543981   314.26648083
 H      1   2   3     2.055366502261   110.11715335   295.68694412
 H      1   2   3     2.053041058381   110.18120750    56.05698065
 H      1   2   3     2.050300375057   109.29605533   176.13103761
 H      2   1   3     2.059643883064   111.41488403   244.07325662
 H      2   1   3     2.066507576608   110.74471399   120.68872512
 H      6   4   3     2.064166128175   108.12922901    78.79410963
 H      6   4   3     2.059407730151   108.89985021   320.80788146
 H     12  11   9     2.067978948931   108.04736326   304.31293871
 H     12  11   9     2.067093498719   108.12156252    61.44635376
 H     13  12  11     2.051839407353   110.03978214    59.41283405
 H     13  12  11     2.049922520170   109.10241746   179.18002832
 H     13  12  11     2.051371325872   110.19720519   299.14374780
 H     18  17  15     2.062396853087   110.05106922   307.20063686
 H     18  17  15     2.053654251356   105.67476625   187.81856414
 H     18  17  15     2.061089604546   110.14396903    68.19621944
 H     20  19  15     2.059989111988   109.88971249    55.89310543
 H     20  19  15     2.057182198457   109.85942495   294.43418649
 H     20  19  15     2.053765236843   104.93530113   174.92061576

---------------------
BASIS SET INFORMATION
---------------------
There are 5 groups of distinct atoms

 Group   1 Type C   : 11s6p1d contracted to 5s3p1d pattern {62111/411/1}
 Group   2 Type O   : 11s6p2d contracted to 5s3p2d pattern {62111/411/11}
 Group   3 Type H   : 4s1p contracted to 2s1p pattern {31/1}
 Group   4 Type S   : 14s9p2d contracted to 5s4p2d pattern {73211/6111/11}
 Group   5 Type P   : 14s9p2d contracted to 5s4p2d pattern {73211/6111/11}

Atom   0C    basis set group =>   1
Atom   1C    basis set group =>   1
Atom   2O    basis set group =>   2
Atom   3C    basis set group =>   1
Atom   4O    basis set group =>   2
Atom   5C    basis set group =>   1
Atom   6C    basis set group =>   1
Atom   7H    basis set group =>   3
Atom   8C    basis set group =>   1
Atom   9O    basis set group =>   2
Atom  10O    basis set group =>   2
Atom  11C    basis set group =>   1
Atom  12C    basis set group =>   1
Atom  13S    basis set group =>   4
Atom  14P    basis set group =>   5
Atom  15S    basis set group =>   4
Atom  16O    basis set group =>   2
Atom  17C    basis set group =>   1
Atom  18O    basis set group =>   2
Atom  19C    basis set group =>   1
Atom  20H    basis set group =>   3
Atom  21H    basis set group =>   3
Atom  22H    basis set group =>   3
Atom  23H    basis set group =>   3
Atom  24H    basis set group =>   3
Atom  25H    basis set group =>   3
Atom  26H    basis set group =>   3
Atom  27H    basis set group =>   3
Atom  28H    basis set group =>   3
Atom  29H    basis set group =>   3
Atom  30H    basis set group =>   3
Atom  31H    basis set group =>   3
Atom  32H    basis set group =>   3
Atom  33H    basis set group =>   3
Atom  34H    basis set group =>   3
Atom  35H    basis set group =>   3
Atom  36H    basis set group =>   3
Atom  37H    basis set group =>   3
---------------------------------
AUXILIARY/J BASIS SET INFORMATION
---------------------------------
There are 5 groups of distinct atoms

 Group   1 Type C   : 12s5p4d2f1g contracted to 6s4p3d1f1g pattern {711111/2111/211/2/1}
 Group   2 Type O   : 12s5p4d2f1g contracted to 6s4p3d1f1g pattern {711111/2111/211/2/1}
 Group   3 Type H   : 5s2p1d contracted to 3s1p1d pattern {311/2/1}
 Group   4 Type S   : 14s5p5d2f1g contracted to 8s4p3d1f1g pattern {71111111/2111/311/2/1}
 Group   5 Type P   : 14s5p5d2f1g contracted to 8s4p3d1f1g pattern {71111111/2111/311/2/1}

Atom   0C    basis set group =>   1
Atom   1C    basis set group =>   1
Atom   2O    basis set group =>   2
Atom   3C    basis set group =>   1
Atom   4O    basis set group =>   2
Atom   5C    basis set group =>   1
Atom   6C    basis set group =>   1
Atom   7H    basis set group =>   3
Atom   8C    basis set group =>   1
Atom   9O    basis set group =>   2
Atom  10O    basis set group =>   2
Atom  11C    basis set group =>   1
Atom  12C    basis set group =>   1
Atom  13S    basis set group =>   4
Atom  14P    basis set group =>   5
Atom  15S    basis set group =>   4
Atom  16O    basis set group =>   2
Atom  17C    basis set group =>   1
Atom  18O    basis set group =>   2
Atom  19C    basis set group =>   1
Atom  20H    basis set group =>   3
Atom  21H    basis set group =>   3
Atom  22H    basis set group =>   3
Atom  23H    basis set group =>   3
Atom  24H    basis set group =>   3
Atom  25H    basis set group =>   3
Atom  26H    basis set group =>   3
Atom  27H    basis set group =>   3
Atom  28H    basis set group =>   3
Atom  29H    basis set group =>   3
Atom  30H    basis set group =>   3
Atom  31H    basis set group =>   3
Atom  32H    basis set group =>   3
Atom  33H    basis set group =>   3
Atom  34H    basis set group =>   3
Atom  35H    basis set group =>   3
Atom  36H    basis set group =>   3
Atom  37H    basis set group =>   3

Checking for AutoStart:
The File: sp_solv.gbw exists
Trying to determine its content:
     ... Fine, the file contains calculation information
     ... Fine, the calculation information was read
     ... Fine, the file contains a basis set
     ... Fine, the basis set was read
     ... Fine, the file contains a geometry
     ... Fine, the geometry was read
     ... Fine, the file contains a set of orbitals
     ... Fine, the orbitals can be read
     => possible old guess file was deleted
     => GBW file was renamed to GES file
     => GES file is set as startup file
     => Guess is set to MORead
     ... now leaving AutoStart

------------------------------------------------------------------------------
                             ORCA STARTUP CALCULATIONS
                           -- RI-GTO INTEGRALS CHOSEN --
------------------------------------------------------------------------------
------------------------------------------------------------------------------
                   ___                                                        
                  /   \      - P O W E R E D   B Y -                         
                 /     \                                                     
                 |  |  |   _    _      __       _____    __    __             
                 |  |  |  | |  | |    /  \     |  _  \  |  |  /  |          
                  \  \/   | |  | |   /    \    | | | |  |  | /  /          
                 / \  \   | |__| |  /  /\  \   | |_| |  |  |/  /          
                |  |  |   |  __  | /  /__\  \  |    /   |      \           
                |  |  |   | |  | | |   __   |  |    \   |  |\   \          
                \     /   | |  | | |  |  |  |  | |\  \  |  | \   \       
                 \___/    |_|  |_| |__|  |__|  |_| \__\ |__|  \__/        
                                                                              
                      - O R C A' S   B I G   F R I E N D -                    
                                      &                                       
                       - I N T E G R A L  F E E D E R -                       
                                                                              
 v1 FN, 2020, v2 2021, v3 2022-2024                                           
------------------------------------------------------------------------------


----------------------
SHARK INTEGRAL PACKAGE
----------------------

Number of atoms                             ...     38
Number of basis functions                   ...    510
Number of shells                            ...    240
Maximum angular momentum                    ...      2
Integral batch strategy                     ... SHARK/LIBINT Hybrid
RI-J (if used) integral strategy            ... SPLIT-RIJ (Revised 2003 algorithm where possible)
Printlevel                                  ...      1
Contraction scheme used                     ... SEGMENTED contraction
Prescreening option                         ... SCHWARTZ
   Thresh                                   ... 1.000e-10
   Tcut                                     ... 1.000e-11
   Tpresel                                  ... 1.000e-11 
Coulomb Range Separation                    ... NOT USED
Exchange Range Separation                   ... NOT USED
Multipole approximations                    ... NOT USED
Finite Nucleus Model                        ... NOT USED
CABS basis                                  ... NOT available
Auxiliary Coulomb fitting basis             ... AVAILABLE
   # of basis functions in Aux-J            ...   1146
   # of shells in Aux-J                     ...    386
   Maximum angular momentum in Aux-J        ...      4
Auxiliary J/K fitting basis                 ... NOT available
Auxiliary Correlation fitting basis         ... NOT available
Auxiliary 'external' fitting basis          ... NOT available

Checking pre-screening integrals            ... done (  0.0 sec) Dimension = 240
Check shell pair data                       ... done (  0.0 sec)
Shell pair information
Shell pair cut-off parameter TPreSel        ...   1.0e-11
Total number of shell pairs                 ...     28920
Shell pairs after pre-screening             ...     18852
Total number of primitive shell pairs       ...    108409
Primitive shell pairs kept                  ...     43497
          la=0 lb=0:   5341 shell pairs
          la=1 lb=0:   6852 shell pairs
          la=1 lb=1:   2207 shell pairs
          la=2 lb=0:   2536 shell pairs
          la=2 lb=1:   1604 shell pairs
          la=2 lb=2:    312 shell pairs

Calculating one electron integrals          ... done (  0.1 sec)
Calculating RI/J V-Matrix + Cholesky decomp.... done (  0.1 sec)
Calculating Nuclear repulsion               ... done (  0.0 sec) ENN=   2103.472986260444 Eh

Diagonalization of the overlap matrix:
Smallest eigenvalue                        ... 4.879e-05
Time for diagonalization                   ...    0.033 sec
Threshold for overlap eigenvalues          ... 1.000e-07
Number of eigenvalues below threshold      ... 0
Time for construction of square roots      ...    0.018 sec
Total time needed                          ...    0.052 sec

-------------------
DFT GRID GENERATION
-------------------

General Integration Accuracy     IntAcc      ... 4.388
Radial Grid Type                 RadialGrid  ... OptM3 with GC (2021)
Angular Grid (max. ang.)         AngularGrid ... 4 (Lebedev-302)
Angular grid pruning method      GridPruning ... 4 (adaptive)
Weight generation scheme         WeightScheme... mBecke (2022)
Basis function cutoff            BFCut       ... 1.0000e-10
Integration weight cutoff        WCut        ... 1.0000e-14
Partially contracted basis set               ... off
Rotationally invariant grid construction     ... off
Angular grids for H and He will be reduced by one unit
Diffuse basis detected: some atoms will have their outermost
                        angular grid increased by 1.

Total number of grid points                  ...   180584
Total number of batches                      ...     2841
Average number of points per batch           ...       63
Average number of grid points per atom       ...     4752
Initializing property integral containers    ... done (  0.0 sec)

SHARK setup successfully completed in   2.7 seconds

Maximum memory used throughout the entire STARTUP-calculation: 96.1 MB
-------------------------------------------------------------------------------
                                 ORCA GUESS
                   Start orbitals & Density for SCF / CASSCF
-------------------------------------------------------------------------------

------------
SCF SETTINGS
------------
Hamiltonian:
 Density Functional     Method          .... DFT(GTOs)
  Functional kind                       .... Exchange
  Functional name                       .... Re-regularized SCAN exchange by Furness et al
  Functional family                     .... MGGA
  Functional refs                              
    [ 0] J. W. Furness, A. D. Kaplan, J. Ning, J. P. Perdew, and J. Sun.,  J. Phys. Chem. Lett. 11, 8208-8215 (2020), doi: 10.1021/acs.jpclett.0c02405
    [ 1] J. W. Furness, A. D. Kaplan, J. Ning, J. P. Perdew, and J. Sun.,  J. Phys. Chem. Lett. 11, 9248-9248 (2020), doi: 10.1021/acs.jpclett.0c03077
  Functional external parameters        .... 6
    Parameter  0 _c1        =  6.670000e-01 : c1 parameter        
    Parameter  1 _c2        =  8.000000e-01 : c2 parameter        
    Parameter  2 _d         =  1.240000e+00 : d parameter         
    Parameter  3 _k1        =  6.500000e-02 : k1 parameter        
    Parameter  4 _eta       =  1.000000e-03 : eta parameter       
    Parameter  5 _dp2       =  3.610000e-01 : dp2 parameter       
  Functional kind                       .... Correlation
  Functional name                       .... Re-regularized SCAN correlation by Furness et al
  Functional family                     .... MGGA
  Functional refs                              
    [ 0] J. W. Furness, A. D. Kaplan, J. Ning, J. P. Perdew, and J. Sun.,  J. Phys. Chem. Lett. 11, 8208-8215 (2020), doi: 10.1021/acs.jpclett.0c02405
    [ 1] J. W. Furness, A. D. Kaplan, J. Ning, J. P. Perdew, and J. Sun.,  J. Phys. Chem. Lett. 11, 9248-9248 (2020), doi: 10.1021/acs.jpclett.0c03077
  Functional external parameters        .... 1
    Parameter  0 _eta       =  1.000000e-03 : Regularization parameter
 Gradients option       PostSCFGGA      .... off
 RI-approximation to the Coulomb term is turned on
   Number of AuxJ basis functions       .... 1146


General Settings:
 Integral files         IntName         .... sp_solv
 Hartree-Fock type      HFTyp           .... RHF
 Total Charge           Charge          ....    0
 Multiplicity           Mult            ....    1
 Number of Electrons    NEL             ....  174
 Basis Dimension        Dim             ....  510
 Nuclear Repulsion      ENuc            ....   2103.4729862604 Eh

Convergence Acceleration:
 AO-DIIS                CNVDIIS         .... on
   Start iteration      DIISMaxIt       ....    12
   Startup error        DIISStart       ....  0.200000
   # of expansion vecs  DIISMaxEq       ....     5
   Bias factor          DIISBfac        ....   1.050
   Max. coefficient     DIISMaxC        ....  10.000
 MO-DIIS                CNVKDIIS        .... off
 Trust-Rad. Augm. Hess. CNVTRAH         .... auto
   Auto Start mean grad. ratio tolernc. ....  1.125000
   Auto Start start iteration           ....     1
   Auto Start num. interpolation iter.  ....    10
   Max. Number of Micro iterations      ....    24
   Max. Number of Macro iterations      .... Maxiter - #DIIS iter
   Number of Davidson start vectors     ....     2
   Converg. threshold    (grad. norm)   ....   3.330e-04
   Grad. Scal. Fac. for Micro threshold ....   0.100
   Minimum threshold for Micro iter.    ....   1.000e-02
   NR start threshold (gradient norm)   ....   1.000e-04
   Initial trust radius                 ....   0.400
   Minimum AH scaling param. (alpha)    ....   1.000
   Maximum AH scaling param. (alpha)    .... 1000.000
   Quad. conv. algorithm                .... NR
   White noise on init. David. guess    .... on
   Maximum white noise                  ....   0.010
   Pseudo random numbers                .... off
   Inactive MOs                         .... canonical
   Orbital update algorithm             .... Taylor
   Preconditioner                       .... Diag
   Full preconditioner red. dimension   ....   250
   COSX micro iterations for RIJONX calc.... off
 SOSCF                  CNVSOSCF        .... on
   Start iteration      SOSCFMaxIt      ....   150
   Startup grad/error   SOSCFStart      ....  0.003300
   Hessian update       SOSCFHessUp     .... L-BFGS
 Level Shifting         CNVShift        .... on
   Level shift para.    LevelShift      ....    0.2500
   Turn off err/grad.   ShiftErr        ....    0.0010
 Zerner damping         CNVZerner       .... off
 Static damping         CNVDamp         .... on
   Fraction old density DampFac         ....    0.7000
   Max. Damping (<1)    DampMax         ....    0.9800
   Min. Damping (>=0)   DampMin         ....    0.0000
   Turn off err/grad.   DampErr         ....    0.1000

SCF Procedure:
 Maximum # iterations   MaxIter         ....   125
 SCF integral mode      SCFMode         .... Direct
   Integral package                     .... SHARK and LIBINT hybrid scheme
 Reset frequency        DirectResetFreq ....    20
 Integral Threshold     Thresh          ....  1.000e-10 Eh
 Primitive CutOff       TCut            ....  1.000e-11 Eh

Convergence Tolerance:
 Convergence Check Mode ConvCheckMode   .... Total+1el-Energy
 Convergence forced     ConvForced      .... 0
 Energy Change          TolE            ....  1.000e-06 Eh
 1-El. energy change                    ....  1.000e-03 Eh
 Orbital Gradient       TolG            ....  3.330e-04
 Orbital Rotation angle TolX            ....  3.330e-04
 DIIS Error             TolErr          ....  1.000e-06

---------------------
INITIAL GUESS: MOREAD
---------------------
Guess MOs are being read from file: sp_solv.ges
Input Geometry matches current geometry (good)
Atom 0: N(Shells)= 9 and 6 - projection required
Input basis set needs projection
NBasis(read)= 316
NBasis(calc)= 510
Basis set overlap was calculated
Using GuessMode=FMatrix for the initial guess
C*T matrix was formed
Effective Fockian was calculated
Effective Fockian was diagonalized
Initial density was built
                      ------------------
                      INITIAL GUESS DONE (   0.1 sec)
                      ------------------
             **** ENERGY FILE WAS UPDATED (sp_solv.en.tmp) ****
Finished Guess after   0.2 sec
Maximum memory used throughout the entire GUESS-calculation: 55.2 MB

-------------------------------------------------------------------------------------------
                                      ORCA LEAN-SCF
                              memory conserving SCF solver
-------------------------------------------------------------------------------------------

--------------------
CPCM SOLVATION MODEL
--------------------
CPCM parameters:
  Epsilon                                         ...      78.3550
  Refrac                                          ...       1.3328
  Rsolv                                           ...       1.3000
  Surface type                                    ... GAUSSIAN VDW
  Discretization scheme                           ... Constant charge density
    Threshold for H atoms                         ...       5.0000 (charges/Ang^2)
    Threshold for non-H atoms                     ...       5.0000 (charges/Ang^2)
  Epsilon function type                           ...         CPCM
Solvent:                                          ... WATER
SMD-CDS solvent descriptors:
  Soln                                            ...       1.3328
  Soln25                                          ...       1.3323
  Sola                                            ...       0.0000
  Solb                                            ...       0.0000
  Solg                                            ...       0.0000
  Solc                                            ...       0.0000
  Solh                                            ...       0.0000
Radii:
  Scheme                                          ... Element-dependent radii
  Radius for C  used is    3.4960 Bohr (=   1.8500 Ang.)
  Radius for O  used is    2.8724 Bohr (=   1.5200 Ang.)
  Radius for H  used is    2.2677 Bohr (=   1.2000 Ang.)
  Radius for S  used is    4.7054 Bohr (=   2.4900 Ang.)
  Radius for P  used is    4.0062 Bohr (=   2.1200 Ang.)
Calculating surface                               ...        done! (  0.0s)
Cavity surface points                             ...         2962
Cavity Volume                                     ...    2236.5514
Cavity Surface-area                               ...    1239.5520
Calculating surface distance matrix               ...        done! (  0.0s)
Performing Cholesky decomposition & store         ...        done! (  0.3s)
Overall time for CPCM initialization              ...                 0.4s

----------------------------------------D-I-I-S--------------------------------------------
Iteration    Energy (Eh)           Delta-E    RMSDP     MaxDP     DIISErr   Damp  Time(sec)
-------------------------------------------------------------------------------------------
               ***  Starting incremental Fock matrix formation  ***
    1    -1981.0006726484525643     0.00e+00  4.23e-03  5.69e-01  6.33e-01  0.700  10.7
    2    -1981.1495470606432718    -1.49e-01  3.27e-03  4.07e-01  4.45e-01  0.700   9.2
    3    -1981.2547418305771316    -1.05e-01  2.35e-03  2.83e-01  3.12e-01  0.700   9.2
    4    -1981.3286208621557307    -7.39e-02  1.66e-03  1.97e-01  2.19e-01  0.700   9.5
                               ***Turning on AO-DIIS***
    5    -1981.3804659984070895    -5.18e-02  1.19e-03  1.36e-01  1.53e-01  0.700   8.8
    6    -1981.4167979573280718    -3.63e-02  8.40e-04  9.55e-02  1.07e-01  0.700   8.6
    7    -1981.4422932773181856    -2.55e-02  5.92e-04  6.69e-02  7.48e-02  0.700   8.5
    8    -1981.4601580753196686    -1.79e-02  1.38e-03  1.56e-01  5.25e-02  0.000   8.4
                              *** Initializing SOSCF ***
---------------------------------------S-O-S-C-F--------------------------------------
Iteration    Energy (Eh)           Delta-E    RMSDP     MaxDP     MaxGrad    Time(sec)
--------------------------------------------------------------------------------------
    9    -1981.5019097755675830    -4.18e-02  1.02e-05  8.25e-04  2.27e-04     8.8
               *** Restarting incremental Fock matrix formation ***
   10    -1981.5019101505949948    -3.75e-07  8.10e-06  4.83e-04  4.53e-05    10.6
                  *** Gradient check signals convergence ***

               *****************************************************
               *                     SUCCESS                       *
               *           SCF CONVERGED AFTER  10 CYCLES          *
               *****************************************************


SMD CDS free energy correction energy :                10.23111     Kcal/mol
Total Energy after SMD CDS correction =             -1981.485605842 Eh
             **** ENERGY FILE WAS UPDATED (sp_solv.en.tmp) ****

----------------
TOTAL SCF ENERGY
----------------

Total Energy       :      -1981.48560584154188 Eh          -53918.96452 eV

Components:
Nuclear Repulsion  :       2103.47298626044358 Eh           57238.40990 eV
Electronic Energy  :      -4084.93477271012898 Eh         -111156.72626 eV
One Electron Energy:      -6914.39672147138663 Eh         -188150.30017 eV
Two Electron Energy:       2829.46194876125764 Eh           76993.57390 eV
CPCM Dielectric    :         -0.04012370090944 Eh              -1.09182 eV
SMD CDS (Gcds)     :          0.01630430905305 Eh               0.44366 eV

Virial components:
Potential Energy   :      -3956.63739167267431 Eh         -107665.57704 eV
Kinetic Energy     :       1975.15178583113266 Eh           53746.61252 eV
Virial Ratio       :          2.00320675102331

DFT components:
N(Alpha)           :       87.000033332019 electrons
N(Beta)            :       87.000033332019 electrons
N(Total)           :      174.000066664039 electrons
E(X)               :     -181.425502289262 Eh       
E(C)               :       -5.970078117122 Eh       
E(XC)              :     -187.395580406383 Eh       

CPCM Solvation Model Properties:
Surface-charge          :         -0.05134750039363
Corrected charge        :          0.00000000000000
Outlying charge corr.   :          0.00013923210636 Eh               0.00379 eV
Free-energy (cav+disp)  :          0.01630430905305 Eh               0.44366 eV

---------------
SCF CONVERGENCE
---------------

  Last Energy change         ...    3.7503e-07  Tolerance :   1.0000e-06
  Last MAX-Density change    ...    4.8289e-04  Tolerance :   1.0000e-05
  Last RMS-Density change    ...    8.0970e-06  Tolerance :   1.0000e-06
  Last DIIS Error            ...    2.2698e-04  Tolerance :   1.0000e-06
  Last Orbital Gradient      ...    4.5291e-05  Tolerance :   3.3300e-04
  Last Orbital Rotation      ...    2.2736e-04  Tolerance :   3.3300e-04


----------------
ORBITAL ENERGIES
----------------

  NO   OCC          E(Eh)            E(eV) 
   0   2.0000     -88.577902     -2410.3272 
   1   2.0000     -88.525058     -2408.8893 
   2   2.0000     -76.919213     -2093.0782 
   3   2.0000     -19.015733      -517.4444 
   4   2.0000     -19.008435      -517.2458 
   5   2.0000     -18.995042      -516.8814 
   6   2.0000     -18.988558      -516.7049 
   7   2.0000     -18.951400      -515.6938 
   8   2.0000     -18.950443      -515.6678 
   9   2.0000     -10.175203      -276.8813 
  10   2.0000     -10.172128      -276.7977 
  11   2.0000     -10.096688      -274.7449 
  12   2.0000     -10.089835      -274.5584 
  13   2.0000     -10.086199      -274.4594 
  14   2.0000     -10.084523      -274.4138 
  15   2.0000     -10.078432      -274.2481 
  16   2.0000     -10.060444      -273.7586 
  17   2.0000     -10.020662      -272.6761 
  18   2.0000     -10.019315      -272.6394 
  19   2.0000      -7.872175      -214.2128 
  20   2.0000      -7.820353      -212.8026 
  21   2.0000      -6.597187      -179.5186 
  22   2.0000      -5.819015      -158.3434 
  23   2.0000      -5.816210      -158.2671 
  24   2.0000      -5.809160      -158.0753 
  25   2.0000      -5.768136      -156.9590 
  26   2.0000      -5.760776      -156.7587 
  27   2.0000      -5.759966      -156.7367 
  28   2.0000      -4.742863      -129.0599 
  29   2.0000      -4.742286      -129.0442 
  30   2.0000      -4.740761      -129.0027 
  31   2.0000      -1.095616       -29.8132 
  32   2.0000      -1.086784       -29.5729 
  33   2.0000      -1.050929       -28.5972 
  34   2.0000      -1.007235       -27.4083 
  35   2.0000      -1.000862       -27.2348 
  36   2.0000      -0.997707       -27.1490 
  37   2.0000      -0.812723       -22.1153 
  38   2.0000      -0.751029       -20.4365 
  39   2.0000      -0.748194       -20.3594 
  40   2.0000      -0.729113       -19.8402 
  41   2.0000      -0.696295       -18.9471 
  42   2.0000      -0.666814       -18.1449 
  43   2.0000      -0.659664       -17.9504 
  44   2.0000      -0.653823       -17.7914 
  45   2.0000      -0.622235       -16.9319 
  46   2.0000      -0.590978       -16.0813 
  47   2.0000      -0.542518       -14.7627 
  48   2.0000      -0.532706       -14.4957 
  49   2.0000      -0.524090       -14.2612 
  50   2.0000      -0.502265       -13.6673 
  51   2.0000      -0.489727       -13.3261 
  52   2.0000      -0.486742       -13.2449 
  53   2.0000      -0.475012       -12.9257 
  54   2.0000      -0.466355       -12.6902 
  55   2.0000      -0.460888       -12.5414 
  56   2.0000      -0.450581       -12.2609 
  57   2.0000      -0.445824       -12.1315 
  58   2.0000      -0.443047       -12.0559 
  59   2.0000      -0.426565       -11.6074 
  60   2.0000      -0.419131       -11.4051 
  61   2.0000      -0.409812       -11.1516 
  62   2.0000      -0.405806       -11.0425 
  63   2.0000      -0.401067       -10.9136 
  64   2.0000      -0.396277       -10.7832 
  65   2.0000      -0.378263       -10.2931 
  66   2.0000      -0.370468       -10.0810 
  67   2.0000      -0.367788       -10.0080 
  68   2.0000      -0.359337        -9.7781 
  69   2.0000      -0.356821        -9.7096 
  70   2.0000      -0.347426        -9.4539 
  71   2.0000      -0.341448        -9.2913 
  72   2.0000      -0.332372        -9.0443 
  73   2.0000      -0.329320        -8.9612 
  74   2.0000      -0.324797        -8.8382 
  75   2.0000      -0.317250        -8.6328 
  76   2.0000      -0.311925        -8.4879 
  77   2.0000      -0.308264        -8.3883 
  78   2.0000      -0.288466        -7.8496 
  79   2.0000      -0.287487        -7.8229 
  80   2.0000      -0.283933        -7.7262 
  81   2.0000      -0.275977        -7.5097 
  82   2.0000      -0.263493        -7.1700 
  83   2.0000      -0.258880        -7.0445 
  84   2.0000      -0.240101        -6.5335 
  85   2.0000      -0.227789        -6.1984 
  86   2.0000      -0.220366        -5.9965 
  87   0.0000      -0.050885        -1.3846 
  88   0.0000      -0.037455        -1.0192 
  89   0.0000      -0.022945        -0.6244 
  90   0.0000       0.001987         0.0541 
  91   0.0000       0.016741         0.4555 
  92   0.0000       0.034751         0.9456 
  93   0.0000       0.052689         1.4337 
  94   0.0000       0.073722         2.0061 
  95   0.0000       0.085956         2.3390 
  96   0.0000       0.090285         2.4568 
  97   0.0000       0.095886         2.6092 
*Only the first 10 virtual orbitals were printed.

                    ********************************
                    * MULLIKEN POPULATION ANALYSIS *
                    ********************************

-----------------------
MULLIKEN ATOMIC CHARGES
-----------------------
   0 C :   -0.496083
   1 C :   -0.140897
   2 O :   -0.183726
   3 C :    0.417186
   4 O :   -0.491859
   5 C :   -0.435586
   6 C :   -0.006076
   7 H :    0.257294
   8 C :    0.354424
   9 O :   -0.457045
  10 O :   -0.150347
  11 C :   -0.149586
  12 C :   -0.493377
  13 S :   -0.217565
  14 P :    0.810266
  15 S :   -0.516154
  16 O :   -0.387195
  17 C :   -0.308418
  18 O :   -0.353740
  19 C :   -0.301177
  20 H :    0.170282
  21 H :    0.166847
  22 H :    0.171640
  23 H :    0.176922
  24 H :    0.174131
  25 H :    0.234377
  26 H :    0.221774
  27 H :    0.178091
  28 H :    0.177888
  29 H :    0.167208
  30 H :    0.172533
  31 H :    0.167176
  32 H :    0.176173
  33 H :    0.177454
  34 H :    0.171683
  35 H :    0.178380
  36 H :    0.184898
  37 H :    0.182205
Sum of atomic charges:    0.0000000

--------------------------------
MULLIKEN REDUCED ORBITAL CHARGES
--------------------------------
  0 C s       :     3.337039  s :     3.337039
      pz      :     1.011371  p :     3.133537
      px      :     1.018980
      py      :     1.103187
      dz2     :     0.003041  d :     0.025506
      dxz     :     0.007229
      dyz     :     0.006552
      dx2y2   :     0.004063
      dxy     :     0.004622

  1 C s       :     3.265974  s :     3.265974
      pz      :     0.960606  p :     2.822263
      px      :     1.047298
      py      :     0.814359
      dz2     :     0.007035  d :     0.052659
      dxz     :     0.010767
      dyz     :     0.015457
      dx2y2   :     0.009638
      dxy     :     0.009762

  2 O s       :     3.703345  s :     3.703345
      pz      :     1.651795  p :     4.445155
      px      :     1.491502
      py      :     1.301859
      dz2     :     0.004324  d :     0.035226
      dxz     :     0.012464
      dyz     :     0.012271
      dx2y2   :     0.004576
      dxy     :     0.001592

  3 C s       :     3.124699  s :     3.124699
      pz      :     0.762055  p :     2.331621
      px      :     0.732943
      py      :     0.836623
      dz2     :     0.027168  d :     0.126494
      dxz     :     0.023250
      dyz     :     0.031235
      dx2y2   :     0.023644
      dxy     :     0.021196

  4 O s       :     3.837111  s :     3.837111
      pz      :     1.384233  p :     4.628357
      px      :     1.539599
      py      :     1.704525
      dz2     :     0.008367  d :     0.026391
      dxz     :     0.007344
      dyz     :     0.002804
      dx2y2   :     0.004485
      dxy     :     0.003391

  5 C s       :     3.316962  s :     3.316962
      pz      :     1.053082  p :     3.084530
      px      :     0.985484
      py      :     1.045964
      dz2     :     0.007068  d :     0.034094
      dxz     :     0.004259
      dyz     :     0.008276
      dx2y2   :     0.006480
      dxy     :     0.008010

  6 C s       :     3.048557  s :     3.048557
      pz      :     1.102705  p :     2.913752
      px      :     0.883499
      py      :     0.927548
      dz2     :     0.009325  d :     0.043767
      dxz     :     0.006277
      dyz     :     0.007677
      dx2y2   :     0.010611
      dxy     :     0.009877

  7 H s       :     0.723920  s :     0.723920
      pz      :     0.012017  p :     0.018786
      px      :     0.003577
      py      :     0.003192

  8 C s       :     3.155390  s :     3.155390
      pz      :     0.744454  p :     2.362954
      px      :     0.749511
      py      :     0.868989
      dz2     :     0.015358  d :     0.127231
      dxz     :     0.023614
      dyz     :     0.015500
      dx2y2   :     0.034776
      dxy     :     0.037984

  9 O s       :     3.837993  s :     3.837993
      pz      :     1.466191  p :     4.588351
      px      :     1.366201
      py      :     1.755959
      dz2     :     0.006370  d :     0.030701
      dxz     :     0.011789
      dyz     :     0.002054
      dx2y2   :     0.005145
      dxy     :     0.005343

 10 O s       :     3.701520  s :     3.701520
      pz      :     1.693535  p :     4.405488
      px      :     1.511134
      py      :     1.200818
      dz2     :     0.007304  d :     0.043339
      dxz     :     0.006338
      dyz     :     0.006859
      dx2y2   :     0.007382
      dxy     :     0.015456

 11 C s       :     3.294352  s :     3.294352
      pz      :     1.061572  p :     2.802685
      px      :     1.034323
      py      :     0.706789
      dz2     :     0.011469  d :     0.052549
      dxz     :     0.005864
      dyz     :     0.009811
      dx2y2   :     0.014357
      dxy     :     0.011048

 12 C s       :     3.344264  s :     3.344264
      pz      :     1.092806  p :     3.123548
      px      :     0.964050
      py      :     1.066692
      dz2     :     0.007020  d :     0.025564
      dxz     :     0.004434
      dyz     :     0.002620
      dx2y2   :     0.005808
      dxy     :     0.005682

 13 S s       :     5.940337  s :     5.940337
      pz      :     3.712265  p :    10.177273
      px      :     3.008775
      py      :     3.456233
      dz2     :     0.012128  d :     0.099955
      dxz     :     0.018557
      dyz     :     0.016382
      dx2y2   :     0.017925
      dxy     :     0.034964

 14 P s       :     5.088430  s :     5.088430
      pz      :     2.765376  p :     8.395457
      px      :     2.848745
      py      :     2.781335
      dz2     :     0.160224  d :     0.705847
      dxz     :     0.158031
      dyz     :     0.115199
      dx2y2   :     0.123719
      dxy     :     0.148675

 15 S s       :     5.892786  s :     5.892786
      pz      :     3.363972  p :    10.559959
      px      :     3.706703
      py      :     3.489284
      dz2     :     0.014037  d :     0.063409
      dxz     :     0.009006
      dyz     :     0.024781
      dx2y2   :     0.009060
      dxy     :     0.006524

 16 O s       :     3.763855  s :     3.763855
      pz      :     1.504716  p :     4.588157
      px      :     1.662899
      py      :     1.420542
      dz2     :     0.007646  d :     0.035183
      dxz     :     0.003827
      dyz     :     0.001888
      dx2y2   :     0.002971
      dxy     :     0.018852

 17 C s       :     3.343355  s :     3.343355
      pz      :     0.834186  p :     2.920929
      px      :     1.128106
      py      :     0.958637
      dz2     :     0.012798  d :     0.044134
      dxz     :     0.004614
      dyz     :     0.013014
      dx2y2   :     0.003430
      dxy     :     0.010279

 18 O s       :     3.743309  s :     3.743309
      pz      :     1.239410  p :     4.583295
      px      :     1.673696
      py      :     1.670189
      dz2     :    -0.000906  d :     0.027136
      dxz     :     0.007968
      dyz     :     0.005748
      dx2y2   :     0.005869
      dxy     :     0.008458

 19 C s       :     3.345839  s :     3.345839
      pz      :     0.798399  p :     2.912593
      px      :     1.091963
      py      :     1.022232
      dz2     :     0.009240  d :     0.042744
      dxz     :     0.008642
      dyz     :     0.012447
      dx2y2   :     0.002924
      dxy     :     0.009492

 20 H s       :     0.811456  s :     0.811456
      pz      :     0.006897  p :     0.018262
      px      :     0.004803
      py      :     0.006562

 21 H s       :     0.814867  s :     0.814867
      pz      :     0.004611  p :     0.018286
      px      :     0.008570
      py      :     0.005105

 22 H s       :     0.809839  s :     0.809839
      pz      :     0.005463  p :     0.018520
      px      :     0.004269
      py      :     0.008788

 23 H s       :     0.805531  s :     0.805531
      pz      :     0.006532  p :     0.017547
      px      :     0.004713
      py      :     0.006302

 24 H s       :     0.808006  s :     0.808006
      pz      :     0.004590  p :     0.017864
      px      :     0.009254
      py      :     0.004020

 25 H s       :     0.747205  s :     0.747205
      pz      :     0.003747  p :     0.018418
      px      :     0.007342
      py      :     0.007329

 26 H s       :     0.760122  s :     0.760122
      pz      :     0.010891  p :     0.018104
      px      :     0.003277
      py      :     0.003937

 27 H s       :     0.804307  s :     0.804307
      pz      :     0.004634  p :     0.017603
      px      :     0.008975
      py      :     0.003994

 28 H s       :     0.804531  s :     0.804531
      pz      :     0.011807  p :     0.017581
      px      :     0.003653
      py      :     0.002120

 29 H s       :     0.814483  s :     0.814483
      pz      :     0.011072  p :     0.018309
      px      :     0.003673
      py      :     0.003564

 30 H s       :     0.808968  s :     0.808968
      pz      :     0.004439  p :     0.018500
      px      :     0.003475
      py      :     0.010586

 31 H s       :     0.814504  s :     0.814504
      pz      :     0.005037  p :     0.018320
      px      :     0.008265
      py      :     0.005019

 32 H s       :     0.805671  s :     0.805671
      pz      :     0.008791  p :     0.018157
      px      :     0.003759
      py      :     0.005606

 33 H s       :     0.804661  s :     0.804661
      pz      :     0.002816  p :     0.017885
      px      :     0.009112
      py      :     0.005957

 34 H s       :     0.810290  s :     0.810290
      pz      :     0.002715  p :     0.018027
      px      :     0.009177
      py      :     0.006134

 35 H s       :     0.803448  s :     0.803448
      pz      :     0.004317  p :     0.018173
      px      :     0.009149
      py      :     0.004707

 36 H s       :     0.797253  s :     0.797253
      pz      :     0.002776  p :     0.017849
      px      :     0.007157
      py      :     0.007916

 37 H s       :     0.799931  s :     0.799931
      pz      :     0.006285  p :     0.017864
      px      :     0.005018
      py      :     0.006561


------------------------
MULLIKEN OVERLAP CHARGES
------------------------
B(  0-C ,  1-C ) :   0.5388 B(  0-C ,  2-O ) :  -0.1057 B(  0-C , 20-H ) :   0.8407 
B(  0-C , 21-H ) :   0.8313 B(  0-C , 22-H ) :   0.8027 B(  0-C , 24-H ) :  -0.0773 
B(  1-C ,  2-O ) :   0.2990 B(  1-C ,  3-C ) :  -0.1922 B(  1-C , 20-H ) :  -0.0834 
B(  1-C , 21-H ) :  -0.0690 B(  1-C , 22-H ) :  -0.0662 B(  1-C , 23-H ) :   0.8051 
B(  1-C , 24-H ) :   0.8549 B(  2-O ,  3-C ) :   0.5355 B(  2-O ,  4-O ) :  -0.2045 
B(  2-O ,  5-C ) :  -0.1617 B(  2-O , 23-H ) :  -0.0874 B(  2-O , 24-H ) :  -0.0631 
B(  3-C ,  4-O ) :   1.0108 B(  3-C ,  5-C ) :   0.3530 B(  3-C ,  6-C ) :  -0.0547 
B(  3-C , 26-H ) :  -0.0616 B(  4-O ,  5-C ) :  -0.3076 B(  4-O ,  6-C ) :   0.1505 
B(  5-C ,  6-C ) :   0.0813 B(  5-C ,  8-C ) :  -0.0512 B(  5-C , 10-O ) :   0.0782 
B(  5-C , 25-H ) :   0.7498 B(  5-C , 26-H ) :   0.8377 B(  6-C ,  7-H ) :   0.8444 
B(  6-C ,  8-C ) :   0.0830 B(  6-C ,  9-O ) :  -0.2453 B(  6-C , 10-O ) :  -0.2071 
B(  6-C , 13-S ) :   0.3879 B(  6-C , 14-P ) :  -0.0676 B(  6-C , 25-H ) :  -0.0621 
B(  6-C , 26-H ) :  -0.0506 B(  7-H ,  8-C ) :  -0.0751 B(  7-H , 13-S ) :  -0.0685 
B(  8-C ,  9-O ) :   0.9387 B(  8-C , 10-O ) :   0.6428 B(  8-C , 11-C ) :  -0.2115 
B(  8-C , 13-S ) :  -0.1320 B(  9-O , 10-O ) :  -0.2063 B(  9-O , 14-P ) :   0.0843 
B(  9-O , 15-S ) :  -0.0589 B( 10-O , 11-C ) :   0.2549 B( 10-O , 12-C ) :  -0.1001 
B( 10-O , 27-H ) :  -0.0633 B( 10-O , 28-H ) :  -0.0631 B( 11-C , 12-C ) :   0.4586 
B( 11-C , 27-H ) :   0.8126 B( 11-C , 28-H ) :   0.7955 B( 11-C , 29-H ) :  -0.0701 
B( 11-C , 30-H ) :  -0.0675 B( 11-C , 31-H ) :  -0.0631 B( 12-C , 29-H ) :   0.8337 
B( 12-C , 30-H ) :   0.8119 B( 12-C , 31-H ) :   0.8283 B( 13-S , 14-P ) :   0.6232 
B( 13-S , 15-S ) :  -0.1121 B( 13-S , 16-O ) :  -0.1085 B( 13-S , 18-O ) :  -0.0691 
B( 14-P , 15-S ) :   1.2766 B( 14-P , 16-O ) :   0.4192 B( 14-P , 17-C ) :  -0.1763 
B( 14-P , 18-O ) :   0.7389 B( 14-P , 19-C ) :  -0.1944 B( 15-S , 16-O ) :  -0.0994 
B( 15-S , 18-O ) :  -0.0981 B( 16-O , 17-C ) :   0.3624 B( 16-O , 18-O ) :  -0.2422 
B( 16-O , 32-H ) :  -0.0828 B( 16-O , 33-H ) :  -0.0871 B( 16-O , 34-H ) :  -0.0753 
B( 17-C , 32-H ) :   0.8281 B( 17-C , 33-H ) :   0.7997 B( 17-C , 34-H ) :   0.7989 
B( 18-O , 19-C ) :   0.3240 B( 18-O , 35-H ) :  -0.0795 B( 18-O , 36-H ) :  -0.0740 
B( 18-O , 37-H ) :  -0.0750 B( 19-C , 35-H ) :   0.8074 B( 19-C , 36-H ) :   0.8171 
B( 19-C , 37-H ) :   0.7863 B( 27-H , 28-H ) :  -0.0640 B( 32-H , 34-H ) :  -0.0619 
B( 35-H , 36-H ) :  -0.0584 


                     *******************************
                     * LOEWDIN POPULATION ANALYSIS *
                     *******************************

----------------------
LOEWDIN ATOMIC CHARGES
----------------------
   0 C :   -0.391566
   1 C :    0.036252
   2 O :   -0.582390
   3 C :    0.367192
   4 O :   -0.486703
   5 C :   -0.194290
   6 C :   -0.193995
   7 H :    0.224413
   8 C :    0.354964
   9 O :   -0.489777
  10 O :   -0.574242
  11 C :    0.045497
  12 C :   -0.387012
  13 S :    0.215615
  14 P :    0.403452
  15 S :   -0.129970
  16 O :   -0.706453
  17 C :   -0.061224
  18 O :   -0.670843
  19 C :   -0.042820
  20 H :    0.162911
  21 H :    0.162545
  22 H :    0.168573
  23 H :    0.190613
  24 H :    0.190716
  25 H :    0.219560
  26 H :    0.204516
  27 H :    0.188670
  28 H :    0.188106
  29 H :    0.164115
  30 H :    0.170201
  31 H :    0.163765
  32 H :    0.176202
  33 H :    0.187374
  34 H :    0.174374
  35 H :    0.179162
  36 H :    0.180932
  37 H :    0.191565

-------------------------------
LOEWDIN REDUCED ORBITAL CHARGES
-------------------------------
  0 C s       :     2.973791  s :     2.973791
      pz      :     1.095020  p :     3.357905
      px      :     1.108834
      py      :     1.154050
      dz2     :     0.005987  d :     0.059870
      dxz     :     0.016771
      dyz     :     0.016311
      dx2y2   :     0.009312
      dxy     :     0.011488

  1 C s       :     2.871930  s :     2.871930
      pz      :     1.010857  p :     2.973786
      px      :     1.069203
      py      :     0.893727
      dz2     :     0.012974  d :     0.118032
      dxz     :     0.026462
      dyz     :     0.036303
      dx2y2   :     0.020512
      dxy     :     0.021779

  2 O s       :     3.459470  s :     3.459470
      pz      :     1.649505  p :     4.651134
      px      :     1.552627
      py      :     1.449002
      dz2     :     0.074470  d :     0.471786
      dxz     :     0.080322
      dyz     :     0.096713
      dx2y2   :     0.098931
      dxy     :     0.121350

  3 C s       :     2.731562  s :     2.731562
      pz      :     0.918568  p :     2.625376
      px      :     0.829545
      py      :     0.877263
      dz2     :     0.055192  d :     0.275870
      dxz     :     0.058374
      dyz     :     0.066804
      dx2y2   :     0.048834
      dxy     :     0.046667

  4 O s       :     3.540550  s :     3.540550
      pz      :     1.497491  p :     4.712418
      px      :     1.550148
      py      :     1.664779
      dz2     :     0.055965  d :     0.233735
      dxz     :     0.062591
      dyz     :     0.051888
      dx2y2   :     0.032401
      dxy     :     0.030890

  5 C s       :     2.914631  s :     2.914631
      pz      :     1.102246  p :     3.207156
      px      :     1.054578
      py      :     1.050332
      dz2     :     0.016562  d :     0.072503
      dxz     :     0.007860
      dyz     :     0.016771
      dx2y2   :     0.012986
      dxy     :     0.018325

  6 C s       :     2.914644  s :     2.914644
      pz      :     1.126131  p :     3.189097
      px      :     1.049359
      py      :     1.013606
      dz2     :     0.020673  d :     0.090254
      dxz     :     0.011646
      dyz     :     0.014877
      dx2y2   :     0.021059
      dxy     :     0.021999

  7 H s       :     0.726709  s :     0.726709
      pz      :     0.032553  p :     0.048878
      px      :     0.008331
      py      :     0.007995

  8 C s       :     2.728020  s :     2.728020
      pz      :     0.782259  p :     2.638223
      px      :     0.923454
      py      :     0.932510
      dz2     :     0.030996  d :     0.278793
      dxz     :     0.052389
      dyz     :     0.031875
      dx2y2   :     0.078996
      dxy     :     0.084537

  9 O s       :     3.535899  s :     3.535899
      pz      :     1.479059  p :     4.662852
      px      :     1.479156
      py      :     1.704638
      dz2     :     0.044592  d :     0.291026
      dxz     :     0.068653
      dyz     :     0.031249
      dx2y2   :     0.077157
      dxy     :     0.069374

 10 O s       :     3.449163  s :     3.449163
      pz      :     1.672362  p :     4.637429
      px      :     1.581079
      py      :     1.383988
      dz2     :     0.075733  d :     0.487651
      dxz     :     0.046260
      dyz     :     0.089507
      dx2y2   :     0.126137
      dxy     :     0.150014

 11 C s       :     2.871098  s :     2.871098
      pz      :     1.070245  p :     2.966245
      px      :     1.078866
      py      :     0.817134
      dz2     :     0.027673  d :     0.117161
      dxz     :     0.011142
      dyz     :     0.021230
      dx2y2   :     0.030481
      dxy     :     0.026635

 12 C s       :     2.970350  s :     2.970350
      pz      :     1.155197  p :     3.356793
      px      :     1.080013
      py      :     1.121583
      dz2     :     0.017136  d :     0.059869
      dxz     :     0.010054
      dyz     :     0.006002
      dx2y2   :     0.014162
      dxy     :     0.012515

 13 S s       :     5.412186  s :     5.412186
      pz      :     3.646734  p :    10.080487
      px      :     3.019199
      py      :     3.414553
      dz2     :     0.039311  d :     0.291713
      dxz     :     0.054492
      dyz     :     0.040443
      dx2y2   :     0.060374
      dxy     :     0.097093

 14 P s       :     4.655186  s :     4.655186
      pz      :     2.816555  p :     8.376326
      px      :     2.765374
      py      :     2.794398
      dz2     :     0.306205  d :     1.565036
      dxz     :     0.322363
      dyz     :     0.330115
      dx2y2   :     0.238472
      dxy     :     0.367881

 15 S s       :     5.553867  s :     5.553867
      pz      :     3.355749  p :    10.440365
      px      :     3.616128
      py      :     3.468488
      dz2     :     0.026615  d :     0.135737
      dxz     :     0.016727
      dyz     :     0.061127
      dx2y2   :     0.017958
      dxy     :     0.013310

 16 O s       :     3.473422  s :     3.473422
      pz      :     1.544501  p :     4.757274
      px      :     1.667719
      py      :     1.545054
      dz2     :     0.105546  d :     0.475756
      dxz     :     0.074407
      dyz     :     0.116316
      dx2y2   :     0.076443
      dxy     :     0.103045

 17 C s       :     2.916683  s :     2.916683
      pz      :     0.914462  p :     3.039244
      px      :     1.119392
      py      :     1.005390
      dz2     :     0.030609  d :     0.105296
      dxz     :     0.010120
      dyz     :     0.031283
      dx2y2   :     0.006844
      dxy     :     0.026440

 18 O s       :     3.466414  s :     3.466414
      pz      :     1.435648  p :     4.738193
      px      :     1.668332
      py      :     1.634212
      dz2     :     0.127789  d :     0.466236
      dxz     :     0.110390
      dyz     :     0.116471
      dx2y2   :     0.045604
      dxy     :     0.065981

 19 C s       :     2.917100  s :     2.917100
      pz      :     0.881981  p :     3.023922
      px      :     1.102308
      py      :     1.039633
      dz2     :     0.020786  d :     0.101798
      dxz     :     0.020218
      dyz     :     0.030561
      dx2y2   :     0.005977
      dxy     :     0.024256

 20 H s       :     0.792912  s :     0.792912
      pz      :     0.016612  p :     0.044177
      px      :     0.011551
      py      :     0.016014

 21 H s       :     0.793528  s :     0.793528
      pz      :     0.010914  p :     0.043927
      px      :     0.020979
      py      :     0.012034

 22 H s       :     0.786805  s :     0.786805
      pz      :     0.012876  p :     0.044623
      px      :     0.009749
      py      :     0.021998

 23 H s       :     0.768713  s :     0.768713
      pz      :     0.016734  p :     0.040674
      px      :     0.010844
      py      :     0.013095

 24 H s       :     0.766328  s :     0.766328
      pz      :     0.010638  p :     0.042956
      px      :     0.023570
      py      :     0.008749

 25 H s       :     0.733938  s :     0.733938
      pz      :     0.009155  p :     0.046503
      px      :     0.018630
      py      :     0.018717

 26 H s       :     0.749886  s :     0.749886
      pz      :     0.028109  p :     0.045598
      px      :     0.007627
      py      :     0.009862

 27 H s       :     0.769696  s :     0.769696
      pz      :     0.011367  p :     0.041634
      px      :     0.021533
      py      :     0.008734

 28 H s       :     0.770335  s :     0.770335
      pz      :     0.028103  p :     0.041560
      px      :     0.008341
      py      :     0.005115

 29 H s       :     0.792010  s :     0.792010
      pz      :     0.027937  p :     0.043875
      px      :     0.008095
      py      :     0.007843

 30 H s       :     0.785311  s :     0.785311
      pz      :     0.010291  p :     0.044489
      px      :     0.007900
      py      :     0.026298

 31 H s       :     0.792320  s :     0.792320
      pz      :     0.011945  p :     0.043914
      px      :     0.019959
      py      :     0.012010

 32 H s       :     0.781214  s :     0.781214
      pz      :     0.020182  p :     0.042583
      px      :     0.008366
      py      :     0.014035

 33 H s       :     0.771659  s :     0.771659
      pz      :     0.005734  p :     0.040967
      px      :     0.022409
      py      :     0.012825

 34 H s       :     0.783496  s :     0.783496
      pz      :     0.006447  p :     0.042130
      px      :     0.021802
      py      :     0.013881

 35 H s       :     0.778210  s :     0.778210
      pz      :     0.009172  p :     0.042628
      px      :     0.022906
      py      :     0.010550

 36 H s       :     0.776841  s :     0.776841
      pz      :     0.006732  p :     0.042227
      px      :     0.017103
      py      :     0.018392

 37 H s       :     0.767298  s :     0.767298
      pz      :     0.013246  p :     0.041137
      px      :     0.011152
      py      :     0.016739


---------------------------------
LOEWDIN BOND ORDERS (THRESH 0.050000)
---------------------------------
B(  0-C ,  1-C ) :   1.0853 B(  0-C ,  2-O ) :   0.1558 B(  0-C , 20-H ) :   0.9200 
B(  0-C , 21-H ) :   0.9228 B(  0-C , 22-H ) :   0.9144 B(  1-C ,  2-O ) :   1.2956 
B(  1-C ,  3-C ) :   0.0844 B(  1-C ,  4-O ) :   0.0623 B(  1-C , 23-H ) :   0.8282 
B(  1-C , 24-H ) :   0.8170 B(  2-O ,  3-C ) :   1.4873 B(  2-O ,  4-O ) :   0.4530 
B(  2-O ,  5-C ) :   0.1857 B(  2-O , 23-H ) :   0.0969 B(  2-O , 24-H ) :   0.0914 
B(  3-C ,  4-O ) :   2.1362 B(  3-C ,  5-C ) :   0.9043 B(  3-C ,  6-C ) :   0.0734 
B(  4-O ,  5-C ) :   0.1813 B(  4-O ,  6-C ) :   0.0558 B(  5-C ,  6-C ) :   1.0342 
B(  5-C ,  8-C ) :   0.0673 B(  5-C , 10-O ) :   0.0528 B(  5-C , 13-S ) :   0.1133 
B(  5-C , 25-H ) :   0.8241 B(  5-C , 26-H ) :   0.8476 B(  6-C ,  7-H ) :   0.7840 
B(  6-C ,  8-C ) :   0.8575 B(  6-C ,  9-O ) :   0.1801 B(  6-C , 10-O ) :   0.1645 
B(  6-C , 13-S ) :   1.2290 B(  6-C , 14-P ) :   0.0840 B(  6-C , 15-S ) :   0.0508 
B(  7-H , 13-S ) :   0.0547 B(  8-C ,  9-O ) :   2.0697 B(  8-C , 10-O ) :   1.5140 
B(  8-C , 11-C ) :   0.0919 B(  8-C , 13-S ) :   0.1191 B(  9-O , 10-O ) :   0.4517 
B(  9-O , 11-C ) :   0.0685 B(  9-O , 13-S ) :   0.1218 B(  9-O , 14-P ) :   0.1231 
B(  9-O , 15-S ) :   0.0774 B(  9-O , 18-O ) :   0.0895 B( 10-O , 11-C ) :   1.2669 
B( 10-O , 12-C ) :   0.1682 B( 10-O , 27-H ) :   0.0918 B( 10-O , 28-H ) :   0.0925 
B( 11-C , 12-C ) :   1.0939 B( 11-C , 27-H ) :   0.8209 B( 11-C , 28-H ) :   0.8222 
B( 11-C , 30-H ) :   0.0501 B( 12-C , 29-H ) :   0.9202 B( 12-C , 30-H ) :   0.9135 
B( 12-C , 31-H ) :   0.9206 B( 13-S , 14-P ) :   1.1976 B( 13-S , 15-S ) :   0.1397 
B( 13-S , 16-O ) :   0.1645 B( 13-S , 18-O ) :   0.1297 B( 14-P , 15-S ) :   1.9946 
B( 14-P , 16-O ) :   1.5091 B( 14-P , 17-C ) :   0.0978 B( 14-P , 18-O ) :   1.5731 
B( 14-P , 19-C ) :   0.0988 B( 15-S , 16-O ) :   0.1855 B( 15-S , 18-O ) :   0.1560 
B( 16-O , 17-C ) :   1.3603 B( 16-O , 18-O ) :   0.2364 B( 16-O , 32-H ) :   0.1035 
B( 16-O , 33-H ) :   0.1028 B( 16-O , 34-H ) :   0.1040 B( 17-C , 32-H ) :   0.8584 
B( 17-C , 33-H ) :   0.8571 B( 17-C , 34-H ) :   0.8610 B( 18-O , 19-C ) :   1.3301 
B( 18-O , 35-H ) :   0.1011 B( 18-O , 36-H ) :   0.1001 B( 18-O , 37-H ) :   0.1033 
B( 19-C , 35-H ) :   0.8580 B( 19-C , 36-H ) :   0.8622 B( 19-C , 37-H ) :   0.8557 


------------------------------------------
LOEWDIN REDUCED ORBITAL POPULATIONS PER MO
-------------------------------------------
THRESHOLD FOR PRINTING IS 0.1%%
                      0         1         2         3         4         5   
                 -88.57790 -88.52506 -76.91921 -19.01573 -19.00844 -18.99504
                   2.00000   2.00000   2.00000   2.00000   2.00000   2.00000
                  --------  --------  --------  --------  --------  --------
 2 O  s               0.0       0.0       0.0       0.0      99.9       0.0
10 O  s               0.0       0.0       0.0      99.9       0.0       0.0
13 S  s             100.0       0.0       0.0       0.0       0.0       0.0
14 P  s               0.0       0.0     100.0       0.0       0.0       0.0
15 S  s               0.0     100.0       0.0       0.0       0.0       0.0
18 O  s               0.0       0.0       0.0       0.0       0.0      99.9

                      6         7         8         9        10        11   
                 -18.98856 -18.95140 -18.95044 -10.17520 -10.17213 -10.09669
                   2.00000   2.00000   2.00000   2.00000   2.00000   2.00000
                  --------  --------  --------  --------  --------  --------
 2 O  dxy             0.0       0.0       0.0       0.0       0.2       0.0
 3 C  s               0.0       0.0       0.0       0.0      98.9       0.0
 4 O  s               0.0       0.0      99.9       0.0       0.0       0.0
 4 O  pz              0.0       0.0       0.0       0.0       0.1       0.0
 4 O  dxz             0.0       0.0       0.0       0.0       0.2       0.0
 6 C  s               0.0       0.0       0.0       0.0       0.0      99.6
 8 C  s               0.0       0.0       0.0      98.8       0.0       0.0
 9 O  s               0.0      99.9       0.0       0.0       0.0       0.0
 9 O  px              0.0       0.0       0.0       0.2       0.0       0.0
[...]
                  18.93882  19.30737  21.91723  21.95630  22.00985  22.01131
                   0.00000   0.00000   0.00000   0.00000   0.00000   0.00000
                  --------  --------  --------  --------  --------  --------
 0 C  s               0.0       0.0       0.3      98.0       0.0       0.5
 1 C  s               0.0       0.0       0.1       0.1       0.9       4.0
 3 C  s               0.0       0.1       0.1       0.1       0.0       0.3
 5 C  s               0.0       0.0       1.3       0.8       0.9      11.4
 6 C  s               0.0       0.5       4.2       0.0       0.1       5.9
 8 C  s               0.0       0.0       0.0       0.0       0.5       0.8
11 C  s               0.0       0.0      20.6       0.0       6.6      40.9
12 C  s               0.0       0.0      72.8       0.5       1.4      21.0
13 S  s               0.2      98.5       0.0       0.0       0.0       0.0
14 P  s               0.1       0.1       0.0       0.0       0.0       0.0
14 P  pz              0.1       0.0       0.0       0.0       0.0       0.0
15 S  s              98.8       0.2       0.0       0.0       0.0       0.0
15 S  pz              0.1       0.0       0.0       0.0       0.0       0.0
17 C  s               0.0       0.0       0.0       0.1       5.8       9.7
19 C  s               0.1       0.0       0.1       0.0      83.5       5.2

                    498       499       500       501       502       503   
                  22.02374  22.05165  22.09249  22.12034  22.30843  22.39674
                   0.00000   0.00000   0.00000   0.00000   0.00000   0.00000
                  --------  --------  --------  --------  --------  --------
 0 C  s               0.3       0.1       0.2       0.1       0.2       0.0
 1 C  s               5.2      61.6      19.1       8.6       0.0       0.0
 2 O  s               0.0       0.0       0.0       0.0       0.2       0.0
 3 C  s               0.0       0.0       0.2       0.4      96.4       1.4
 4 O  s               0.0       0.0       0.0       0.0       0.2       0.0
 4 O  pz              0.0       0.0       0.0       0.0       0.1       0.0
 5 C  s               9.3      11.5      35.6      28.0       0.0       0.6
 6 C  s               0.0       0.3      29.1      58.7       0.7       0.3
 8 C  s               0.4       0.0       0.0       0.9       1.4      94.9
 9 O  s               0.0       0.0       0.0       0.0       0.0       0.2
 9 O  px              0.0       0.0       0.0       0.0       0.0       0.1
10 O  s               0.0       0.0       0.0       0.0       0.0       0.2
11 C  s              14.3       4.6       9.4       1.8       0.2       1.1
12 C  s               2.9       0.3       0.1       0.3       0.0       0.3
13 S  s               0.0       0.0       0.0       0.1       0.1       0.0
17 C  s              59.3      18.4       5.7       0.3       0.0       0.3
19 C  s               7.8       2.6       0.0       0.3       0.0       0.0

                    504       505       506       507       508       509   
                  43.72257  43.75387  43.76676  43.77787  43.81862  43.91335
                   0.00000   0.00000   0.00000   0.00000   0.00000   0.00000
                  --------  --------  --------  --------  --------  --------
 2 O  s               8.9      25.1      50.4      15.1       0.4       0.1
 4 O  s              85.7       8.5       5.0       0.6       0.0       0.2
 9 O  s               0.9      10.5       0.9       2.6      84.9       0.1
10 O  s               0.7      46.5      34.4       0.4       8.3       9.7
14 P  s               0.0       0.0       0.0       0.0       0.0       0.1
16 O  s               3.6       5.0       5.4      78.5       5.5       2.0
18 O  s               0.1       4.4       3.9       2.8       0.8      87.8



                      *****************************
                      * MAYER POPULATION ANALYSIS *
                      *****************************

  NA   - Mulliken gross atomic population
  ZA   - Total nuclear charge
  QA   - Mulliken gross atomic charge
  VA   - Mayer's total valence
  BVA  - Mayer's bonded valence
  FA   - Mayer's free valence

  ATOM       NA         ZA         QA         VA         BVA        FA
  0 C      6.4961     6.0000    -0.4961     3.8177     3.8177     0.0000
  1 C      6.1409     6.0000    -0.1409     3.6393     3.6393    -0.0000
  2 O      8.1837     8.0000    -0.1837     1.9469     1.9469     0.0000
  3 C      5.5828     6.0000     0.4172     3.8523     3.8523    -0.0000
  4 O      8.4919     8.0000    -0.4919     1.9252     1.9252    -0.0000
  5 C      6.4356     6.0000    -0.4356     3.8015     3.8015     0.0000
  6 C      6.0061     6.0000    -0.0061     3.6705     3.6705    -0.0000
  7 H      0.7427     1.0000     0.2573     0.9290     0.9290    -0.0000
  8 C      5.6456     6.0000     0.3544     3.8418     3.8418    -0.0000
  9 O      8.4570     8.0000    -0.4570     1.9535     1.9535    -0.0000
 10 O      8.1503     8.0000    -0.1503     2.0392     2.0392     0.0000
 11 C      6.1496     6.0000    -0.1496     3.6158     3.6158     0.0000
 12 C      6.4934     6.0000    -0.4934     3.8411     3.8411    -0.0000
 13 S     16.2176    16.0000    -0.2176     2.1486     2.1486    -0.0000
 14 P     14.1897    15.0000     0.8103     5.1348     5.1348     0.0000
 15 S     16.5162    16.0000    -0.5162     1.9967     1.9967    -0.0000
 16 O      8.3872     8.0000    -0.3872     1.8168     1.8168     0.0000
 17 C      6.3084     6.0000    -0.3084     3.7473     3.7473     0.0000
 18 O      8.3537     8.0000    -0.3537     1.9000     1.9000     0.0000
 19 C      6.3012     6.0000    -0.3012     3.7082     3.7082    -0.0000
 20 H      0.8297     1.0000     0.1703     0.9567     0.9567     0.0000
 21 H      0.8332     1.0000     0.1668     0.9579     0.9579     0.0000
 22 H      0.8284     1.0000     0.1716     0.9579     0.9579     0.0000
 23 H      0.8231     1.0000     0.1769     0.9463     0.9463     0.0000
 24 H      0.8259     1.0000     0.1741     0.9548     0.9548    -0.0000
 25 H      0.7656     1.0000     0.2344     0.9337     0.9337     0.0000
 26 H      0.7782     1.0000     0.2218     0.9410     0.9410     0.0000
 27 H      0.8219     1.0000     0.1781     0.9440     0.9440     0.0000
 28 H      0.8221     1.0000     0.1779     0.9428     0.9428     0.0000
 29 H      0.8328     1.0000     0.1672     0.9567     0.9567    -0.0000
 30 H      0.8275     1.0000     0.1725     0.9569     0.9569    -0.0000
 31 H      0.8328     1.0000     0.1672     0.9563     0.9563     0.0000
 32 H      0.8238     1.0000     0.1762     0.9525     0.9525     0.0000
 33 H      0.8225     1.0000     0.1775     0.9497     0.9497     0.0000
 34 H      0.8283     1.0000     0.1717     0.9513     0.9513    -0.0000
 35 H      0.8216     1.0000     0.1784     0.9521     0.9521    -0.0000
 36 H      0.8151     1.0000     0.1849     0.9468     0.9468    -0.0000
 37 H      0.8178     1.0000     0.1822     0.9486     0.9486     0.0000

  Mayer bond orders larger than 0.100000
B(  0-C ,  1-C ) :   0.9376 B(  0-C , 20-H ) :   0.9691 B(  0-C , 21-H ) :   0.9695 
B(  0-C , 22-H ) :   0.9588 B(  1-C ,  2-O ) :   0.7871 B(  1-C , 23-H ) :   0.9524 
B(  1-C , 24-H ) :   0.9631 B(  2-O ,  3-C ) :   1.1232 B(  3-C ,  4-O ) :   1.7875 
B(  3-C ,  5-C ) :   0.9535 B(  5-C ,  6-C ) :   0.9093 B(  5-C , 25-H ) :   0.9062 
B(  5-C , 26-H ) :   0.9592 B(  6-C ,  7-H ) :   0.9031 B(  6-C ,  8-C ) :   0.8894 
B(  6-C , 13-S ) :   0.8670 B(  8-C ,  9-O ) :   1.7715 B(  8-C , 10-O ) :   1.2236 
B( 10-O , 11-C ) :   0.7678 B( 11-C , 12-C ) :   0.9441 B( 11-C , 27-H ) :   0.9444 
B( 11-C , 28-H ) :   0.9418 B( 12-C , 29-H ) :   0.9704 B( 12-C , 30-H ) :   0.9606 
B( 12-C , 31-H ) :   0.9692 B( 13-S , 14-P ) :   1.0016 B( 14-P , 15-S ) :   1.7770 
B( 14-P , 16-O ) :   1.0084 B( 14-P , 18-O ) :   1.1827 B( 16-O , 17-C ) :   0.8302 
B( 17-C , 32-H ) :   0.9553 B( 17-C , 33-H ) :   0.9584 B( 17-C , 34-H ) :   0.9492 
B( 18-O , 19-C ) :   0.7891 B( 19-C , 35-H ) :   0.9489 B( 19-C , 36-H ) :   0.9534 
B( 19-C , 37-H ) :   0.9545 

-------
TIMINGS
-------

Total SCF time: 0 days 0 hours 1 min 34 sec 

Total time                  ....      94.937 sec
Sum of individual times     ....      94.883 sec  ( 99.9%)

SCF preparation             ....       1.242 sec  (  1.3%)
Fock matrix formation       ....      91.163 sec  ( 96.0%)
  Startup                   ....       0.019 sec  (  0.0% of F)
  Split-RI-J                ....      22.206 sec  ( 24.4% of F)
  XC integration            ....      41.122 sec  ( 45.1% of F)
    Basis function eval.    ....       6.429 sec  ( 15.6% of XC)
    Density eval.           ....      16.249 sec  ( 39.5% of XC)
    XC-Functional eval.     ....       3.026 sec  (  7.4% of XC)
    XC-Potential eval.      ....      14.669 sec  ( 35.7% of XC)
  CPCM terms                ....      27.495 sec  ( 30.2% of F)
Diagonalization             ....       0.000 sec  (  0.0%)
Density matrix formation    ....       0.122 sec  (  0.1%)
Total Energy calculation    ....       0.017 sec  (  0.0%)
Population analysis         ....       1.285 sec  (  1.4%)
Orbital Transformation      ....       0.128 sec  (  0.1%)
Orbital Orthonormalization  ....       0.000 sec  (  0.0%)
DIIS solution               ....       0.821 sec  (  0.9%)
  MO trafo                  ....       0.000 sec  (  0.0 % of DIIS)
  Orb grad                  ....       0.000 sec  (  0.0 % of DIIS)
  Energy W gradient         ....       0.000 sec  (  0.0 % of DIIS)
  DIIS error                ....       0.127 sec  ( 15.4 % of DIIS)
  DIIS work                 ....       0.626 sec  ( 76.2 % of DIIS)
  Form Q                    ....       0.000 sec  (  0.0 % of DIIS)
  Form QpQm                 ....       0.000 sec  (  0.0 % of DIIS)
  Exp/Cayley                ....       0.000 sec  (  0.0 % of DIIS)
  Orb update                ....       0.000 sec  (  0.0 % of DIIS)
  Wake-sleep                ....       0.005 sec  (  0.6 % of DIIS)
SOSCF solution              ....       0.106 sec  (  0.1%)
  MO trafo                  ....       0.084 sec  ( 78.7 % of SOSCF)
  Orb grad                  ....       0.000 sec  (  0.3 % of SOSCF)
  Rot update                ....       0.000 sec  (  0.1 % of SOSCF)
  Step                      ....       0.022 sec  ( 20.8 % of SOSCF)
Finished LeanSCF after  95.6 sec

Maximum memory used throughout the entire LEANSCF-calculation: 111.4 MB


-------------------------------------------------------------------------------
                          DFT DISPERSION CORRECTION                            
                                                                               
                                DFTD4 V3.4.0                                   
-------------------------------------------------------------------------------
The R2SCAN3C composite method is recognized
Using three-body term ABC
Active option DFTDOPT                   ...         5   

-------------------------   ----------------
Dispersion correction           -0.016254099
-------------------------   ----------------

------------------   -----------------
gCP correction             0.037443557
------------------   -----------------

-------------------------   --------------------
FINAL SINGLE POINT ENERGY     -1981.464416383854
-------------------------   --------------------


------------------------------------------------------------------------------
                              ORCA PROPERTY CALCULATIONS
------------------------------------------------------------------------------

GBWName                                 ... sp_solv.gbw
Number of atoms                         ...     38
Number of basis functions               ...    510
Max core memory                         ...   1024 MB

Electric properties:
Dipole moment                           ... YES
Quadrupole moment                       ...  NO
Static polarizability (Dipole/Dipole)   ...  NO
Static polarizability (Dipole/Quad.)    ...  NO
Static polarizability (Quad./Quad.)     ...  NO
Static polarizability (Velocity)        ...  NO

Atomic electric properties:
Dipole moment                           ...  NO
Quadrupole moment                       ...  NO
Static polarizability                   ...  NO

Choice of electric origin               ... Center of mass
Position of electric origin             ...     0.000008    -0.000001    -0.000002

General magnetic properties:
Magnetizability                         ...  NO

EPR properties:
g-Tensor (aka g-matrix)                 ...  NO
Zero-Field splitting spin-orbit         ...  NO
Zero-field splitting spin-spin          ...  NO
Hyperfine couplings                     ...  NO (   0 nuclei)
Quadrupole couplings                    ...  NO (   0 nuclei)
Contact density                         ...  NO (   0 nuclei)

NMR properties:
Chemical shifts                         ...  NO (   0 nuclei)
Spin-rotation constants                 ...  NO (   0 nuclei)
Spin-spin couplings                     ...  NO (   0 nuclei,    0 pairs)

Choice of magnetic origin               ... GIAO
Position of magnetic origin             ...     0.000000     0.000000     0.000000

Properties with geometric perturbations:
SCF Hessian                             ...  NO
IR spectrum                             ...  NO
VCD spectrum                            ...  NO
X-ray spectroscopy properties:
SCF XES/XAS/RIXS spectra                ...  NO


-------------
DIPOLE MOMENT
-------------

Method             : SCF
Type of density    : Electron Density
Multiplicity       :   1
Irrep              :   0
Energy             : -1981.4856058415418829 Eh
Relativity type    : 
Basis              : AO
                                X                 Y                 Z
Electronic contribution:    -16.981520458       1.982669506       1.704789062
Nuclear contribution   :     19.539355509      -3.118550106      -0.240438837
                        -----------------------------------------
Total Dipole Moment    :      2.557835051      -1.135880600       1.464350225
                        -----------------------------------------
Magnitude (a.u.)       :      3.158649469
Magnitude (Debye)      :      8.028648902



--------------------
Rotational spectrum 
--------------------
 
Rotational constants in cm-1:             0.010628             0.006751             0.004847 
Rotational constants in MHz :           318.610636           202.394535           145.305387 

Dipole components along the rotational axes: 
x,y,z [a.u.] :    -2.458514     0.593375     1.892268 
x,y,z [Debye]:    -6.249047     1.508240     4.809764 

 

Dipole moment calculation done in   0.4 sec 

Maximum memory used throughout the entire PROP-calculation: 48.7 MB

--------------------------------
SUGGESTED CITATIONS FOR THIS RUN
--------------------------------

Below you find a list of papers that are relevant to this ORCA run
We neither can nor want to force you to cite these papers, but we appreciate if you do
You receive ORCA, which is the product of decades of hard work by many enthusiastic individuals, for free
The only thing we kindly ask in return is that you cite our papers,
We deeply appreciate it, if you show your appreciation for ORCA by not just citing the generic ORCA reference.

Please note that relegating all ORCA citations to the supporting information does *not* help us.
SI sections are not indexed - citations you put there will not count into any citation statistics
But we need these citations in order to attract the funding resources that allow us to do what we are doing

Therefore, if you are a happy ORCA user, please consider citing a few of the papers listed below in the main body of your paper

In addition to the list printed below, the program has created the file sp_solv.bibtex that contains the list in bibtex format
You can import this file easily into all common literature databanks and citation aid programs


List of essential papers. We consider these as the minimum necessary citations

  1. Neese,F.
     Software update: the ORCA program system, version 5.0
     WIRES Comput. Molec. Sci., 2022 12(1)e1606
     doi.org/10.1002/wcms.1606
  2. Grimme,S.; Hansen,A.; Ehlert,S.; Mewes,J.
     r2SCAN-3c: A 'Swiss army knife' composite electronic-structure method
     J. Chem. Phys., 2021 154 064103
     doi.org/10.1063/5.0040021

List of papers to cite with high priority. The work reported in these papers was absolutely
necessary for this run to complete.
Our perspective: the developers of density functionals and basis sets usually get cited in chemistry papers
Good! But without the algorithms to do something with them, the functionals or basis sets would not do anything.
Hence, in our opinion, the algorithm design and method developments papers are equally worthy of getting cited

  1. Neese,F.
     An improvement of the resolution of the identity approximation for the formation of the Coulomb matrix
     J. Comp. Chem., 2003 24(14)1740-1747
     doi.org/10.1002/jcc.10318
  2. Garcia-Rates,M.; Neese,F.
     Effect of the Solute Cavity on the Solvation Energy and its Derivatives within the Framework of the Gaussian Charge Scheme
     J. Comput. Chem., 2020 41 922-939
     doi.org/10.1002/jcc.26139
  3. Neese,F.
     The SHARK Integral Generation and Digestion System
     J. Comp. Chem., 2022  1-16
     doi.org/10.1002/jcc.26942
  4. Lehtola,S.; Steigemann,C.; Oliveira,M.; Marques,M.
     Recent developments in Libxc - A comprehensive library of functionals for density functional theory
     Software X, 2018 7 
     doi.org/10.1016/j.softx.2017.11.002
  5. Caldeweyher,E.; Bannwarth,C.; Grimme,S.
     Extension of the D3 dispersion coefficient model
     J. Chem. Phys., 2017 147 034112
     doi.org/10.1063/1.4993215
  6. Caldeweyher,E.; Ehlert,S.; Hansen,A.; Neugebauer,H.; Spicher,S.; Bannwarth,C.; Grimme,S.
     A generally applicable atomic-charge dependent London dispersion correction
     J. Chem. Phys., 2019 150 154122
     doi.org/10.1063/1.5090222
  7. Caldeweyher,E.; Mewes,J.; Ehlert,S.; Grimme,S.
     Extension and evaluation of the D4 London-dispersion model for periodic systems
     Phys. Chem. Chem. Phys., 2020 22(16)8499-8512
     doi.org/10.1039/D0CP00502A
  8. Wittmann,L.; Gordiy,I.; Friede,M.; Helmich-Paris,B.; Grimme,S.; Hansen,A.; Bursch,M.
     Extension of the D3 and D4 London Dispersion Corrections to the full Actinides Series
     Phys. Chem. Chem. Phys., 2024 26(32)21379-21394
     doi.org/https://doi.org/10.1039/D4CP01514B 

List of suggested additional citations. These are papers that are important in the 'surrounding' of 
of this run, or papers that preceded the highly important papers. If you like your results we are grateful for a citation.

  1. Neese,F.
     The ORCA program system
     WIRES Comput. Molec. Sci., 2012 2(1)73-78
     doi.org/10.1002/wcms.81
  2. Neese,F.
     Software update: the ORCA program system, version 4.0
     WIRES Comput. Molec. Sci., 2018 8(1)1-6
     doi.org/10.1002/wcms.1327
  3. Neese,F.; Wennmohs,F.; Becker,U.; Riplinger,C.
     The ORCA quantum chemistry program package
     J. Chem. Phys., 2020 152 Art. No. L224108
     doi.org/10.1063/5.0004608

List of optional additional citations

  1. Neese,F.
     Approximate second-order SCF convergence for spin unrestricted wavefunctions
     Chem. Phys. Lett., 2000 325(1-3)93-98
     doi.org/10.1016/s0009-2614(00)00662-x

Timings for individual modules:

Sum of individual times          ...       99.114 sec (=   1.652 min)
Startup calculation              ...        2.700 sec (=   0.045 min)   2.7 %
SCF iterations                   ...       95.913 sec (=   1.599 min)  96.8 %
Property calculations            ...        0.501 sec (=   0.008 min)   0.5 %
                             ****ORCA TERMINATED NORMALLY****
TOTAL RUN TIME: 0 days 0 hours 1 minutes 40 seconds 587 msec
