 Entering Gaussian System
 *********************************************
 Gaussian 98:
 frequency output generated by the xtb code
 *********************************************
                         Standard orientation:
 --------------------------------------------------------------------
  Center     Atomic     Atomic              Coordinates (Angstroms)
  Number     Number      Type              X           Y           Z
 --------------------------------------------------------------------
    1          6             0        2.006418    0.554933   -3.105485
    2          6             0        1.579805   -0.710535   -2.388195
    3          8             0        2.530518   -1.095289   -1.381955
    4         15             0        2.463144   -0.594955    0.119873
    5         16             0        2.783870    1.305861    0.499650
    6          8             0        3.585303   -1.582395    0.638717
    7          6             0        4.333621   -1.343376    1.842567
    8          6             0        3.483408   -1.525085    3.084511
    9         16             0        0.602645   -1.376469    0.809014
   10          6             0       -0.022496    0.059573    1.756934
   11         16             0       -1.825908    0.070481    1.825792
   12         15             0       -2.217259    0.584855   -0.174235
   13         16             0       -0.956669    1.795591   -1.077895
   14          8             0       -3.733451    1.069492   -0.181753
   15          6             0       -4.132946    2.443140   -0.030094
   16          6             0       -3.849336    2.981982    1.357236
   17          8             0       -2.349118   -0.857654   -0.814736
   18          6             0       -2.491289   -1.045342   -2.242609
   19          6             0       -2.085872   -2.467583   -2.570727
   20          1             0        2.006529    1.398316   -2.417286
   21          1             0        3.004406    0.434603   -3.517103
   22          1             0        1.305209    0.764432   -3.907234
   23          1             0        1.547594   -1.561581   -3.071595
   24          1             0        0.596400   -0.575340   -1.925774
   25          1             0        5.141268   -2.075633    1.798624
   26          1             0        4.748241   -0.330806    1.803982
   27          1             0        2.725556   -0.743790    3.128818
   28          1             0        2.994178   -2.495707    3.069447
   29          1             0        4.113276   -1.452388    3.965578
   30          1             0        0.345763    0.975329    1.285687
   31          1             0        0.312544   -0.012636    2.788771
   32          1             0       -3.612533    3.038216   -0.787089
   33          1             0       -5.203274    2.426750   -0.241662
   34          1             0       -4.249000    3.988558    1.434794
   35          1             0       -4.308972    2.351537    2.113811
   36          1             0       -2.774976    3.015953    1.533545
   37          1             0       -3.534167   -0.855073   -2.507021
   38          1             0       -1.854744   -0.315138   -2.755714
   39          1             0       -2.171653   -2.624263   -3.641170
   40          1             0       -1.059560   -2.647107   -2.261269
   41          1             0       -2.732903   -3.166763   -2.049643
 --------------------------------------------------------------------
     1 basis functions        1 primitive gaussians
     1 alpha electrons        1 beta electrons
 
 Harmonic frequencies (cm**-1), IR intensities (km*mol⁻¹),
 Raman scattering activities (A**4/amu), Raman depolarization ratios,
 reduced masses (AMU), force constants (mDyne/A) and normal coordinates:
                      1                      2                      3
                        a                      a                      a 
 Frequencies --    47.7961                50.6645                57.7664
 Red. masses --    24.9775                21.5527                21.2448
 Frc consts  --     0.0000                 0.0000                 0.0000
 IR Inten    --     0.6853                 1.1370                 0.7422
 Raman Activ --     0.0000                 0.0000                 0.0000
 Depolar     --     0.0000                 0.0000                 0.0000
 Atom AN      X      Y      Z        X      Y      Z        X      Y      Z
   1   6     0.06   0.07   0.07     0.11   0.08  -0.06    -0.17  -0.05   0.08
   2   6     0.10   0.03   0.03     0.15   0.07  -0.06    -0.09  -0.04   0.14
   3   8     0.13   0.01   0.01     0.16   0.16  -0.02    -0.00   0.02   0.09
   4  15     0.18  -0.05   0.03     0.04   0.13  -0.01     0.13   0.01   0.14
   5  16     0.44  -0.11   0.13    -0.01   0.09   0.20     0.02   0.03   0.12
   6   8     0.01  -0.16   0.05    -0.02   0.06   0.04     0.19   0.06  -0.01
   7   6     0.01  -0.17   0.05    -0.04   0.03   0.05     0.17   0.03  -0.01
   8   6    -0.01  -0.14   0.04    -0.06   0.01   0.03     0.18   0.01  -0.01
   9  16     0.03   0.19  -0.13    -0.06   0.08  -0.34     0.29  -0.14   0.41
  10   6     0.06   0.17  -0.13    -0.02  -0.06  -0.04    -0.02   0.03  -0.04
  11  16     0.10   0.21  -0.05    -0.04  -0.13   0.02    -0.04  -0.18  -0.21
  12  15    -0.17   0.03  -0.04    -0.10  -0.13   0.03    -0.11   0.00  -0.16
  13  16    -0.41   0.10  -0.28     0.08  -0.46  -0.14    -0.09  -0.05  -0.20
  14   8    -0.15  -0.08   0.09    -0.00   0.14   0.09    -0.05   0.09  -0.01
  15   6    -0.17  -0.08   0.07     0.16   0.17   0.05     0.03   0.09   0.06
  16   6    -0.15  -0.05   0.06     0.22   0.16   0.04     0.12   0.04   0.06
  17   8    -0.08  -0.01   0.03    -0.33  -0.08   0.07    -0.18   0.03  -0.16
  18   6    -0.04  -0.05   0.03    -0.16  -0.09   0.05    -0.19   0.07  -0.14
  19   6     0.01  -0.04   0.06    -0.08  -0.07   0.08    -0.24   0.06  -0.17
  20   1     0.02   0.01   0.03     0.02   0.02  -0.01    -0.04  -0.01   0.02
  21   1     0.02   0.03   0.01     0.04   0.04  -0.01    -0.06  -0.01   0.00
  22   1     0.01   0.02   0.03     0.03   0.02  -0.02    -0.07  -0.03   0.03
  23   1     0.03   0.02  -0.00     0.07   0.02  -0.02    -0.03  -0.02   0.05
  24   1     0.03  -0.00   0.01     0.04   0.00  -0.03    -0.02  -0.02   0.06
  25   1    -0.00  -0.06   0.02    -0.01   0.01   0.02     0.05   0.01  -0.01
  26   1     0.01  -0.05   0.02    -0.01   0.01   0.02     0.05   0.01   0.00
  27   1     0.00  -0.03   0.01    -0.02   0.00   0.01     0.05   0.00  -0.00
  28   1    -0.01  -0.04   0.01    -0.02   0.00   0.00     0.05   0.00  -0.01
  29   1    -0.01  -0.04   0.01    -0.02  -0.00   0.01     0.05  -0.00  -0.00
  30   1     0.00   0.04  -0.06    -0.01  -0.00   0.01    -0.02  -0.01  -0.05
  31   1     0.03   0.07  -0.04     0.00  -0.04  -0.02    -0.02   0.07  -0.00
  32   1    -0.06  -0.02   0.02     0.06   0.03   0.01     0.01   0.03   0.01
  33   1    -0.05  -0.03   0.03     0.04   0.08   0.02     0.01   0.04   0.03
  34   1    -0.05  -0.02   0.02     0.09   0.06   0.01     0.05   0.02   0.03
  35   1    -0.03  -0.02   0.02     0.05   0.06   0.02     0.03   0.01   0.02
  36   1    -0.04  -0.01   0.01     0.07   0.02   0.01     0.04  -0.00   0.00
  37   1    -0.01  -0.03   0.00    -0.04  -0.04  -0.01    -0.05   0.03  -0.03
  38   1    -0.02  -0.01   0.01    -0.04  -0.02   0.03    -0.05   0.02  -0.04
  39   1     0.01  -0.02   0.02    -0.01  -0.02   0.02    -0.08   0.02  -0.05
  40   1     0.00   0.00   0.02    -0.02  -0.00   0.04    -0.07   0.01  -0.06
  41   1     0.01  -0.02   0.02    -0.02  -0.03   0.02    -0.07   0.02  -0.05
                      4                      5                      6
                        a                      a                      a 
 Frequencies --    58.6064                66.9687                73.7405
 Red. masses --    18.9054                18.3568                17.8806
 Frc consts  --     0.0000                 0.0000                 0.0000
 IR Inten    --     2.6894                 9.3304                 7.2807
 Raman Activ --     0.0000                 0.0000                 0.0000
 Depolar     --     0.0000                 0.0000                 0.0000
 Atom AN      X      Y      Z        X      Y      Z        X      Y      Z
   1   6     0.24  -0.19  -0.03     0.18   0.13   0.06     0.05  -0.01   0.05
   2   6     0.18  -0.16  -0.02    -0.01   0.15  -0.01     0.02  -0.03  -0.00
   3   8     0.16  -0.21   0.02    -0.10  -0.03  -0.00    -0.03  -0.08   0.03
   4  15     0.08  -0.10  -0.04    -0.13  -0.15   0.03    -0.04   0.06  -0.02
   5  16    -0.10  -0.01  -0.34    -0.31  -0.14   0.13    -0.18   0.14  -0.29
   6   8     0.07   0.03   0.16    -0.03  -0.06  -0.04     0.01   0.12   0.04
   7   6    -0.01   0.16   0.15     0.12   0.04  -0.14    -0.14   0.02   0.14
   8   6    -0.05   0.21   0.13     0.28   0.07  -0.03    -0.23  -0.25   0.04
   9  16     0.04  -0.11  -0.17    -0.09  -0.23   0.09     0.03   0.05   0.13
  10   6     0.00  -0.09  -0.09    -0.02  -0.08  -0.01     0.04   0.06   0.04
  11  16     0.00  -0.23  -0.04    -0.02   0.15  -0.06     0.08   0.22  -0.05
  12  15    -0.14   0.06   0.06    -0.05   0.09  -0.07     0.11   0.02  -0.10
  13  16    -0.22   0.18   0.12    -0.15   0.03  -0.30     0.12  -0.15  -0.32
  14   8    -0.10   0.05   0.17    -0.03   0.08   0.04     0.09   0.04  -0.03
  15   6    -0.05   0.06   0.14     0.01   0.08   0.09     0.05  -0.00   0.24
  16   6     0.01   0.07   0.12     0.11   0.04   0.08    -0.03  -0.27   0.36
  17   8    -0.12   0.09  -0.06    -0.07   0.04   0.02    -0.01  -0.00  -0.02
  18   6     0.02   0.12  -0.07     0.15  -0.08   0.01    -0.01  -0.01  -0.01
  19   6     0.06   0.13  -0.07     0.37  -0.05   0.15     0.03   0.00  -0.03
  20   1     0.07  -0.05  -0.01     0.07   0.03   0.03     0.01  -0.01   0.02
  21   1     0.07  -0.07  -0.00     0.05   0.01   0.02     0.02   0.00   0.03
  22   1     0.08  -0.05  -0.02     0.06   0.07   0.02     0.02   0.00   0.01
  23   1     0.05  -0.05  -0.00    -0.03   0.05  -0.02     0.01  -0.00  -0.01
  24   1     0.05  -0.03  -0.01    -0.00   0.07  -0.01     0.00  -0.01  -0.01
  25   1     0.01   0.05   0.07     0.04   0.02  -0.06    -0.02   0.03   0.03
  26   1    -0.01   0.05   0.03     0.02   0.01  -0.07    -0.07   0.02   0.09
  27   1    -0.02   0.06   0.02     0.07   0.01   0.00    -0.08  -0.09   0.03
  28   1    -0.01   0.06   0.05     0.09   0.01   0.02    -0.04  -0.08  -0.05
  29   1    -0.03   0.08   0.04     0.11   0.05  -0.03    -0.09  -0.10   0.03
  30   1    -0.01  -0.02  -0.03     0.02  -0.03  -0.00     0.03   0.01   0.01
  31   1     0.01  -0.02  -0.03    -0.01  -0.02   0.00    -0.00   0.02   0.02
  32   1    -0.01   0.01   0.03    -0.01   0.02   0.02     0.02   0.05   0.11
  33   1    -0.01   0.02   0.05    -0.00   0.03   0.05     0.02   0.01   0.05
  34   1     0.02   0.02   0.03     0.03   0.01   0.04    -0.03  -0.09   0.16
  35   1     0.00   0.03   0.04     0.05   0.01   0.03    -0.01  -0.13   0.06
  36   1     0.01   0.01   0.03     0.04   0.01   0.00    -0.01  -0.07   0.12
  37   1     0.01   0.03  -0.04     0.05  -0.07  -0.04    -0.00  -0.01  -0.00
  38   1     0.02   0.04   0.00     0.03  -0.01   0.01    -0.01   0.00  -0.00
  39   1     0.04   0.04  -0.02     0.14  -0.04   0.04     0.01   0.01  -0.01
  40   1     0.01   0.04  -0.00     0.10   0.03   0.08     0.01   0.01  -0.01
  41   1     0.01   0.03  -0.03     0.12  -0.03   0.04     0.01  -0.01  -0.01
                      7                      8                      9
                        a                      a                      a 
 Frequencies --    76.9024                75.7649                72.1578
 Red. masses --    19.8051                17.4908                12.9989
 Frc consts  --     0.0000                 0.0000                 0.0000
 IR Inten    --     2.4621                 5.7522                 1.0593
 Raman Activ --     0.0000                 0.0000                 0.0000
 Depolar     --     0.0000                 0.0000                 0.0000
 Atom AN      X      Y      Z        X      Y      Z        X      Y      Z
   1   6    -0.29  -0.11  -0.04    -0.03   0.06   0.12     0.35   0.21   0.12
   2   6     0.02  -0.18   0.01    -0.03  -0.01   0.00     0.12   0.19  -0.04
   3   8     0.17   0.09  -0.01    -0.09  -0.10   0.01    -0.00  -0.06  -0.01
   4  15     0.01  -0.03   0.03    -0.05  -0.06   0.00    -0.02  -0.12  -0.01
   5  16    -0.17  -0.06   0.33     0.33  -0.12  -0.08    -0.15  -0.09  -0.02
   6   8     0.01   0.01   0.09    -0.16  -0.15   0.08     0.02  -0.04   0.01
   7   6     0.03   0.09   0.04     0.05   0.05  -0.08     0.02   0.04  -0.01
   8   6     0.06   0.15   0.07     0.19   0.39   0.06     0.01   0.19   0.01
   9  16    -0.08  -0.14  -0.36    -0.16   0.16  -0.03     0.01  -0.16   0.05
  10   6     0.05  -0.16  -0.05    -0.08   0.09   0.00     0.09  -0.06   0.03
  11  16     0.10   0.09  -0.10    -0.14   0.01  -0.03     0.15   0.15   0.07
  12  15     0.14   0.15  -0.10    -0.02  -0.03  -0.07     0.10  -0.03   0.04
  13  16     0.06   0.22  -0.13     0.27  -0.21   0.09     0.01  -0.05  -0.13
  14   8     0.08   0.03  -0.05     0.02   0.08  -0.14     0.05  -0.08   0.03
  15   6    -0.02  -0.01   0.09     0.01   0.04   0.10    -0.02  -0.08  -0.08
  16   6    -0.06  -0.13   0.15    -0.13  -0.21   0.22    -0.16  -0.01  -0.08
  17   8     0.15   0.09  -0.02    -0.12  -0.00  -0.07     0.10  -0.05   0.07
  18   6    -0.01  -0.03   0.01    -0.03   0.03  -0.07    -0.25   0.06   0.08
  19   6    -0.21  -0.11   0.12     0.05   0.05  -0.09    -0.43   0.06  -0.11
  20   1    -0.12  -0.03  -0.02    -0.03   0.00   0.05     0.12   0.04   0.06
  21   1    -0.08   0.03  -0.03    -0.00   0.04   0.05     0.11   0.03   0.05
  22   1    -0.11  -0.08  -0.00    -0.00   0.03   0.03     0.13   0.11   0.03
  23   1     0.05  -0.06   0.01     0.00   0.01  -0.02     0.02   0.08  -0.04
  24   1     0.00  -0.11   0.01    -0.02  -0.02  -0.01     0.03   0.08  -0.03
  25   1     0.01   0.03   0.02    -0.00  -0.01  -0.01    -0.00   0.00   0.02
  26   1     0.00   0.03  -0.01     0.04   0.00  -0.10     0.02   0.01  -0.03
  27   1     0.01   0.04   0.01     0.07   0.13  -0.01     0.01   0.07  -0.02
  28   1     0.02   0.04   0.04     0.04   0.12   0.09    -0.01   0.06   0.02
  29   1     0.02   0.06   0.02     0.09   0.15  -0.01     0.00   0.07   0.00
  30   1     0.04  -0.04   0.02    -0.03   0.03   0.00     0.04  -0.02   0.01
  31   1     0.01  -0.09  -0.01    -0.02   0.02   0.00     0.02  -0.03   0.01
  32   1    -0.02   0.03   0.04     0.02   0.05   0.07     0.01  -0.03  -0.02
  33   1    -0.01  -0.02   0.03     0.01   0.02  -0.00    -0.00  -0.04  -0.05
  34   1    -0.04  -0.05   0.07    -0.05  -0.07   0.11    -0.06  -0.01  -0.05
  35   1    -0.01  -0.07   0.02    -0.05  -0.11   0.02    -0.06   0.00  -0.03
  36   1    -0.02  -0.02   0.05    -0.04  -0.06   0.09    -0.05   0.01   0.00
  37   1    -0.00   0.02   0.02    -0.01  -0.00  -0.03    -0.08   0.05   0.09
  38   1     0.01  -0.04  -0.03    -0.01   0.02  -0.01    -0.08   0.01  -0.00
  39   1    -0.09  -0.06   0.04     0.02   0.02  -0.03    -0.18   0.04  -0.03
  40   1    -0.06  -0.06   0.02     0.01   0.03  -0.02    -0.11  -0.01  -0.09
  41   1    -0.07   0.01   0.07     0.02   0.00  -0.04    -0.11   0.02  -0.01
                     10                     11                     12
                        a                      a                      a 
 Frequencies --    74.7834                78.8441                87.1201
 Red. masses --    11.6624                12.4460                14.4088
 Frc consts  --     0.0000                 0.0000                 0.0000
 IR Inten    --     1.0804                 1.5183                 2.0615
 Raman Activ --     0.0000                 0.0000                 0.0000
 Depolar     --     0.0000                 0.0000                 0.0000
 Atom AN      X      Y      Z        X      Y      Z        X      Y      Z
   1   6    -0.33   0.25   0.27    -0.04   0.03   0.03    -0.23  -0.08   0.05
   2   6    -0.10   0.05   0.05     0.03  -0.01  -0.01    -0.01  -0.18   0.01
   3   8    -0.02  -0.01  -0.06     0.07  -0.01  -0.04     0.05  -0.03   0.02
   4  15     0.04  -0.09  -0.06     0.10  -0.04  -0.04    -0.03  -0.02   0.02
   5  16     0.06  -0.08  -0.09    -0.02  -0.02  -0.04    -0.12  -0.02   0.05
   6   8     0.04  -0.05  -0.04     0.15   0.03  -0.07    -0.02   0.02   0.08
   7   6    -0.15  -0.03   0.09     0.05  -0.00  -0.01     0.06   0.09   0.00
   8   6    -0.40   0.31  -0.04    -0.01  -0.11  -0.06     0.19  -0.10   0.07
   9  16     0.11  -0.16   0.03     0.16  -0.16   0.03    -0.10   0.02  -0.12
  10   6     0.08  -0.07  -0.02     0.02  -0.07  -0.05     0.08  -0.00   0.03
  11  16     0.13  -0.05  -0.01     0.02  -0.06  -0.03     0.13   0.20   0.16
  12  15     0.05  -0.03   0.01    -0.06   0.11   0.03     0.03  -0.09   0.11
  13  16    -0.06  -0.03  -0.13     0.16  -0.09   0.07    -0.03  -0.24  -0.17
  14   8     0.04  -0.01   0.11    -0.00   0.21  -0.01     0.02  -0.07   0.15
  15   6     0.06   0.01   0.01    -0.03   0.18  -0.14    -0.01  -0.05  -0.07
  16   6     0.10   0.11  -0.04    -0.60   0.11   0.01    -0.12   0.12  -0.11
  17   8     0.01  -0.02   0.01    -0.19   0.08   0.06    -0.02  -0.06   0.05
  18   6     0.07  -0.01   0.00    -0.01  -0.04   0.06    -0.02   0.19   0.01
  19   6     0.16   0.01   0.00     0.09  -0.04   0.20     0.19   0.34  -0.33
  20   1    -0.13   0.04   0.12    -0.02   0.00   0.02    -0.11  -0.03   0.02
  21   1    -0.09   0.14   0.07    -0.01   0.03   0.01    -0.06   0.04   0.02
  22   1    -0.11   0.08   0.09    -0.02   0.01   0.01    -0.07  -0.05   0.01
  23   1     0.00   0.05  -0.03     0.02   0.00  -0.01     0.05  -0.05  -0.00
  24   1    -0.03  -0.05   0.03     0.01  -0.02   0.00    -0.01  -0.11  -0.00
  25   1    -0.08  -0.06   0.09     0.03   0.01  -0.00     0.05   0.06  -0.03
  26   1     0.02  -0.03   0.01     0.00   0.01   0.02    -0.03   0.04   0.00
  27   1    -0.07   0.14  -0.07    -0.01  -0.04  -0.02     0.02  -0.06   0.05
  28   1    -0.18   0.12   0.00     0.01  -0.04  -0.04     0.10  -0.05   0.02
  29   1    -0.15   0.08   0.02    -0.02  -0.04  -0.01     0.07  -0.01   0.01
  30   1     0.03  -0.02  -0.01     0.00  -0.02  -0.02     0.03  -0.00   0.02
  31   1     0.02  -0.01  -0.01     0.00  -0.01  -0.01     0.03  -0.02   0.00
  32   1     0.02  -0.01  -0.01     0.09   0.06   0.03     0.01  -0.04  -0.03
  33   1     0.02   0.01   0.01     0.02   0.06  -0.17     0.00  -0.02  -0.04
  34   1     0.04   0.04  -0.03    -0.17   0.03  -0.03    -0.04   0.03  -0.07
  35   1     0.03   0.05   0.00    -0.27   0.02  -0.06    -0.05   0.06  -0.02
  36   1     0.03   0.03  -0.02    -0.19   0.02   0.13    -0.04   0.04  -0.01
  37   1     0.02  -0.02  -0.01     0.00  -0.03  -0.02    -0.02   0.02   0.02
  38   1     0.01   0.01   0.01    -0.00  -0.01   0.02    -0.04   0.11   0.04
  39   1     0.06   0.01  -0.00     0.05  -0.04   0.06     0.06   0.17  -0.11
  40   1     0.05   0.02   0.01     0.02   0.01   0.08     0.06   0.12  -0.11
  41   1     0.05  -0.01  -0.01     0.03  -0.01   0.06     0.09   0.03  -0.14
                     13                     14                     15
                        a                      a                      a 
 Frequencies --    85.2434               122.6429               110.6136
 Red. masses --    12.6647                15.8318                 9.8237
 Frc consts  --     0.0000                 0.0000                 0.0000
 IR Inten    --     0.8365                11.3984                 2.1446
 Raman Activ --     0.0000                 0.0000                 0.0000
 Depolar     --     0.0000                 0.0000                 0.0000
 Atom AN      X      Y      Z        X      Y      Z        X      Y      Z
   1   6    -0.14   0.28   0.42    -0.00  -0.02  -0.03    -0.01  -0.03  -0.05
   2   6     0.06  -0.00   0.04    -0.13   0.09   0.08    -0.10   0.09   0.09
   3   8     0.04  -0.13   0.02    -0.12   0.03   0.04    -0.04   0.03   0.01
   4  15     0.01  -0.04  -0.02    -0.07   0.08   0.04    -0.00   0.01   0.03
   5  16    -0.02   0.03  -0.33     0.15   0.08  -0.11     0.15   0.01  -0.08
   6   8    -0.02   0.02   0.13    -0.14  -0.02   0.08    -0.03  -0.00   0.08
   7   6     0.06   0.12   0.05    -0.02  -0.02   0.00    -0.03   0.06   0.06
   8   6     0.24  -0.26   0.12     0.09  -0.01   0.08     0.01  -0.04   0.08
   9  16    -0.08   0.04  -0.15    -0.09   0.08  -0.06    -0.01  -0.06  -0.08
  10   6    -0.04  -0.01  -0.04    -0.00  -0.11   0.20    -0.01  -0.11   0.05
  11  16    -0.06  -0.05  -0.04    -0.02  -0.23   0.03    -0.01  -0.12  -0.05
  12  15    -0.02   0.02  -0.03     0.15  -0.10   0.01     0.08   0.02  -0.05
  13  16     0.01   0.08   0.10    -0.24   0.09  -0.28    -0.08   0.22  -0.02
  14   8    -0.02   0.01  -0.08     0.12  -0.01   0.23     0.06   0.03  -0.10
  15   6     0.01   0.02  -0.07     0.30   0.08  -0.03     0.14   0.04  -0.07
  16   6     0.13   0.04  -0.10    -0.16   0.10   0.06     0.03  -0.07  -0.01
  17   8     0.02   0.00  -0.00     0.10  -0.04  -0.07     0.08  -0.03   0.07
  18   6    -0.00  -0.07   0.01     0.22   0.01  -0.08    -0.47  -0.15   0.14
  19   6    -0.13  -0.12   0.11    -0.11  -0.09  -0.03     0.21   0.07  -0.01
  20   1    -0.11   0.03   0.18     0.05   0.01  -0.02     0.06   0.01  -0.03
  21   1    -0.02   0.17   0.14    -0.01  -0.05  -0.03    -0.02  -0.06  -0.05
  22   1    -0.03   0.09   0.11    -0.01   0.01   0.00    -0.03   0.01   0.01
  23   1     0.08   0.05  -0.05    -0.08   0.01   0.04    -0.09   0.01   0.04
  24   1    -0.00  -0.09   0.00    -0.02   0.07   0.04    -0.01   0.08   0.05
  25   1     0.07   0.10  -0.03    -0.01  -0.01  -0.02     0.01   0.04   0.01
  26   1    -0.07   0.07   0.03    -0.00  -0.01  -0.01    -0.04   0.03   0.02
  27   1     0.01  -0.14   0.08     0.03  -0.00   0.04    -0.02  -0.03   0.03
  28   1     0.15  -0.11   0.02     0.03  -0.00   0.04     0.03  -0.02   0.02
  29   1     0.09  -0.05   0.02     0.05  -0.00   0.01     0.01   0.00   0.02
  30   1    -0.01   0.00  -0.00     0.02  -0.01   0.11     0.01  -0.02   0.04
  31   1    -0.01  -0.01  -0.01    -0.03  -0.09   0.06    -0.02  -0.06   0.02
  32   1    -0.01  -0.00  -0.03     0.20  -0.02   0.04     0.08   0.01   0.01
  33   1    -0.00   0.01   0.01     0.11   0.08  -0.13     0.05   0.04  -0.06
  34   1     0.04   0.01  -0.02    -0.01   0.05  -0.04     0.02  -0.01   0.01
  35   1     0.05   0.02  -0.01    -0.16   0.06  -0.03    -0.02  -0.03  -0.03
  36   1     0.04   0.01  -0.05    -0.06  -0.02   0.14     0.00  -0.04   0.03
  37   1     0.00   0.00  -0.00     0.09   0.08  -0.06    -0.20  -0.22   0.18
  38   1     0.02  -0.04  -0.01     0.13  -0.04  -0.00    -0.32   0.05  -0.05
  39   1    -0.04  -0.06   0.03    -0.01  -0.02  -0.01    -0.04   0.00   0.01
  40   1    -0.04  -0.05   0.03    -0.05  -0.10   0.02     0.13   0.19  -0.12
  41   1    -0.05  -0.01   0.05    -0.10   0.02  -0.03     0.24  -0.08   0.08
                     16                     17                     18
                        a                      a                      a 
 Frequencies --   134.1857               134.7688               144.2342
 Red. masses --    14.8852                12.2324                14.6770
 Frc consts  --     0.0000                 0.0000                 0.0000
 IR Inten    --    18.1373                12.6327                 8.9007
 Raman Activ --     0.0000                 0.0000                 0.0000
 Depolar     --     0.0000                 0.0000                 0.0000
 Atom AN      X      Y      Z        X      Y      Z        X      Y      Z
   1   6    -0.00   0.00   0.09     0.01  -0.01   0.09    -0.07  -0.01  -0.03
   2   6     0.12  -0.13  -0.07     0.19  -0.16  -0.07    -0.18   0.22   0.31
   3   8     0.07  -0.06   0.01     0.10   0.00   0.08     0.08   0.11   0.05
   4  15     0.01  -0.03  -0.01     0.04   0.13   0.07     0.11  -0.03   0.13
   5  16    -0.33   0.00   0.10    -0.07   0.20  -0.16    -0.28   0.11  -0.25
   6   8     0.03  -0.03  -0.06    -0.00  -0.01  -0.06     0.02  -0.09   0.11
   7   6     0.05  -0.16  -0.05     0.13  -0.40  -0.08     0.11  -0.32   0.09
   8   6     0.00   0.05  -0.06     0.06   0.05  -0.06     0.09   0.02   0.12
   9  16    -0.02   0.20   0.05     0.01   0.08   0.02    -0.01   0.01  -0.23
  10   6     0.02   0.26  -0.16    -0.09  -0.17   0.28     0.06   0.04  -0.16
  11  16     0.07   0.06   0.03    -0.21  -0.09   0.03     0.12   0.08  -0.03
  12  15    -0.03  -0.15   0.00     0.03   0.11   0.02    -0.03  -0.03  -0.02
  13  16    -0.21   0.16   0.19    -0.02   0.02  -0.19     0.11  -0.08   0.10
  14   8     0.01  -0.01  -0.05     0.00   0.02  -0.04    -0.02  -0.01  -0.02
  15   6     0.38   0.11  -0.09    -0.11  -0.02  -0.00    -0.06  -0.03  -0.00
  16   6     0.02  -0.11   0.07    -0.01  -0.00  -0.03    -0.02  -0.01  -0.02
  17   8     0.03  -0.11  -0.01     0.05   0.05   0.06    -0.06  -0.01  -0.02
  18   6    -0.05  -0.09  -0.01    -0.07   0.03   0.08     0.02   0.01  -0.03
  19   6     0.02  -0.05  -0.07     0.03   0.06   0.04     0.00  -0.00  -0.02
  20   1    -0.07  -0.01   0.04    -0.11  -0.01   0.04     0.15   0.02  -0.04
  21   1     0.02   0.06   0.06     0.04   0.08   0.09    -0.08  -0.11  -0.13
  22   1     0.02  -0.02  -0.00     0.04  -0.05  -0.02    -0.10   0.03   0.07
  23   1     0.10  -0.02  -0.04     0.15  -0.04  -0.04    -0.19   0.04   0.12
  24   1     0.01  -0.10  -0.05     0.02  -0.13  -0.07     0.00   0.16   0.18
  25   1    -0.03  -0.09  -0.01    -0.07  -0.24  -0.03    -0.04  -0.18   0.02
  26   1     0.08  -0.07  -0.02     0.19  -0.18  -0.02     0.14  -0.14   0.02
  27   1     0.04   0.06  -0.03     0.13   0.12  -0.03     0.09   0.07   0.03
  28   1    -0.05   0.04  -0.01    -0.11   0.08  -0.00    -0.06   0.05   0.06
  29   1    -0.00  -0.01  -0.02     0.03  -0.06  -0.02     0.04  -0.03   0.03
  30   1    -0.04   0.06  -0.11     0.01  -0.02   0.17     0.00   0.01  -0.07
  31   1     0.05   0.14  -0.06    -0.08  -0.14   0.09     0.04   0.03  -0.05
  32   1     0.25   0.00   0.05    -0.07   0.01  -0.02    -0.03  -0.00  -0.01
  33   1     0.13   0.14  -0.14    -0.04  -0.03   0.03    -0.02  -0.02   0.01
  34   1     0.06  -0.01   0.01    -0.02  -0.01   0.00    -0.01  -0.01  -0.00
  35   1    -0.11  -0.03  -0.05     0.03  -0.01   0.00     0.01  -0.00   0.00
  36   1    -0.01  -0.11   0.13     0.00   0.02  -0.04    -0.00   0.01  -0.02
  37   1    -0.02  -0.04   0.02    -0.03  -0.02   0.05     0.01   0.01  -0.02
  38   1    -0.03  -0.01  -0.01    -0.05   0.02   0.00     0.02  -0.00   0.00
  39   1    -0.01  -0.01  -0.02    -0.01   0.01   0.02     0.02   0.00  -0.01
  40   1     0.01  -0.00  -0.04     0.02   0.05  -0.01    -0.01  -0.01   0.01
  41   1     0.02  -0.03  -0.02     0.04   0.00   0.03    -0.01   0.00  -0.02
                     19                     20                     21
                        a                      a                      a 
 Frequencies --   164.8529               173.1258               184.7642
 Red. masses --    15.7334                18.8664                20.3770
 Frc consts  --     0.0000                 0.0000                 0.0000
 IR Inten    --    10.0451                 0.6073                15.7564
 Raman Activ --     0.0000                 0.0000                 0.0000
 Depolar     --     0.0000                 0.0000                 0.0000
 Atom AN      X      Y      Z        X      Y      Z        X      Y      Z
   1   6    -0.03   0.07  -0.11    -0.11   0.10  -0.23    -0.03   0.02  -0.03
   2   6     0.09  -0.00  -0.16     0.13   0.07  -0.14    -0.01   0.03   0.00
   3   8     0.02   0.12  -0.05     0.18   0.29  -0.08     0.03  -0.00  -0.05
   4  15    -0.16   0.04  -0.02    -0.07   0.04  -0.01     0.01  -0.06  -0.04
   5  16    -0.10   0.02  -0.01     0.15   0.04  -0.19    -0.10  -0.07   0.02
   6   8    -0.32  -0.13   0.13    -0.22  -0.09   0.15    -0.04  -0.07   0.03
   7   6    -0.12  -0.11   0.02    -0.08  -0.06   0.06    -0.03   0.01   0.01
   8   6     0.09  -0.02   0.17     0.08  -0.00   0.18     0.01  -0.00   0.04
   9  16     0.04   0.04   0.20     0.12  -0.39   0.20     0.03   0.12   0.03
  10   6     0.08   0.18  -0.13    -0.00  -0.13  -0.05    -0.06   0.19  -0.20
  11  16     0.18  -0.22  -0.15    -0.01   0.21   0.07    -0.06  -0.48   0.09
  12  15     0.14   0.00  -0.06    -0.14  -0.01   0.04     0.05   0.16   0.19
  13  16     0.17   0.04   0.00    -0.13  -0.01   0.07    -0.02  -0.10  -0.32
  14   8     0.09  -0.03   0.29    -0.09   0.02  -0.19     0.02   0.06  -0.21
  15   6    -0.12  -0.07   0.12     0.10   0.06  -0.09    -0.03   0.02  -0.08
  16   6    -0.11   0.21   0.02     0.08  -0.15  -0.00     0.03  -0.13  -0.03
  17   8     0.03   0.05  -0.14    -0.03  -0.04   0.09     0.20   0.08   0.23
  18   6    -0.11  -0.10  -0.09     0.08   0.06   0.06     0.09   0.18   0.22
  19   6     0.04  -0.08   0.01    -0.04   0.04  -0.01    -0.02   0.18   0.13
  20   1    -0.09   0.03  -0.04    -0.10   0.05  -0.09     0.03   0.00  -0.00
  21   1     0.02   0.08   0.02    -0.02   0.08  -0.05    -0.02  -0.01  -0.05
  22   1     0.02  -0.02  -0.07    -0.03  -0.04  -0.08    -0.03   0.02   0.02
  23   1     0.09  -0.00  -0.05     0.08   0.01  -0.03    -0.02   0.01   0.00
  24   1     0.00  -0.05  -0.08     0.03  -0.02  -0.05     0.00   0.02   0.02
  25   1    -0.04  -0.04  -0.02    -0.03  -0.02   0.00     0.00   0.02   0.01
  26   1    -0.02  -0.04  -0.02    -0.02  -0.02  -0.00    -0.03   0.01  -0.01
  27   1     0.03   0.00   0.08     0.03   0.00   0.08    -0.01  -0.02   0.01
  28   1     0.01  -0.00   0.09     0.02   0.00   0.08     0.02  -0.01   0.03
  29   1     0.07  -0.00   0.01     0.06   0.00   0.03     0.01   0.02   0.01
  30   1    -0.02   0.04  -0.10     0.02  -0.06  -0.04    -0.11   0.05  -0.15
  31   1     0.05   0.13  -0.04    -0.00  -0.01  -0.01     0.05   0.15  -0.08
  32   1    -0.08  -0.02  -0.00     0.08   0.02   0.01    -0.02   0.03  -0.01
  33   1    -0.04  -0.08   0.06     0.04   0.07  -0.05    -0.01   0.00  -0.01
  34   1    -0.06   0.05  -0.05     0.05  -0.03   0.03     0.02  -0.04   0.03
  35   1    -0.00   0.09   0.05    -0.01  -0.06  -0.03     0.01  -0.06  -0.03
  36   1    -0.03   0.10  -0.01     0.02  -0.08   0.02     0.01  -0.05  -0.02
  37   1    -0.05  -0.08   0.01     0.04   0.05  -0.01     0.03   0.08   0.08
  38   1    -0.08  -0.02  -0.07     0.06   0.01   0.05     0.04   0.05   0.07
  39   1    -0.03  -0.07   0.01     0.02   0.04  -0.01    -0.02   0.07   0.04
  40   1     0.03   0.03  -0.04    -0.03  -0.03   0.03    -0.01   0.03   0.03
  41   1     0.07  -0.03   0.06    -0.05   0.02  -0.04    -0.02   0.06   0.03
                     22                     23                     24
                        a                      a                      a 
 Frequencies --   211.2609               219.7824               208.0571
 Red. masses --    18.4860                15.8834                 7.5682
 Frc consts  --     0.0000                 0.0000                 0.0000
 IR Inten    --     2.9081                11.1391                 4.9382
 Raman Activ --     0.0000                 0.0000                 0.0000
 Depolar     --     0.0000                 0.0000                 0.0000
 Atom AN      X      Y      Z        X      Y      Z        X      Y      Z
   1   6    -0.11   0.10  -0.15    -0.03   0.03  -0.06    -0.03   0.03  -0.13
   2   6     0.10   0.08  -0.04     0.09   0.04   0.05    -0.06   0.15   0.07
   3   8     0.29   0.06  -0.19     0.15   0.15   0.05    -0.02   0.17   0.06
   4  15     0.23  -0.22  -0.16     0.02  -0.08   0.15     0.09  -0.17   0.19
   5  16    -0.23  -0.23  -0.03     0.08  -0.04  -0.14    -0.06  -0.11  -0.14
   6   8     0.06  -0.21   0.03     0.17   0.03  -0.05     0.17  -0.10  -0.01
   7   6    -0.03   0.06   0.05     0.09   0.02  -0.02     0.07   0.02   0.03
   8   6    -0.01   0.01   0.05    -0.04  -0.01  -0.12    -0.04  -0.00  -0.05
   9  16     0.07   0.33   0.17    -0.19  -0.15   0.02    -0.13   0.09  -0.03
  10   6    -0.06   0.03   0.34    -0.23   0.05  -0.19     0.01   0.05   0.05
  11  16    -0.18   0.04   0.03    -0.37   0.13   0.03     0.02  -0.06   0.02
  12  15     0.02  -0.02  -0.03    -0.01  -0.00   0.03     0.08  -0.02  -0.01
  13  16    -0.01   0.03   0.00     0.06  -0.11  -0.03    -0.00   0.07  -0.02
  14   8     0.01   0.01   0.01    -0.02  -0.03   0.19     0.07   0.01  -0.02
  15   6     0.00   0.00   0.01     0.04   0.02   0.12    -0.00  -0.02  -0.01
  16   6    -0.00   0.03   0.00    -0.03   0.15   0.09     0.00  -0.01  -0.01
  17   8    -0.04  -0.01  -0.05     0.35  -0.02  -0.01    -0.09  -0.01   0.01
  18   6    -0.02  -0.03  -0.04     0.09  -0.04   0.00    -0.06  -0.01   0.01
  19   6    -0.00  -0.03  -0.02    -0.01  -0.05  -0.08    -0.00   0.00   0.01
  20   1     0.11   0.01  -0.02    -0.02   0.02  -0.04    -0.39   0.13  -0.18
  21   1    -0.11   0.01  -0.22    -0.01   0.02  -0.02     0.15   0.11   0.32
  22   1    -0.16   0.08   0.08    -0.02  -0.03  -0.02     0.23  -0.26  -0.32
  23   1    -0.01   0.02  -0.01     0.03   0.00   0.03    -0.03   0.02   0.05
  24   1     0.05   0.02   0.04     0.03   0.00   0.02    -0.01   0.07   0.03
  25   1     0.04   0.06   0.04     0.03   0.01   0.01     0.04   0.03   0.03
  26   1    -0.07   0.04  -0.01     0.02   0.01   0.01    -0.01   0.02   0.00
  27   1    -0.06  -0.05  -0.02    -0.04  -0.03  -0.08    -0.09  -0.07  -0.10
  28   1     0.07  -0.04   0.05     0.02  -0.02  -0.04     0.08  -0.05   0.03
  29   1    -0.01   0.09   0.01    -0.05   0.04  -0.01    -0.06   0.12   0.01
  30   1     0.02   0.03   0.18    -0.10  -0.01  -0.12     0.00   0.02   0.02
  31   1    -0.08  -0.07   0.11    -0.02   0.08  -0.07     0.00   0.00   0.01
  32   1    -0.00   0.00   0.00     0.03  -0.01   0.03    -0.01   0.00  -0.01
  33   1    -0.00  -0.00   0.01     0.02   0.02   0.02    -0.00  -0.02   0.00
  34   1    -0.02   0.00   0.00     0.00   0.05  -0.03    -0.04  -0.02   0.01
  35   1     0.01   0.00   0.00    -0.04   0.08   0.04     0.04  -0.03  -0.00
  36   1     0.00   0.02  -0.00    -0.01   0.03   0.06     0.00   0.04  -0.02
  37   1    -0.01  -0.01  -0.02     0.01  -0.01   0.05    -0.02  -0.01  -0.00
  38   1    -0.01  -0.01  -0.01     0.00  -0.01  -0.03    -0.02   0.00   0.01
  39   1    -0.00  -0.01  -0.01    -0.25  -0.06   0.00     0.15   0.05  -0.02
  40   1     0.00  -0.00  -0.01     0.07   0.02  -0.25    -0.05  -0.02   0.14
  41   1     0.00  -0.01  -0.00     0.13  -0.00   0.16    -0.08  -0.01  -0.12
                     25                     26                     27
                        a                      a                      a 
 Frequencies --   214.8081               233.6688               245.6928
 Red. masses --     6.8517                 7.6477                10.3675
 Frc consts  --     0.0000                 0.0000                 0.0000
 IR Inten    --     1.3305                 5.7151                 3.8618
 Raman Activ --     0.0000                 0.0000                 0.0000
 Depolar     --     0.0000                 0.0000                 0.0000
 Atom AN      X      Y      Z        X      Y      Z        X      Y      Z
   1   6     0.00  -0.00  -0.01     0.00   0.00  -0.00     0.01  -0.03   0.05
   2   6    -0.10   0.05   0.01    -0.05   0.02  -0.00     0.14  -0.07   0.05
   3   8    -0.10  -0.06  -0.04    -0.03  -0.05  -0.05     0.10   0.15   0.16
   4  15     0.06  -0.01  -0.06     0.06   0.01  -0.08    -0.13   0.03   0.25
   5  16    -0.07  -0.02   0.05    -0.03  -0.01   0.04     0.03   0.11  -0.11
   6   8    -0.03  -0.05   0.03    -0.01  -0.02   0.02    -0.07  -0.09  -0.07
   7   6    -0.03  -0.01   0.04    -0.01  -0.01   0.03     0.00  -0.04  -0.15
   8   6     0.01   0.00   0.07     0.02   0.00   0.06    -0.07   0.00  -0.21
   9  16     0.13   0.11  -0.05     0.10   0.05  -0.02    -0.17  -0.05   0.05
  10   6     0.12  -0.04   0.13    -0.04  -0.02   0.00     0.09   0.02   0.04
  11  16     0.18  -0.01   0.03    -0.09   0.07  -0.16     0.19  -0.07   0.01
  12  15    -0.15   0.03   0.03    -0.10   0.14  -0.05     0.03   0.02   0.00
  13  16    -0.03  -0.13   0.02     0.16  -0.09  -0.00     0.03   0.02  -0.02
  14   8    -0.12  -0.00  -0.07    -0.18  -0.17   0.15    -0.00  -0.07   0.02
  15   6    -0.02   0.02  -0.06    -0.03  -0.10   0.05    -0.00  -0.08  -0.06
  16   6     0.03  -0.09  -0.03     0.04  -0.05   0.01     0.03  -0.12  -0.06
  17   8    -0.07   0.09  -0.10     0.21   0.08  -0.00    -0.18   0.09  -0.08
  18   6     0.14   0.11  -0.11    -0.08   0.03   0.04    -0.04   0.09  -0.07
  19   6    -0.00   0.03   0.08     0.00   0.05   0.07     0.01   0.06   0.13
  20   1    -0.15   0.04  -0.05    -0.05   0.01  -0.02     0.13  -0.04   0.06
  21   1     0.07   0.03   0.16     0.02   0.01   0.06    -0.06  -0.03  -0.12
  22   1     0.11  -0.09  -0.13     0.04  -0.03  -0.04    -0.09   0.06   0.12
  23   1    -0.05   0.01   0.00    -0.03   0.01  -0.00     0.09  -0.03   0.02
  24   1    -0.02   0.04   0.01    -0.01   0.02   0.01     0.02  -0.05  -0.01
  25   1    -0.00   0.00   0.01    -0.00  -0.00   0.01     0.01  -0.00  -0.03
  26   1    -0.02   0.00   0.00    -0.00  -0.00   0.01    -0.01  -0.01  -0.05
  27   1     0.00  -0.00   0.03     0.01   0.01   0.03    -0.22  -0.18  -0.27
  28   1     0.01  -0.00   0.03    -0.00   0.00   0.02     0.22  -0.12   0.10
  29   1     0.02   0.01   0.01     0.02  -0.01   0.01    -0.10   0.34  -0.03
  30   1     0.06   0.00   0.09     0.01  -0.00   0.03     0.03   0.00   0.01
  31   1     0.00  -0.06   0.04    -0.04  -0.03   0.01     0.03   0.01   0.01
  32   1     0.01  -0.00  -0.01     0.03  -0.06   0.01     0.01  -0.03  -0.02
  33   1    -0.00   0.03  -0.02    -0.01   0.02   0.00     0.00  -0.01  -0.02
  34   1     0.09   0.01  -0.01     0.41   0.16  -0.15     0.13   0.02  -0.04
  35   1    -0.06   0.01  -0.02    -0.33   0.25   0.01    -0.09   0.03  -0.02
  36   1     0.01  -0.12   0.01     0.00  -0.42   0.13     0.01  -0.16   0.02
  37   1     0.05   0.05  -0.07    -0.04  -0.02   0.06    -0.00   0.02  -0.05
  38   1     0.08   0.01  -0.02    -0.06   0.01  -0.03     0.00   0.02  -0.01
  39   1    -0.41  -0.16   0.08     0.16   0.05   0.00    -0.01  -0.04   0.05
  40   1     0.12   0.10  -0.34    -0.05  -0.00   0.17     0.01   0.05   0.03
  41   1     0.22   0.07   0.38    -0.08   0.00  -0.10     0.02   0.04   0.09
                     28                     29                     30
                        a                      a                      a 
 Frequencies --   253.3007               289.2944               297.9544
 Red. masses --    12.0982                12.5765                12.0111
 Frc consts  --     0.0000                 0.0000                 0.0000
 IR Inten    --     5.6604                11.0329                12.1116
 Raman Activ --     0.0000                 0.0000                 0.0000
 Depolar     --     0.0000                 0.0000                 0.0000
 Atom AN      X      Y      Z        X      Y      Z        X      Y      Z
   1   6     0.05  -0.06   0.10     0.00   0.00   0.00     0.04  -0.10   0.15
   2   6    -0.09  -0.04   0.05    -0.05   0.01  -0.03     0.04  -0.02   0.26
   3   8    -0.06  -0.11  -0.03    -0.04  -0.08  -0.07     0.29   0.11   0.06
   4  15     0.12   0.15  -0.14     0.09   0.04  -0.14    -0.05   0.02   0.06
   5  16    -0.08   0.17   0.10     0.00   0.03   0.06    -0.04   0.03  -0.04
   6   8    -0.17  -0.14  -0.00     0.03   0.04   0.00    -0.28  -0.26  -0.01
   7   6    -0.09  -0.13  -0.04    -0.00  -0.06   0.06    -0.11   0.17  -0.23
   8   6    -0.01   0.01   0.04     0.02  -0.00   0.09    -0.05   0.00  -0.23
   9  16     0.32  -0.01  -0.08     0.08  -0.06  -0.01     0.08   0.05   0.01
  10   6    -0.05  -0.08  -0.06    -0.14  -0.01  -0.11     0.05  -0.02   0.05
  11  16    -0.09   0.08  -0.07    -0.25   0.14  -0.01     0.08  -0.00  -0.16
  12  15    -0.08  -0.00  -0.01     0.10  -0.03   0.04    -0.16   0.07  -0.02
  13  16    -0.02  -0.04   0.04     0.05  -0.02  -0.02     0.02  -0.13   0.04
  14   8    -0.04   0.07  -0.02     0.02  -0.25   0.29    -0.16  -0.06   0.10
  15   6    -0.01   0.09   0.06     0.22  -0.17  -0.10     0.08   0.03  -0.04
  16   6    -0.02   0.11   0.06     0.03  -0.13  -0.08     0.01  -0.01  -0.01
  17   8     0.20  -0.10   0.11    -0.10   0.14  -0.16     0.21   0.05  -0.03
  18   6     0.06  -0.08   0.10    -0.12   0.21  -0.12    -0.03   0.04   0.01
  19   6    -0.01  -0.05  -0.14     0.00   0.17   0.31    -0.00   0.04   0.06
  20   1    -0.03  -0.01   0.02    -0.02   0.00  -0.00    -0.03  -0.00   0.01
  21   1     0.04  -0.03   0.10     0.01   0.00   0.03     0.03  -0.04   0.09
  22   1     0.07  -0.02  -0.02     0.02  -0.00  -0.02     0.05  -0.07   0.00
  23   1    -0.06  -0.01   0.01    -0.03   0.01  -0.01    -0.04  -0.02   0.09
  24   1    -0.02   0.01   0.03    -0.01   0.01   0.00     0.04   0.02   0.13
  25   1    -0.03  -0.04  -0.01    -0.02  -0.04   0.01     0.04   0.12  -0.06
  26   1    -0.02  -0.04  -0.03     0.02  -0.03   0.02    -0.13   0.09  -0.11
  27   1    -0.21  -0.18  -0.18    -0.02  -0.03  -0.00     0.07   0.08   0.05
  28   1     0.25  -0.13   0.23     0.04  -0.02   0.07    -0.12   0.05  -0.19
  29   1    -0.03   0.38   0.00     0.01   0.06   0.02     0.00  -0.19  -0.06
  30   1    -0.01  -0.02  -0.00    -0.05  -0.01  -0.06     0.04   0.00   0.05
  31   1    -0.03  -0.03  -0.01    -0.02   0.03  -0.04    -0.02  -0.04   0.02
  32   1    -0.00   0.03   0.02     0.14  -0.10  -0.02     0.08  -0.02   0.00
  33   1    -0.00   0.03   0.02     0.08   0.00  -0.09     0.03   0.06  -0.05
  34   1    -0.10  -0.01   0.04    -0.17  -0.12   0.03    -0.12  -0.06   0.05
  35   1     0.07  -0.02   0.02     0.14  -0.15  -0.04     0.10  -0.09  -0.02
  36   1    -0.01   0.13  -0.01     0.01   0.14  -0.05     0.00   0.12  -0.03
  37   1     0.01  -0.01   0.06    -0.04   0.04  -0.04    -0.02  -0.00   0.04
  38   1     0.00  -0.02   0.02    -0.04   0.06  -0.05    -0.03   0.01  -0.03
  39   1    -0.00   0.05  -0.05     0.06  -0.07   0.10     0.05   0.01   0.01
  40   1    -0.00  -0.05  -0.05    -0.01   0.10   0.16    -0.01   0.01   0.07
  41   1    -0.01  -0.04  -0.08    -0.01   0.09   0.13    -0.02   0.01  -0.01
                     31                     32                     33
                        a                      a                      a 
 Frequencies --   305.8823               316.3703               354.2215
 Red. masses --    16.3494                20.6810                19.2931
 Frc consts  --     0.0000                 0.0000                 0.0000
 IR Inten    --    13.0003                 3.9679                11.4230
 Raman Activ --     0.0000                 0.0000                 0.0000
 Depolar     --     0.0000                 0.0000                 0.0000
 Atom AN      X      Y      Z        X      Y      Z        X      Y      Z
   1   6     0.03  -0.07   0.11     0.02  -0.04   0.07    -0.03   0.07  -0.12
   2   6    -0.02  -0.01   0.17    -0.02  -0.01   0.09     0.01  -0.01  -0.20
   3   8     0.19  -0.01  -0.04     0.12  -0.02  -0.05    -0.41   0.01   0.21
   4  15     0.06   0.07  -0.11     0.05   0.05  -0.11     0.22  -0.05   0.37
   5  16    -0.02   0.06   0.03    -0.00   0.05   0.03    -0.10   0.11  -0.05
   6   8    -0.17  -0.13  -0.01    -0.08  -0.03  -0.01    -0.03  -0.38   0.09
   7   6    -0.08   0.06  -0.11    -0.04   0.01  -0.04     0.01   0.11  -0.03
   8   6    -0.01   0.00  -0.08    -0.00   0.00  -0.02    -0.04   0.00  -0.08
   9  16     0.12  -0.06   0.01     0.06  -0.09  -0.01     0.33   0.05  -0.19
  10   6    -0.13  -0.01  -0.11    -0.03  -0.01  -0.04    -0.06  -0.06  -0.08
  11  16    -0.22   0.07   0.01    -0.04   0.02   0.60    -0.09   0.07   0.08
  12  15     0.29  -0.14  -0.04     0.05  -0.01   0.18     0.04  -0.03   0.03
  13  16     0.02   0.24  -0.04    -0.08  -0.05  -0.10    -0.02   0.00  -0.00
  14   8     0.26  -0.01  -0.02     0.07   0.12  -0.17     0.04   0.00  -0.02
  15   6    -0.04  -0.13   0.05    -0.09   0.05   0.01     0.00  -0.01   0.01
  16   6    -0.01  -0.00  -0.01    -0.01   0.00   0.00    -0.00   0.01   0.00
  17   8    -0.42  -0.14   0.17     0.12   0.19  -0.36    -0.01   0.01  -0.04
  18   6     0.06   0.03   0.10    -0.13  -0.08  -0.31    -0.01   0.01  -0.03
  19   6    -0.01   0.04  -0.02     0.02  -0.13  -0.02     0.00   0.00   0.02
  20   1    -0.04  -0.00   0.01    -0.02  -0.00   0.01     0.05  -0.01  -0.00
  21   1     0.04  -0.03   0.10     0.02  -0.02   0.06    -0.04   0.03  -0.11
  22   1     0.06  -0.05  -0.02     0.04  -0.03  -0.01    -0.06   0.06   0.03
  23   1    -0.07  -0.01   0.05    -0.05  -0.00   0.03     0.13  -0.01  -0.06
  24   1     0.02   0.03   0.10     0.01   0.02   0.06    -0.05  -0.06  -0.17
  25   1     0.01   0.05  -0.03    -0.01   0.01  -0.01     0.07   0.11   0.03
  26   1    -0.06   0.03  -0.06    -0.02   0.00  -0.02    -0.09   0.07  -0.06
  27   1     0.03   0.03   0.03     0.00   0.00   0.01     0.03   0.04   0.02
  28   1    -0.05   0.02  -0.07    -0.00   0.00  -0.01    -0.06   0.03  -0.11
  29   1     0.02  -0.08  -0.03     0.01  -0.01  -0.01    -0.03  -0.10  -0.01
  30   1    -0.06  -0.01  -0.06    -0.06  -0.01  -0.07    -0.03  -0.01  -0.02
  31   1    -0.01   0.03  -0.04     0.07   0.04  -0.03    -0.00  -0.01  -0.03
  32   1    -0.07  -0.01  -0.00    -0.07   0.05  -0.00    -0.01   0.00   0.00
  33   1    -0.02  -0.10   0.05    -0.03  -0.02   0.03    -0.00  -0.01   0.01
  34   1     0.13   0.06  -0.08     0.07   0.03  -0.01     0.01   0.01  -0.01
  35   1    -0.11   0.11   0.02    -0.05   0.04   0.00    -0.01   0.01   0.01
  36   1    -0.01  -0.13   0.04     0.00  -0.07   0.01    -0.00  -0.01   0.01
  37   1     0.04   0.05  -0.05    -0.06  -0.08  -0.04    -0.00   0.00  -0.01
  38   1     0.07   0.01   0.10    -0.09  -0.03  -0.15    -0.01   0.00  -0.01
  39   1    -0.10   0.01   0.00     0.10  -0.08  -0.01     0.01  -0.01   0.01
  40   1     0.03   0.01  -0.10    -0.02  -0.01   0.08    -0.00   0.01   0.01
  41   1     0.04   0.01   0.05    -0.02  -0.03  -0.03    -0.00   0.01   0.01
                     34                     35                     36
                        a                      a                      a 
 Frequencies --   368.3466               426.7209               437.2014
 Red. masses --    16.4663                15.8495                25.2861
 Frc consts  --     0.0000                 0.0000                 0.0000
 IR Inten    --    11.1565                56.8269                80.2199
 Raman Activ --     0.0000                 0.0000                 0.0000
 Depolar     --     0.0000                 0.0000                 0.0000
 Atom AN      X      Y      Z        X      Y      Z        X      Y      Z
   1   6     0.00   0.00  -0.00     0.11  -0.16   0.22    -0.06   0.07  -0.10
   2   6    -0.01   0.00  -0.00    -0.19  -0.16  -0.06     0.16   0.09   0.11
   3   8    -0.02   0.00   0.00    -0.01   0.57  -0.05     0.06  -0.18   0.12
   4  15     0.02   0.00   0.01    -0.18  -0.08   0.09    -0.49  -0.04   0.13
   5  16    -0.01   0.01   0.00    -0.02  -0.24  -0.12     0.02  -0.32  -0.04
   6   8    -0.00  -0.02   0.00     0.16   0.05  -0.25    -0.11   0.30   0.09
   7   6    -0.00   0.00   0.00    -0.16  -0.02   0.01     0.07  -0.02  -0.02
   8   6    -0.00   0.00   0.00     0.03   0.02   0.18    -0.01  -0.01  -0.10
   9  16     0.03  -0.00  -0.01     0.24   0.10  -0.10     0.50   0.15  -0.17
  10   6    -0.03   0.00  -0.01    -0.03   0.02   0.01    -0.05   0.01  -0.01
  11  16    -0.03  -0.05   0.16    -0.05   0.02   0.04    -0.07   0.04   0.07
  12  15    -0.06   0.39   0.11     0.00  -0.01  -0.01     0.00  -0.01  -0.01
  13  16     0.24   0.12  -0.12     0.01   0.01  -0.01     0.02   0.02  -0.02
  14   8    -0.14  -0.06   0.35     0.00  -0.01  -0.01     0.00  -0.02  -0.01
  15   6     0.02  -0.01  -0.17     0.01  -0.01   0.01     0.01  -0.02   0.01
  16   6     0.05  -0.23  -0.12    -0.00   0.01   0.01    -0.00   0.01   0.00
  17   8    -0.23   0.18   0.09    -0.01  -0.01  -0.00    -0.02  -0.00  -0.01
  18   6     0.06  -0.24   0.05    -0.00   0.01  -0.01    -0.01   0.00  -0.01
  19   6     0.01  -0.22  -0.30     0.00   0.00   0.00    -0.00  -0.00   0.00
  20   1     0.00   0.00  -0.00     0.09  -0.11   0.15    -0.05   0.07  -0.08
  21   1     0.00  -0.00   0.00     0.05  -0.12   0.12    -0.03   0.06  -0.07
  22   1     0.00   0.00  -0.00     0.10   0.11   0.04    -0.07  -0.08  -0.01
  23   1    -0.00   0.00  -0.00     0.03  -0.07   0.01     0.01   0.03   0.03
  24   1    -0.00  -0.00  -0.00    -0.07  -0.09  -0.05     0.05   0.05   0.04
  25   1     0.00   0.00   0.00    -0.04   0.00   0.02    -0.03  -0.06  -0.05
  26   1    -0.01   0.00  -0.00    -0.05  -0.00   0.02     0.09  -0.03   0.02
  27   1     0.00   0.00   0.00     0.02   0.01   0.12    -0.02  -0.02  -0.08
  28   1    -0.00   0.00  -0.00     0.01   0.00   0.12     0.02  -0.02  -0.03
  29   1     0.00  -0.00   0.00     0.10   0.02  -0.01    -0.04   0.03  -0.00
  30   1    -0.03  -0.00  -0.02    -0.01   0.01   0.02    -0.02   0.02   0.02
  31   1     0.02   0.02  -0.01    -0.01  -0.01  -0.00    -0.01  -0.02  -0.00
  32   1     0.07  -0.06  -0.04     0.00  -0.00   0.00     0.01  -0.01   0.00
  33   1     0.01   0.05  -0.09     0.00  -0.00   0.00     0.00  -0.00   0.00
  34   1     0.00  -0.08   0.07    -0.00   0.00  -0.01    -0.00   0.00  -0.01
  35   1     0.05  -0.14  -0.08    -0.00   0.01   0.01    -0.00   0.01   0.01
  36   1     0.02  -0.07  -0.06    -0.00   0.01   0.00    -0.00   0.01   0.01
  37   1     0.03  -0.07  -0.03    -0.00   0.00  -0.00    -0.00   0.00  -0.01
  38   1     0.03  -0.08   0.02    -0.00   0.00  -0.00    -0.00  -0.00  -0.00
  39   1    -0.06   0.06  -0.10     0.00  -0.00   0.00     0.00  -0.00   0.00
  40   1     0.02  -0.11  -0.17     0.00   0.00  -0.00    -0.00   0.00   0.00
  41   1     0.02  -0.11  -0.14     0.00   0.00   0.00    -0.00   0.00  -0.00
                     37                     38                     39
                        a                      a                      a 
 Frequencies --   455.2776               464.2528               491.8216
 Red. masses --    20.6359                11.7249                20.3443
 Frc consts  --     0.0000                 0.0000                 0.0000
 IR Inten    --    28.5282                25.0013               122.9971
 Raman Activ --     0.0000                 0.0000                 0.0000
 Depolar     --     0.0000                 0.0000                 0.0000
 Atom AN      X      Y      Z        X      Y      Z        X      Y      Z
   1   6    -0.00   0.01  -0.01    -0.05   0.06  -0.09     0.00  -0.00   0.00
   2   6     0.00   0.00  -0.00     0.22   0.08   0.15    -0.01  -0.00  -0.01
   3   8    -0.00  -0.02  -0.00     0.02  -0.26   0.18    -0.00  -0.00  -0.01
   4  15     0.03   0.00  -0.01    -0.03   0.00   0.12     0.00  -0.00  -0.00
   5  16    -0.00   0.04   0.01     0.02   0.10   0.01    -0.00   0.01   0.00
   6   8     0.01  -0.03  -0.01     0.20  -0.06  -0.52     0.00  -0.01   0.01
   7   6    -0.01   0.00  -0.00    -0.40  -0.03  -0.13     0.00  -0.00   0.00
   8   6    -0.00   0.00   0.00     0.04   0.03   0.24    -0.00   0.00  -0.00
   9  16    -0.02  -0.03  -0.00    -0.02  -0.00  -0.03     0.01  -0.01  -0.01
  10   6     0.01  -0.00   0.04    -0.00  -0.01  -0.01    -0.03  -0.00   0.03
  11  16     0.06  -0.12   0.37     0.01   0.00  -0.00     0.02  -0.04   0.29
  12  15    -0.19   0.06  -0.35     0.00  -0.00   0.01    -0.12  -0.22  -0.50
  13  16     0.27   0.21  -0.14    -0.00  -0.00   0.00     0.12   0.13  -0.03
  14   8    -0.29  -0.31  -0.26     0.01   0.01   0.01    -0.01   0.22   0.37
  15   6     0.17  -0.17   0.17    -0.00   0.01  -0.01    -0.19   0.25  -0.14
  16   6    -0.02   0.21   0.11     0.00  -0.01  -0.00     0.01  -0.13  -0.07
  17   8    -0.08  -0.07   0.06     0.00  -0.00  -0.00     0.14  -0.29   0.04
  18   6     0.00   0.02   0.04    -0.00  -0.00  -0.00     0.00   0.08   0.00
  19   6    -0.00   0.04   0.02    -0.00  -0.00  -0.00    -0.01   0.11   0.09
  20   1    -0.00   0.00  -0.00    -0.05   0.07  -0.09     0.00  -0.00   0.00
  21   1    -0.00   0.00  -0.00    -0.03   0.07  -0.09     0.00  -0.00   0.00
  22   1    -0.00  -0.00  -0.00    -0.08  -0.10   0.00     0.00   0.00  -0.00
  23   1    -0.00   0.00  -0.00     0.03   0.03   0.03    -0.00  -0.00  -0.00
  24   1     0.00   0.00   0.00     0.06   0.04   0.04    -0.00  -0.00   0.00
  25   1     0.00   0.01   0.00    -0.06   0.04   0.01     0.00   0.00   0.00
  26   1    -0.01   0.00  -0.00    -0.16   0.01  -0.02    -0.00   0.00  -0.00
  27   1     0.00   0.00   0.00     0.03   0.02   0.22    -0.00   0.00  -0.00
  28   1    -0.00   0.00   0.00     0.00   0.01   0.21    -0.00   0.00  -0.00
  29   1     0.00  -0.00  -0.00     0.20   0.02  -0.07    -0.00  -0.00   0.00
  30   1    -0.03  -0.00  -0.02    -0.00  -0.00  -0.00    -0.04  -0.01  -0.03
  31   1     0.05   0.02  -0.00     0.00  -0.00  -0.00     0.04   0.03  -0.01
  32   1     0.12  -0.07   0.07    -0.00   0.00  -0.00    -0.07   0.05  -0.06
  33   1     0.06   0.05   0.01    -0.00  -0.00  -0.00    -0.06   0.03  -0.02
  34   1    -0.10   0.04  -0.12     0.00  -0.00   0.00     0.07  -0.03   0.15
  35   1     0.01   0.12   0.09    -0.00  -0.00  -0.00     0.01  -0.12  -0.08
  36   1    -0.02   0.18   0.08     0.00  -0.01  -0.00     0.01  -0.14  -0.07
  37   1     0.01   0.02  -0.01    -0.00   0.00   0.00    -0.00   0.05   0.02
  38   1     0.02   0.01   0.03     0.00  -0.00  -0.00     0.01   0.03   0.02
  39   1    -0.01   0.01   0.01     0.00   0.00  -0.00     0.01  -0.02   0.03
  40   1     0.00   0.01   0.00    -0.00   0.00   0.00    -0.01   0.05   0.05
  41   1     0.00   0.01   0.01    -0.00  -0.00  -0.00    -0.01   0.05   0.05
                     40                     41                     42
                        a                      a                      a 
 Frequencies --   612.5721               623.4146               683.3997
 Red. masses --    26.2315                26.6059                18.1638
 Frc consts  --     0.0000                 0.0000                 0.0000
 IR Inten    --   196.7808               137.9836                22.8129
 Raman Activ --     0.0000                 0.0000                 0.0000
 Depolar     --     0.0000                 0.0000                 0.0000
 Atom AN      X      Y      Z        X      Y      Z        X      Y      Z
   1   6    -0.01   0.01  -0.01    -0.00  -0.00   0.00    -0.00   0.01  -0.00
   2   6    -0.10  -0.02  -0.11     0.01  -0.00   0.00    -0.02  -0.00  -0.02
   3   8     0.17  -0.10  -0.27    -0.01   0.01   0.00     0.05  -0.01  -0.04
   4  15    -0.41  -0.42   0.10     0.01   0.00   0.00    -0.12  -0.12   0.01
   5  16     0.11   0.56   0.10    -0.00  -0.01  -0.00     0.03   0.09   0.01
   6   8     0.17  -0.19  -0.01    -0.01   0.01  -0.00     0.05  -0.04  -0.02
   7   6     0.11  -0.00   0.09    -0.00   0.00  -0.00     0.03   0.00   0.03
   8   6    -0.00  -0.00   0.03     0.00  -0.00  -0.00     0.00   0.00   0.01
   9  16     0.11  -0.05  -0.08    -0.02   0.02   0.02    -0.07   0.45   0.26
  10   6    -0.01   0.16   0.09     0.08  -0.02  -0.04    -0.08  -0.62  -0.43
  11  16    -0.04   0.00  -0.01    -0.04   0.04  -0.14     0.14   0.02   0.05
  12  15     0.00  -0.01   0.03    -0.06  -0.34   0.54    -0.06   0.01  -0.01
  13  16     0.00   0.00  -0.01     0.34   0.34  -0.26     0.01   0.01  -0.01
  14   8     0.00   0.00  -0.00    -0.30  -0.02  -0.05     0.06   0.01   0.00
  15   6    -0.00   0.00  -0.00    -0.11   0.16  -0.02     0.02  -0.03   0.01
  16   6     0.00  -0.00  -0.00    -0.00   0.03   0.03     0.00  -0.01  -0.01
  17   8    -0.00  -0.01  -0.00     0.02  -0.25  -0.04    -0.00   0.01   0.01
  18   6    -0.00   0.00  -0.01    -0.04   0.02  -0.13    -0.00  -0.00  -0.01
  19   6     0.00  -0.00  -0.00     0.00  -0.00   0.00    -0.00  -0.00  -0.00
  20   1    -0.00  -0.02   0.03    -0.00  -0.00   0.00     0.00  -0.00   0.01
  21   1     0.01  -0.01   0.04    -0.00   0.00  -0.00     0.00   0.00   0.01
  22   1     0.04   0.05  -0.02    -0.00  -0.00   0.00     0.01   0.01  -0.00
  23   1    -0.10   0.01  -0.04     0.00  -0.00   0.00    -0.02   0.00  -0.01
  24   1     0.01   0.03   0.03    -0.00   0.00  -0.00     0.00   0.01   0.01
  25   1     0.06   0.03   0.05    -0.00  -0.00  -0.00     0.01   0.01   0.01
  26   1    -0.01   0.01   0.00     0.00  -0.00   0.00     0.00   0.00   0.00
  27   1     0.01   0.01  -0.02    -0.00  -0.00  -0.00    -0.00   0.00  -0.00
  28   1    -0.01   0.00  -0.01     0.00  -0.00   0.00     0.00  -0.00  -0.00
  29   1    -0.03  -0.01   0.03     0.00   0.00  -0.00    -0.01   0.00   0.01
  30   1     0.02   0.04   0.03     0.04   0.00   0.02    -0.02  -0.14  -0.06
  31   1    -0.01   0.01   0.02    -0.02  -0.03   0.00    -0.05  -0.15  -0.10
  32   1    -0.00   0.00  -0.00     0.02   0.02   0.00    -0.01  -0.00  -0.00
  33   1    -0.00   0.00   0.00    -0.03   0.10  -0.02     0.01  -0.02   0.01
  34   1     0.00   0.00  -0.00     0.02   0.01   0.07    -0.00  -0.00  -0.01
  35   1    -0.00   0.00   0.00     0.01  -0.02  -0.01    -0.00   0.00   0.00
  36   1     0.00  -0.00  -0.00     0.01  -0.02  -0.02    -0.00   0.00   0.01
  37   1    -0.00  -0.00  -0.00    -0.01   0.02  -0.03    -0.00  -0.00   0.00
  38   1    -0.00  -0.00  -0.00    -0.00   0.02  -0.00    -0.00   0.00  -0.00
  39   1     0.00  -0.00  -0.00     0.03  -0.07   0.01    -0.00   0.00  -0.00
  40   1    -0.00   0.00   0.00    -0.00   0.03   0.04     0.00  -0.00  -0.00
  41   1    -0.00   0.00  -0.00     0.00   0.03   0.04    -0.00   0.00  -0.00
                     43                     44                     45
                        a                      a                      a 
 Frequencies --   715.4123               730.2554               739.3204
 Red. masses --    16.8600                19.2013                20.9166
 Frc consts  --     0.0000                 0.0000                 0.0000
 IR Inten    --    49.2440               136.6489               234.7397
 Raman Activ --     0.0000                 0.0000                 0.0000
 Depolar     --     0.0000                 0.0000                 0.0000
 Atom AN      X      Y      Z        X      Y      Z        X      Y      Z
   1   6    -0.00   0.00  -0.00    -0.02   0.05  -0.06     0.00  -0.00  -0.00
   2   6    -0.01  -0.01  -0.02    -0.17  -0.05  -0.21    -0.00  -0.00  -0.01
   3   8     0.02  -0.02  -0.03     0.19  -0.17  -0.28    -0.00  -0.00  -0.01
   4  15     0.03   0.06   0.02     0.30  -0.14   0.52     0.02   0.01   0.02
   5  16    -0.00  -0.03  -0.01    -0.01  -0.01  -0.01    -0.01  -0.01  -0.00
   6   8     0.01  -0.01  -0.00    -0.21   0.36   0.05    -0.01   0.01   0.00
   7   6     0.00  -0.00  -0.00    -0.24   0.02  -0.17    -0.01  -0.00  -0.01
   8   6     0.00   0.00   0.00    -0.00   0.00  -0.09    -0.00  -0.00  -0.00
   9  16     0.02  -0.07  -0.03    -0.01   0.02   0.01    -0.01  -0.02  -0.01
  10   6    -0.79   0.11   0.08     0.02  -0.02  -0.01     0.17   0.03   0.03
  11  16     0.49   0.02  -0.03    -0.01  -0.00   0.01    -0.10  -0.00  -0.02
  12  15    -0.12  -0.00   0.10     0.02   0.00  -0.01    -0.61   0.13   0.14
  13  16     0.04   0.04  -0.03    -0.01  -0.01   0.00     0.12   0.11  -0.08
  14   8     0.08   0.01  -0.01    -0.02  -0.01  -0.00     0.50   0.14   0.05
  15   6     0.03  -0.02   0.00    -0.01   0.01  -0.00     0.19  -0.21   0.03
  16   6    -0.00  -0.01  -0.01    -0.00   0.00   0.00     0.01  -0.08  -0.07
  17   8     0.01  -0.05   0.00    -0.00   0.01  -0.00     0.06  -0.20   0.02
  18   6    -0.01   0.00  -0.04     0.00  -0.00   0.00    -0.03   0.01  -0.10
  19   6     0.00  -0.01  -0.01    -0.00   0.00   0.00    -0.00  -0.00  -0.02
  20   1    -0.00  -0.01   0.01    -0.00  -0.05   0.06    -0.00  -0.00   0.01
  21   1     0.00   0.00   0.00     0.02   0.00   0.05     0.00   0.01  -0.00
  22   1     0.00   0.01  -0.00     0.06   0.13  -0.04    -0.00   0.00   0.00
  23   1    -0.02  -0.00  -0.01    -0.15  -0.01  -0.06    -0.01  -0.00  -0.00
  24   1     0.00   0.01   0.00     0.01   0.04   0.03     0.00   0.01  -0.00
  25   1     0.00   0.00   0.00    -0.14  -0.07  -0.09    -0.00  -0.00  -0.00
  26   1    -0.00   0.00  -0.00     0.03  -0.03  -0.01    -0.00  -0.00  -0.00
  27   1     0.00   0.00   0.00    -0.01  -0.02   0.06     0.00   0.00   0.00
  28   1    -0.00   0.00  -0.00     0.03  -0.01   0.03    -0.00   0.00   0.00
  29   1     0.00  -0.00   0.00     0.10   0.01  -0.10     0.00   0.00  -0.00
  30   1    -0.13   0.02   0.06     0.00  -0.00  -0.00     0.03   0.01  -0.00
  31   1    -0.21  -0.03   0.02     0.00  -0.01  -0.00     0.03   0.01   0.01
  32   1    -0.01   0.00  -0.01     0.00  -0.00   0.00    -0.08   0.00  -0.03
  33   1     0.01  -0.03   0.01    -0.00   0.01  -0.00     0.04  -0.20   0.09
  34   1    -0.00  -0.00  -0.02     0.00   0.00   0.00    -0.04  -0.03  -0.12
  35   1    -0.01   0.00  -0.00     0.00  -0.00   0.00    -0.04   0.02  -0.01
  36   1    -0.00   0.00   0.01     0.00  -0.00  -0.00    -0.01   0.03   0.06
  37   1    -0.00   0.01  -0.01     0.00   0.00   0.00    -0.00   0.02  -0.03
  38   1     0.00   0.00  -0.00     0.00  -0.00   0.00     0.01   0.01   0.00
  39   1     0.01  -0.02   0.00     0.00   0.00  -0.00     0.03  -0.07   0.00
  40   1    -0.00   0.01   0.01     0.00   0.00  -0.00    -0.00   0.04   0.03
  41   1     0.00   0.01   0.01     0.00  -0.00  -0.00     0.01   0.02   0.03
                     46                     47                     48
                        a                      a                      a 
 Frequencies --   776.7091               780.3550               798.1043
 Red. masses --    21.2658                18.9961                 5.7004
 Frc consts  --     0.0000                 0.0000                 0.0000
 IR Inten    --   364.2872               227.2957                 6.5669
 Raman Activ --     0.0000                 0.0000                 0.0000
 Depolar     --     0.0000                 0.0000                 0.0000
 Atom AN      X      Y      Z        X      Y      Z        X      Y      Z
   1   6    -0.01   0.04  -0.05    -0.00   0.00   0.00     0.00   0.00  -0.01
   2   6    -0.10  -0.06  -0.17    -0.00   0.01   0.01    -0.00  -0.01  -0.02
   3   8     0.19  -0.20  -0.20    -0.00  -0.00   0.00     0.01  -0.02  -0.01
   4  15    -0.18   0.60   0.26    -0.00  -0.02  -0.01    -0.00   0.09   0.03
   5  16    -0.04  -0.23  -0.05     0.00   0.01   0.00    -0.01  -0.03  -0.01
   6   8     0.16  -0.29  -0.10    -0.00   0.00   0.00     0.01  -0.04  -0.01
   7   6     0.15  -0.05   0.09    -0.00   0.00  -0.00     0.02   0.00   0.01
   8   6    -0.01  -0.01   0.08     0.00   0.00  -0.00    -0.00   0.00   0.01
   9  16    -0.03  -0.01   0.00     0.00   0.01   0.01    -0.01  -0.09   0.08
  10   6     0.06  -0.05   0.03    -0.00  -0.01  -0.02     0.04   0.30  -0.42
  11  16    -0.02   0.01  -0.02    -0.01  -0.02   0.02    -0.05  -0.07   0.14
  12  15     0.02   0.01   0.00     0.23   0.53   0.04     0.02   0.00  -0.05
  13  16    -0.01  -0.01   0.00    -0.11  -0.11   0.08     0.00  -0.00   0.00
  14   8    -0.01  -0.01  -0.00    -0.08  -0.08  -0.01     0.01   0.02   0.02
  15   6    -0.01   0.01  -0.00    -0.04   0.05  -0.01     0.01  -0.02   0.00
  16   6     0.00   0.00   0.00     0.00   0.02   0.03     0.00  -0.00  -0.00
  17   8    -0.00  -0.01  -0.00     0.00  -0.58   0.13     0.00   0.01  -0.00
  18   6    -0.01  -0.00  -0.00    -0.11   0.03  -0.31     0.00  -0.00   0.01
  19   6    -0.00   0.00  -0.00    -0.00  -0.03  -0.10    -0.00   0.00   0.00
  20   1    -0.02  -0.06   0.07     0.01   0.01  -0.01    -0.01  -0.01   0.01
  21   1     0.02   0.05   0.03    -0.00  -0.02   0.00     0.00   0.01   0.00
  22   1     0.04   0.11  -0.03     0.00  -0.01  -0.01     0.00   0.01  -0.00
  23   1    -0.19  -0.03  -0.03     0.02   0.01  -0.01    -0.02  -0.01   0.00
  24   1     0.03   0.08   0.06    -0.01  -0.02  -0.00     0.01   0.01   0.01
  25   1     0.14   0.10   0.05    -0.00  -0.00   0.00     0.01   0.01   0.01
  26   1    -0.09   0.04   0.01     0.00  -0.00  -0.00    -0.00   0.00  -0.00
  27   1     0.03   0.03  -0.06    -0.00  -0.00   0.00    -0.00  -0.00   0.00
  28   1    -0.05   0.02   0.02     0.00  -0.00  -0.00     0.00  -0.00  -0.01
  29   1    -0.07   0.00   0.07     0.00  -0.00  -0.00    -0.01  -0.00   0.01
  30   1    -0.04  -0.02  -0.05     0.00  -0.00  -0.00     0.35   0.22   0.42
  31   1     0.05   0.06   0.00     0.01  -0.01  -0.01    -0.28  -0.50  -0.06
  32   1     0.00   0.00  -0.00     0.02   0.00   0.01    -0.00  -0.00  -0.00
  33   1    -0.00   0.01  -0.00    -0.01   0.04  -0.02     0.00  -0.00   0.00
  34   1     0.00   0.00   0.00     0.01   0.01   0.03    -0.00  -0.00  -0.01
  35   1     0.00  -0.00  -0.00     0.01   0.00   0.01    -0.00   0.00   0.00
  36   1     0.00  -0.00  -0.00     0.00  -0.00  -0.01    -0.00   0.00   0.00
  37   1     0.00   0.01  -0.00    -0.01   0.11  -0.09    -0.00   0.00   0.00
  38   1     0.01  -0.01   0.00     0.05   0.01   0.02     0.00  -0.00  -0.00
  39   1     0.00  -0.00  -0.00     0.09  -0.25   0.00    -0.00   0.00   0.00
  40   1     0.00   0.01   0.00    -0.01   0.13   0.10     0.00   0.00  -0.00
  41   1     0.00  -0.01  -0.00     0.03   0.05   0.10     0.00  -0.00  -0.00
                     49                     50                     51
                        a                      a                      a 
 Frequencies --   821.2946               821.2729               824.7512
 Red. masses --     2.8102                 2.7158                 2.8577
 Frc consts  --     0.0000                 0.0000                 0.0000
 IR Inten    --     4.6692                 5.2297                 7.4709
 Raman Activ --     0.0000                 0.0000                 0.0000
 Depolar     --     0.0000                 0.0000                 0.0000
 Atom AN      X      Y      Z        X      Y      Z        X      Y      Z
   1   6    -0.02   0.02   0.01     0.01  -0.01  -0.01    -0.04   0.05   0.02
   2   6    -0.05   0.04   0.03     0.03  -0.02  -0.02    -0.11   0.08   0.06
   3   8     0.02  -0.01   0.00    -0.02   0.01   0.01     0.09  -0.08  -0.06
   4  15     0.04  -0.07  -0.00    -0.01   0.01  -0.01    -0.03   0.09   0.06
   5  16     0.00   0.01   0.00    -0.00  -0.00  -0.00    -0.00  -0.02  -0.00
   6   8    -0.03   0.17   0.07     0.01  -0.05  -0.02     0.03  -0.07  -0.02
   7   6    -0.00  -0.24  -0.04     0.00   0.07   0.01    -0.00   0.08   0.01
   8   6     0.02  -0.11  -0.03    -0.01   0.03   0.01    -0.01   0.04   0.01
   9  16     0.00   0.00   0.00     0.00   0.00  -0.00    -0.01  -0.00   0.00
  10   6    -0.00   0.01  -0.01    -0.00  -0.00   0.00     0.01  -0.00  -0.00
  11  16     0.00  -0.00   0.00     0.00  -0.00   0.00    -0.00  -0.00  -0.00
  12  15     0.02   0.01   0.00     0.07   0.01   0.00     0.01   0.03   0.00
  13  16    -0.00  -0.00   0.00    -0.01  -0.01   0.01    -0.00  -0.00   0.00
  14   8    -0.05  -0.03   0.00    -0.15  -0.11   0.01    -0.01  -0.01  -0.00
  15   6     0.07   0.04  -0.03     0.20   0.13  -0.09     0.02   0.01  -0.01
  16   6     0.03   0.02  -0.01     0.10   0.06  -0.02     0.01   0.00  -0.00
  17   8    -0.02  -0.01   0.01    -0.01   0.01  -0.02    -0.06  -0.05   0.05
  18   6     0.03   0.01  -0.01    -0.02  -0.01   0.02     0.18   0.07  -0.07
  19   6     0.02   0.00  -0.01    -0.01  -0.00   0.01     0.08   0.02  -0.03
  20   1     0.06   0.06  -0.07    -0.04  -0.03   0.04     0.13   0.12  -0.14
  21   1    -0.01  -0.11   0.02     0.01   0.06  -0.01    -0.02  -0.23   0.04
  22   1     0.03  -0.01  -0.03    -0.02   0.01   0.02     0.06  -0.02  -0.07
  23   1     0.10   0.05  -0.05    -0.06  -0.03   0.03     0.18   0.12  -0.12
  24   1    -0.04  -0.11  -0.02     0.02   0.07   0.01    -0.08  -0.24  -0.03
  25   1     0.28   0.26  -0.20    -0.09  -0.08   0.06    -0.09  -0.08   0.07
  26   1    -0.38   0.11   0.17     0.11  -0.03  -0.05     0.12  -0.03  -0.06
  27   1     0.21   0.20  -0.28    -0.06  -0.06   0.08    -0.07  -0.06   0.09
  28   1    -0.26   0.11   0.27     0.08  -0.03  -0.08     0.08  -0.03  -0.09
  29   1    -0.02   0.14  -0.01     0.00  -0.04   0.00     0.01  -0.04   0.00
  30   1     0.01   0.01   0.01    -0.00  -0.00  -0.00     0.00   0.00   0.00
  31   1    -0.01  -0.02  -0.00     0.00   0.00  -0.00    -0.00  -0.00   0.00
  32   1    -0.11  -0.01  -0.10    -0.32  -0.02  -0.31    -0.03  -0.00  -0.03
  33   1    -0.01  -0.03   0.15    -0.04  -0.09   0.45    -0.00  -0.01   0.04
  34   1    -0.04  -0.02   0.02    -0.13  -0.05   0.06    -0.01  -0.00   0.00
  35   1    -0.08  -0.05  -0.10    -0.23  -0.16  -0.30    -0.02  -0.01  -0.02
  36   1    -0.02   0.02   0.14    -0.05   0.05   0.41    -0.00   0.01   0.04
  37   1    -0.01  -0.07   0.02     0.01   0.04  -0.02    -0.06  -0.36   0.11
  38   1    -0.05   0.05  -0.01     0.04  -0.04   0.01    -0.28   0.27  -0.05
  39   1    -0.02  -0.01   0.00     0.01   0.02  -0.00    -0.10  -0.08   0.01
  40   1    -0.01  -0.06  -0.00     0.01   0.04  -0.00    -0.04  -0.32  -0.00
  41   1    -0.04   0.05   0.01     0.03  -0.04  -0.01    -0.22   0.27   0.07
                     52                     53                     54
                        a                      a                      a 
 Frequencies --   829.7769               912.3896               919.5266
 Red. masses --     2.9286                13.2688                12.4028
 Frc consts  --     0.0000                 0.0000                 0.0000
 IR Inten    --     3.1121               425.5733               329.0825
 Raman Activ --     0.0000                 0.0000                 0.0000
 Depolar     --     0.0000                 0.0000                 0.0000
 Atom AN      X      Y      Z        X      Y      Z        X      Y      Z
   1   6    -0.07   0.07   0.03    -0.01   0.04  -0.04    -0.04   0.13  -0.15
   2   6    -0.15   0.11   0.09    -0.06  -0.01  -0.04    -0.21  -0.03  -0.12
   3   8     0.10  -0.10  -0.08     0.06  -0.02   0.10     0.19  -0.04   0.39
   4  15    -0.03   0.08   0.06    -0.03   0.02  -0.04    -0.11   0.05  -0.19
   5  16    -0.00  -0.02  -0.00    -0.00  -0.00  -0.00     0.00   0.00   0.00
   6   8     0.02  -0.04  -0.01     0.07  -0.02   0.08     0.32  -0.07   0.38
   7   6     0.00   0.03   0.00    -0.05  -0.01  -0.03    -0.24  -0.07  -0.12
   8   6    -0.00   0.02   0.00     0.00   0.00  -0.05     0.00   0.00  -0.25
   9  16    -0.00  -0.00   0.00    -0.00  -0.00  -0.00     0.00  -0.00  -0.00
  10   6     0.00   0.00  -0.00    -0.00   0.00   0.01    -0.00   0.00  -0.00
  11  16     0.00   0.00   0.00    -0.00  -0.00  -0.02    -0.00   0.00   0.00
  12  15    -0.02  -0.04   0.00     0.07  -0.21  -0.07    -0.02   0.05   0.02
  13  16     0.01   0.01  -0.01     0.00   0.01  -0.00     0.00   0.00  -0.00
  14   8     0.01   0.00   0.00    -0.20   0.31   0.04     0.06  -0.09  -0.01
  15   6     0.00   0.01  -0.00     0.09  -0.18   0.08    -0.03   0.05  -0.02
  16   6     0.00   0.00  -0.00     0.02  -0.13  -0.11    -0.00   0.04   0.03
  17   8     0.05   0.05  -0.06     0.06   0.29   0.52    -0.01  -0.06  -0.11
  18   6    -0.14  -0.05   0.08    -0.06   0.04  -0.33     0.01  -0.01   0.07
  19   6    -0.06  -0.01   0.04    -0.00  -0.11  -0.16    -0.00   0.02   0.04
  20   1     0.19   0.18  -0.20     0.01  -0.01   0.01     0.02  -0.04   0.06
  21   1    -0.04  -0.35   0.06     0.01  -0.01   0.02     0.02  -0.01   0.05
  22   1     0.08  -0.04  -0.09     0.03   0.06  -0.02     0.09   0.22  -0.08
  23   1     0.28   0.17  -0.17     0.00  -0.02   0.01    -0.01  -0.07   0.06
  24   1    -0.11  -0.35  -0.04    -0.01  -0.01   0.00    -0.03  -0.01   0.01
  25   1    -0.03  -0.03   0.03    -0.01  -0.00   0.02    -0.05  -0.02   0.10
  26   1     0.04  -0.01  -0.02    -0.00  -0.01   0.01    -0.02  -0.03   0.04
  27   1    -0.03  -0.02   0.04     0.00  -0.00   0.02     0.02   0.01   0.09
  28   1     0.03  -0.01  -0.04     0.01  -0.00   0.01     0.03  -0.01   0.07
  29   1     0.00  -0.02   0.00     0.04   0.01  -0.05     0.22   0.04  -0.23
  30   1     0.00   0.00   0.00     0.00  -0.00  -0.01     0.01   0.00   0.00
  31   1    -0.00  -0.01   0.00    -0.00   0.01   0.00    -0.00  -0.00  -0.00
  32   1    -0.01   0.00  -0.01    -0.01   0.01   0.03     0.00  -0.00  -0.01
  33   1    -0.00  -0.01   0.01     0.01   0.03   0.07    -0.00  -0.01  -0.02
  34   1    -0.00  -0.00   0.00    -0.06  -0.05  -0.20     0.02   0.01   0.06
  35   1    -0.01  -0.01  -0.01    -0.02   0.04   0.02     0.01  -0.01  -0.01
  36   1    -0.00   0.00   0.01    -0.01   0.05   0.03     0.00  -0.02  -0.01
  37   1     0.04   0.27  -0.08    -0.02   0.09   0.03     0.01  -0.01  -0.01
  38   1     0.21  -0.21   0.04     0.01   0.03  -0.02     0.00  -0.01   0.00
  39   1     0.07   0.08  -0.01     0.09  -0.25  -0.02    -0.02   0.06   0.00
  40   1     0.04   0.23  -0.01    -0.01   0.08   0.06     0.00  -0.01  -0.02
  41   1     0.17  -0.21  -0.06     0.03   0.02   0.06    -0.00  -0.01  -0.01
                     55                     56                     57
                        a                      a                      a 
 Frequencies --   936.2087               955.3045              1037.0233
 Red. masses --    11.7678                10.3561                 8.3364
 Frc consts  --     0.0000                 0.0000                 0.0000
 IR Inten    --    91.8797                33.7341               114.4279
 Raman Activ --     0.0000                 0.0000                 0.0000
 Depolar     --     0.0000                 0.0000                 0.0000
 Atom AN      X      Y      Z        X      Y      Z        X      Y      Z
   1   6    -0.00  -0.00   0.00    -0.07   0.19  -0.23    -0.00  -0.00  -0.00
   2   6     0.00   0.00   0.00    -0.19  -0.09  -0.04     0.01  -0.00   0.01
   3   8    -0.00  -0.00  -0.00     0.19  -0.07   0.43    -0.01   0.00  -0.01
   4  15     0.01  -0.00   0.01     0.07  -0.12  -0.09     0.00   0.00   0.00
   5  16    -0.00   0.00  -0.00     0.00   0.01   0.00    -0.00  -0.00  -0.00
   6   8    -0.02   0.00  -0.02    -0.23   0.07  -0.31     0.00  -0.00   0.00
   7   6     0.01   0.00   0.00     0.16   0.05  -0.00    -0.00  -0.00  -0.00
   8   6    -0.00   0.00   0.02     0.00   0.00   0.27     0.00   0.00  -0.00
   9  16     0.00  -0.00   0.00     0.01  -0.00  -0.01    -0.00  -0.00  -0.00
  10   6     0.02   0.01  -0.00    -0.01   0.01   0.01     0.00   0.00   0.00
  11  16    -0.02  -0.00  -0.01    -0.00  -0.00  -0.00    -0.00  -0.00  -0.01
  12  15    -0.15  -0.09  -0.05    -0.00   0.01   0.01     0.01   0.02   0.01
  13  16     0.01   0.01  -0.01     0.00   0.00  -0.00    -0.00  -0.00   0.00
  14   8     0.30  -0.44  -0.07    -0.00   0.00  -0.00    -0.03   0.06  -0.01
  15   6    -0.11   0.20  -0.15     0.00  -0.00   0.00     0.02  -0.11  -0.05
  16   6    -0.03   0.25   0.19     0.00  -0.00  -0.00    -0.01   0.07   0.05
  17   8     0.01   0.27   0.35    -0.00  -0.02  -0.02     0.04  -0.04   0.26
  18   6    -0.04   0.04  -0.19     0.00  -0.00   0.01     0.05  -0.34  -0.46
  19   6     0.00  -0.09  -0.12    -0.00   0.01   0.01    -0.07   0.34   0.30
  20   1     0.00   0.00  -0.00     0.05  -0.05   0.07     0.00  -0.00  -0.00
  21   1    -0.00  -0.01   0.00     0.04  -0.03   0.09     0.00  -0.00   0.00
  22   1     0.00  -0.00  -0.00     0.15   0.32  -0.13     0.00   0.00  -0.00
  23   1     0.01   0.00  -0.00     0.01  -0.10   0.09     0.01   0.00   0.00
  24   1    -0.00  -0.00   0.00    -0.02  -0.06   0.05     0.00  -0.00   0.01
  25   1     0.00   0.00  -0.01     0.03   0.01  -0.12    -0.00   0.00   0.00
  26   1     0.00   0.00  -0.00     0.02   0.01  -0.08    -0.00   0.00   0.00
  27   1    -0.00  -0.00  -0.01    -0.03  -0.02  -0.08     0.00   0.00  -0.00
  28   1    -0.00   0.00  -0.01    -0.02   0.01  -0.10    -0.00   0.00  -0.00
  29   1    -0.01  -0.00   0.01    -0.23  -0.04   0.24     0.00   0.00  -0.00
  30   1     0.00   0.01   0.01     0.01  -0.00  -0.00    -0.00  -0.00  -0.00
  31   1     0.00  -0.02  -0.00    -0.00   0.01   0.00     0.00   0.00   0.00
  32   1     0.01  -0.04  -0.08    -0.00   0.00   0.00    -0.00  -0.03  -0.03
  33   1    -0.01  -0.07  -0.11     0.00  -0.00   0.00     0.01  -0.04  -0.02
  34   1     0.11   0.08   0.37    -0.00  -0.00  -0.00     0.03   0.02   0.10
  35   1     0.03  -0.09  -0.05     0.00   0.00   0.00     0.01  -0.03  -0.01
  36   1     0.01  -0.10  -0.03     0.00   0.00   0.00     0.00  -0.03  -0.00
  37   1    -0.01   0.05   0.02     0.00  -0.00  -0.00     0.01  -0.18  -0.15
  38   1     0.00   0.03  -0.01     0.00  -0.00  -0.00     0.04  -0.16  -0.15
  39   1     0.06  -0.18  -0.01    -0.01   0.02   0.00    -0.13   0.44   0.03
  40   1    -0.01   0.05   0.04     0.00  -0.00  -0.01     0.02  -0.00  -0.11
  41   1     0.02   0.01   0.04     0.00  -0.00  -0.00    -0.04  -0.02  -0.11
                     58                     59                     60
                        a                      a                      a 
 Frequencies --  1045.0497              1056.1974              1068.6862
 Red. masses --     8.8468                 9.5671                11.0959
 Frc consts  --     0.0000                 0.0000                 0.0000
 IR Inten    --   285.0922               154.6803                 9.9051
 Raman Activ --     0.0000                 0.0000                 0.0000
 Depolar     --     0.0000                 0.0000                 0.0000
 Atom AN      X      Y      Z        X      Y      Z        X      Y      Z
   1   6     0.04  -0.20   0.22     0.00  -0.00   0.00     0.00  -0.19   0.17
   2   6    -0.16   0.23  -0.32    -0.01   0.00  -0.01    -0.17   0.25  -0.34
   3   8     0.17  -0.02   0.17     0.01  -0.00   0.01     0.22  -0.05   0.29
   4  15    -0.01   0.01  -0.02     0.00   0.00   0.00     0.03  -0.03  -0.02
   5  16    -0.00  -0.00   0.00     0.00  -0.00  -0.00     0.00  -0.00  -0.00
   6   8     0.19   0.02   0.17    -0.01  -0.00  -0.01    -0.25   0.01  -0.28
   7   6    -0.10  -0.01  -0.42     0.01  -0.00   0.02     0.11   0.01   0.43
   8   6    -0.01  -0.01   0.29    -0.00   0.00  -0.01     0.03   0.03  -0.24
   9  16    -0.00   0.00  -0.00     0.00   0.00  -0.01     0.01  -0.00  -0.01
  10   6     0.00  -0.00  -0.00    -0.00  -0.00   0.00    -0.00   0.01   0.00
  11  16    -0.00  -0.00   0.00     0.01  -0.00   0.01    -0.00  -0.00   0.00
  12  15     0.00   0.00   0.00     0.03  -0.00   0.01    -0.00   0.00  -0.00
  13  16     0.00   0.00   0.00     0.00   0.00  -0.00     0.00   0.00   0.00
  14   8    -0.00   0.00  -0.00    -0.20   0.36  -0.02     0.01  -0.01   0.00
  15   6     0.00  -0.01  -0.00     0.14  -0.53  -0.24    -0.00   0.02   0.01
  16   6     0.00   0.00   0.00    -0.04   0.29   0.24     0.00  -0.01  -0.01
  17   8     0.00  -0.01  -0.00     0.01  -0.05  -0.10     0.00  -0.00   0.01
  18   6    -0.00  -0.00  -0.00    -0.01   0.07   0.12     0.00  -0.01  -0.01
  19   6     0.00   0.00   0.01     0.01  -0.06  -0.05    -0.00   0.01   0.01
  20   1    -0.06   0.03  -0.05    -0.00   0.00  -0.00    -0.05   0.00  -0.02
  21   1    -0.04   0.01  -0.07    -0.00   0.00  -0.00    -0.03  -0.02  -0.04
  22   1    -0.13  -0.26   0.11    -0.00  -0.01   0.00    -0.09  -0.18   0.08
  23   1    -0.02   0.09  -0.12    -0.00   0.00  -0.00    -0.01   0.08  -0.10
  24   1    -0.04   0.12  -0.11    -0.00   0.00  -0.00    -0.03   0.11  -0.09
  25   1    -0.02  -0.00  -0.15     0.00   0.00   0.01     0.03   0.01   0.13
  26   1     0.02  -0.02  -0.16    -0.00   0.00   0.01    -0.04   0.02   0.12
  27   1    -0.05  -0.03  -0.07     0.00   0.00   0.00     0.03   0.02   0.05
  28   1    -0.03   0.01  -0.09     0.00  -0.00   0.00     0.04  -0.01   0.04
  29   1    -0.22  -0.04   0.23     0.01   0.00  -0.01     0.16   0.03  -0.17
[...]
  33   1     0.00   0.02  -0.03    -0.00  -0.00  -0.00    -0.00   0.00  -0.00
  34   1    -0.00   0.01   0.00    -0.00   0.00  -0.00    -0.00   0.00  -0.00
  35   1     0.02   0.03  -0.03     0.00  -0.00   0.00    -0.00  -0.00   0.00
  36   1     0.02  -0.00   0.01    -0.00  -0.00  -0.00    -0.00  -0.00  -0.00
  37   1     0.00   0.00   0.00    -0.92   0.15  -0.22    -0.02   0.00  -0.00
  38   1     0.00   0.00  -0.00     0.11   0.07  -0.05     0.00  -0.00  -0.00
  39   1     0.00   0.00  -0.00    -0.00   0.00   0.01    -0.00  -0.00  -0.00
  40   1     0.00  -0.00   0.00     0.05  -0.01   0.01    -0.01   0.00  -0.00
  41   1    -0.00  -0.00   0.00     0.00   0.01  -0.00     0.00   0.00  -0.00
                    103                    104                    105
                        a                      a                      a 
 Frequencies --  2978.0425              2979.3610              3008.7616
 Red. masses --     1.7277                 1.7276                 1.7919
 Frc consts  --     0.0000                 0.0000                 0.0000
 IR Inten    --     9.5391                 6.1423                 8.0081
 Raman Activ --     0.0000                 0.0000                 0.0000
 Depolar     --     0.0000                 0.0000                 0.0000
 Atom AN      X      Y      Z        X      Y      Z        X      Y      Z
   1   6    -0.00   0.00   0.00    -0.00   0.00   0.00    -0.00   0.00   0.00
   2   6     0.00  -0.00  -0.00     0.00  -0.00  -0.00     0.00   0.00  -0.00
   3   8    -0.00   0.00  -0.00     0.00   0.00   0.00     0.00  -0.00   0.00
   4  15     0.00  -0.00   0.00     0.00  -0.00   0.00     0.00   0.00   0.00
   5  16    -0.00  -0.00   0.00     0.00  -0.00   0.00     0.00  -0.00  -0.00
   6   8    -0.00   0.00  -0.00    -0.01   0.00  -0.01     0.00  -0.00  -0.00
   7   6    -0.01   0.01   0.00    -0.19   0.17   0.01    -0.01   0.01   0.00
   8   6     0.00  -0.00   0.00     0.03  -0.03   0.00    -0.02   0.03   0.00
   9  16    -0.00  -0.00  -0.00     0.00   0.00   0.00    -0.00   0.00   0.00
  10   6     0.00  -0.00  -0.00    -0.00   0.00  -0.00     0.07  -0.03   0.25
  11  16    -0.00  -0.00   0.00    -0.00   0.00  -0.00     0.00  -0.00   0.00
  12  15     0.00  -0.00  -0.00    -0.00   0.00   0.00     0.00  -0.00   0.00
  13  16     0.00  -0.00  -0.00    -0.00   0.00  -0.00     0.00   0.00  -0.00
  14   8    -0.01   0.01   0.00     0.00  -0.00  -0.00     0.00  -0.00   0.00
  15   6    -0.25  -0.01  -0.05     0.02   0.00   0.00     0.00  -0.00   0.00
  16   6     0.03  -0.00   0.00    -0.00   0.00  -0.00     0.00   0.00   0.00
  17   8    -0.00  -0.00   0.00    -0.00   0.00  -0.00    -0.00  -0.00  -0.00
  18   6     0.00  -0.00   0.00     0.00  -0.00   0.00    -0.00  -0.00   0.00
  19   6    -0.00   0.00  -0.00    -0.00  -0.00  -0.00     0.00  -0.00   0.00
  20   1    -0.00  -0.00  -0.00    -0.00  -0.00  -0.00     0.00  -0.00  -0.00
  21   1     0.00  -0.00  -0.00     0.00  -0.00  -0.00     0.00  -0.00  -0.00
  22   1     0.00  -0.00   0.00     0.00  -0.00   0.00    -0.00   0.00   0.00
  23   1    -0.00   0.00   0.00     0.00   0.00   0.00    -0.00   0.00   0.00
  24   1    -0.00  -0.00   0.00    -0.00  -0.00   0.00    -0.00  -0.00   0.00
  25   1     0.05  -0.04  -0.00     0.70  -0.65  -0.03     0.02  -0.02  -0.00
  26   1    -0.00   0.00   0.00    -0.02   0.04   0.00    -0.00  -0.00   0.00
  27   1    -0.01   0.01   0.00    -0.11   0.11   0.01     0.10  -0.10  -0.01
  28   1     0.00   0.00   0.00     0.01   0.01   0.00    -0.00   0.00  -0.00
  29   1    -0.00  -0.00  -0.00    -0.01  -0.01  -0.02    -0.01   0.00  -0.01
  30   1     0.00   0.00  -0.00    -0.00  -0.00   0.00     0.02   0.04   0.01
  31   1     0.00  -0.00   0.00     0.00  -0.00   0.01    -0.30   0.08  -0.90
  32   1    -0.04  -0.01   0.01     0.00   0.00  -0.00     0.00   0.00  -0.00
  33   1     0.94   0.02   0.17    -0.06  -0.00  -0.01    -0.00   0.00  -0.00
  34   1    -0.00   0.02   0.00     0.00  -0.00  -0.00     0.00  -0.00  -0.00
  35   1    -0.00  -0.01   0.01    -0.00   0.00  -0.00     0.00   0.00   0.00
  36   1    -0.14  -0.01  -0.02     0.01   0.00   0.00    -0.01  -0.00  -0.00
  37   1    -0.00   0.00  -0.00    -0.00   0.00  -0.00    -0.00   0.00   0.00
  38   1     0.00   0.00  -0.00     0.00   0.00  -0.00     0.00   0.00  -0.00
  39   1    -0.00  -0.00   0.00     0.00   0.00   0.00     0.00  -0.00  -0.00
  40   1     0.00  -0.00   0.00     0.00   0.00   0.00    -0.00   0.00  -0.00
  41   1    -0.00  -0.00  -0.00     0.00   0.00  -0.00     0.00   0.00  -0.00
                    106                    107                    108
                        a                      a                      a 
 Frequencies --  3015.2046              3018.6876              3033.4329
 Red. masses --     1.7453                 1.7598                 1.7794
 Frc consts  --     0.0000                 0.0000                 0.0000
 IR Inten    --    60.3047                56.4115                37.9287
 Raman Activ --     0.0000                 0.0000                 0.0000
 Depolar     --     0.0000                 0.0000                 0.0000
 Atom AN      X      Y      Z        X      Y      Z        X      Y      Z
   1   6     0.00  -0.00  -0.00    -0.00   0.00   0.00     0.01  -0.19  -0.18
   2   6     0.00   0.00   0.00    -0.00  -0.00   0.00     0.00  -0.03  -0.02
   3   8    -0.00   0.00  -0.00    -0.00  -0.00  -0.00    -0.00   0.00  -0.00
   4  15     0.00  -0.00  -0.00    -0.00   0.00   0.00     0.00  -0.00   0.00
   5  16    -0.00  -0.00   0.00    -0.00  -0.00  -0.00    -0.00   0.00  -0.00
   6   8     0.00  -0.00   0.00     0.00  -0.00   0.00     0.00  -0.00   0.00
   7   6     0.03  -0.04  -0.00     0.00  -0.00  -0.00    -0.00   0.00  -0.00
   8   6     0.17  -0.19  -0.01     0.00  -0.00  -0.00    -0.00  -0.00  -0.00
   9  16    -0.00   0.00   0.00    -0.00  -0.00   0.00    -0.00  -0.00   0.00
  10   6     0.01  -0.00   0.04     0.00  -0.00   0.00     0.00  -0.00   0.00
  11  16     0.00  -0.00   0.00     0.00   0.00   0.00    -0.00  -0.00   0.00
  12  15     0.00   0.00   0.00    -0.00  -0.00  -0.00     0.00   0.00  -0.00
  13  16     0.00   0.00  -0.00     0.00   0.00   0.00    -0.00  -0.00  -0.00
  14   8    -0.00   0.00  -0.00    -0.00   0.00   0.00    -0.00   0.00  -0.00
  15   6     0.00   0.00  -0.00    -0.05  -0.00  -0.01    -0.00  -0.00  -0.00
  16   6     0.01  -0.00   0.00    -0.26  -0.02  -0.03    -0.00   0.00  -0.00
  17   8    -0.00  -0.00  -0.00     0.00  -0.00  -0.00    -0.00  -0.00  -0.00
  18   6    -0.00   0.00   0.00     0.00  -0.00   0.00     0.00   0.00  -0.00
  19   6     0.00   0.00   0.00     0.00  -0.00  -0.00     0.00  -0.00   0.00
  20   1     0.00   0.00   0.00    -0.00  -0.00  -0.00    -0.00   0.73   0.61
  21   1    -0.00   0.00   0.00     0.00  -0.00  -0.00    -0.07  -0.02   0.00
  22   1     0.00  -0.00  -0.00     0.00  -0.00   0.00     0.04  -0.03   0.01
  23   1    -0.00  -0.00  -0.00    -0.00   0.00   0.00     0.00   0.07   0.06
  24   1     0.00  -0.00  -0.00     0.00  -0.00  -0.00    -0.01  -0.00   0.00
  25   1    -0.11   0.11   0.00    -0.00   0.00   0.00     0.00  -0.00  -0.00
  26   1     0.01   0.01  -0.00     0.00   0.00   0.00    -0.00  -0.00  -0.00
  27   1    -0.65   0.68   0.03    -0.02   0.02   0.00     0.00  -0.00  -0.00
  28   1     0.04   0.01   0.00     0.00   0.00   0.00     0.00   0.01   0.00
  29   1     0.02  -0.03  -0.00     0.00  -0.00   0.00     0.00  -0.00   0.00
  30   1     0.00   0.00   0.00    -0.00  -0.00   0.00     0.00   0.00  -0.00
  31   1    -0.04   0.01  -0.14    -0.00   0.00  -0.01    -0.00   0.00  -0.00
  32   1    -0.00  -0.00   0.00     0.00   0.01  -0.01     0.00   0.00  -0.00
  33   1    -0.00   0.00  -0.00     0.14   0.00   0.02     0.00   0.00   0.00
  34   1     0.00   0.00   0.00    -0.03  -0.01  -0.00     0.00  -0.00  -0.00
  35   1     0.00  -0.00   0.00    -0.01   0.04  -0.05    -0.00  -0.01   0.01
  36   1    -0.02  -0.00  -0.00     0.94   0.03   0.15     0.00   0.00   0.00
  37   1     0.00  -0.00   0.00    -0.00   0.00  -0.00     0.00  -0.00  -0.00
  38   1     0.00   0.00  -0.00    -0.00  -0.00   0.00    -0.00  -0.00   0.00
  39   1     0.00  -0.00  -0.00     0.00   0.00   0.00     0.00  -0.00  -0.00
  40   1    -0.00   0.00  -0.00    -0.00   0.00  -0.00    -0.01   0.00  -0.00
  41   1    -0.00  -0.00   0.00     0.00   0.00  -0.00     0.00   0.00  -0.00
                    109                    110                    111
                        a                      a                      a 
 Frequencies --  3044.9804              3047.2281              3048.6890
 Red. masses --     1.6686                 1.7650                 1.6291
 Frc consts  --     0.0000                 0.0000                 0.0000
 IR Inten    --    17.1117                28.1876                16.2229
 Raman Activ --     0.0000                 0.0000                 0.0000
 Depolar     --     0.0000                 0.0000                 0.0000
 Atom AN      X      Y      Z        X      Y      Z        X      Y      Z
   1   6    -0.00  -0.00  -0.00     0.00  -0.00   0.00    -0.00  -0.00  -0.00
   2   6     0.00  -0.00  -0.00     0.00   0.00   0.00    -0.00  -0.00  -0.00
   3   8    -0.00   0.00  -0.00     0.00  -0.00  -0.00     0.00   0.00   0.00
   4  15     0.00   0.00  -0.00     0.00   0.00   0.00     0.00  -0.00  -0.00
   5  16    -0.00   0.00  -0.00    -0.00  -0.00  -0.00    -0.00   0.00  -0.00
   6   8    -0.00  -0.00   0.00    -0.00   0.00  -0.00     0.00  -0.00  -0.00
   7   6     0.01   0.02  -0.00    -0.00  -0.00   0.00    -0.00   0.00  -0.00
   8   6     0.11   0.22  -0.01    -0.00  -0.01   0.00     0.00   0.00  -0.00
   9  16    -0.00  -0.00   0.00    -0.00  -0.00   0.00    -0.00  -0.00   0.00
  10   6     0.00  -0.00   0.00    -0.00   0.00  -0.00     0.00   0.00  -0.00
  11  16    -0.00  -0.00  -0.00     0.00  -0.00  -0.00    -0.00  -0.00  -0.00
  12  15     0.00   0.00   0.00     0.00   0.00   0.00     0.00   0.00   0.00
  13  16     0.00   0.00  -0.00    -0.00  -0.00   0.00    -0.00  -0.00   0.00
  14   8    -0.00   0.00   0.00     0.00  -0.00  -0.00    -0.00   0.00  -0.00
  15   6     0.00   0.00  -0.00     0.00   0.00  -0.00    -0.01  -0.01   0.01
  16   6     0.00   0.00  -0.00     0.00  -0.00  -0.00    -0.10  -0.12   0.18
  17   8     0.00  -0.00  -0.00    -0.00   0.00   0.00    -0.00   0.00   0.00
  18   6     0.00  -0.00   0.00     0.02  -0.00   0.00     0.00   0.00  -0.00
  19   6     0.01  -0.00   0.00     0.26  -0.02   0.03     0.00   0.00  -0.00
  20   1     0.00   0.01   0.00     0.00  -0.00  -0.00    -0.00   0.01   0.01
  21   1    -0.01   0.00   0.00    -0.00   0.00   0.00     0.02  -0.00  -0.01
  22   1     0.01  -0.00   0.01    -0.01   0.00  -0.02    -0.00  -0.00   0.00
  23   1     0.00   0.00   0.00     0.00  -0.01  -0.01    -0.00   0.00   0.00
  24   1    -0.00   0.00   0.00    -0.00   0.00   0.00     0.00  -0.00  -0.00
  25   1     0.01  -0.01  -0.00    -0.00   0.00   0.00     0.00  -0.00  -0.00
  26   1    -0.01  -0.04  -0.00     0.00   0.00   0.00    -0.00  -0.00   0.00
  27   1    -0.02   0.06   0.00     0.00  -0.00   0.00     0.00  -0.00   0.00
  28   1    -0.43  -0.86  -0.02     0.02   0.03   0.00    -0.00  -0.01  -0.00
  29   1     0.05   0.03   0.06    -0.01  -0.00  -0.01     0.00   0.00   0.00
  30   1     0.00   0.00   0.00    -0.00  -0.00  -0.00    -0.00  -0.00   0.00
  31   1    -0.00   0.00  -0.00     0.00  -0.00   0.00     0.00  -0.00   0.00
  32   1    -0.00  -0.00   0.00    -0.00  -0.00   0.00     0.02   0.02  -0.03
  33   1    -0.00  -0.00  -0.00    -0.00  -0.00  -0.00     0.01  -0.00   0.00
  34   1     0.00  -0.00  -0.00    -0.00   0.01   0.00     0.03  -0.13   0.01
  35   1    -0.00  -0.00   0.01    -0.00  -0.01   0.01     0.41   0.56  -0.66
  36   1     0.00   0.00  -0.00     0.00  -0.00  -0.00    -0.08  -0.02   0.01
  37   1    -0.00   0.00  -0.00    -0.05   0.01  -0.01    -0.00   0.00  -0.00
  38   1    -0.00  -0.00   0.00    -0.01  -0.01   0.01    -0.00  -0.00   0.00
  39   1     0.00  -0.00  -0.00     0.04   0.01   0.08     0.00   0.00   0.00
  40   1    -0.03   0.01  -0.01    -0.89   0.15  -0.28    -0.01   0.00  -0.00
  41   1     0.00   0.00   0.00    -0.06  -0.10   0.08    -0.00  -0.00   0.00
                    112                    113                    114
                        a                      a                      a 
 Frequencies --  3051.5972              3057.1927              3058.0780
 Red. masses --     1.5709                 1.7793                 1.4479
 Frc consts  --     0.0000                 0.0000                 0.0000
 IR Inten    --    18.1825                11.2299                11.4663
 Raman Activ --     0.0000                 0.0000                 0.0000
 Depolar     --     0.0000                 0.0000                 0.0000
 Atom AN      X      Y      Z        X      Y      Z        X      Y      Z
   1   6    -0.19   0.00   0.12     0.00  -0.00   0.00    -0.04   0.01  -0.03
   2   6    -0.01   0.00   0.01     0.00  -0.00  -0.00    -0.00   0.00  -0.00
   3   8     0.00   0.00   0.00    -0.00  -0.00   0.00     0.00   0.00  -0.00
   4  15    -0.00  -0.00  -0.00     0.00  -0.00  -0.00     0.00   0.00   0.00
   5  16    -0.00   0.00  -0.00    -0.00   0.00   0.00    -0.00  -0.00  -0.00
   6   8     0.00   0.00   0.00    -0.00  -0.00   0.00    -0.00   0.00  -0.00
   7   6     0.00  -0.00  -0.00     0.00  -0.00  -0.00    -0.00  -0.00  -0.00
   8   6     0.00   0.00  -0.00    -0.00  -0.00  -0.00    -0.00  -0.00  -0.00
   9  16    -0.00   0.00   0.00    -0.00   0.00  -0.00    -0.00  -0.00   0.00
  10   6    -0.00   0.00  -0.00    -0.00  -0.00  -0.00    -0.00   0.00  -0.00
  11  16     0.00   0.00   0.00     0.00  -0.00   0.00    -0.00  -0.00  -0.00
  12  15     0.00   0.00  -0.00     0.00   0.00  -0.00    -0.00   0.00   0.00
  13  16    -0.00   0.00   0.00     0.00  -0.00  -0.00    -0.00  -0.00  -0.00
  14   8    -0.00  -0.00   0.00     0.00  -0.00   0.00     0.00  -0.00   0.00
  15   6     0.00   0.00  -0.00    -0.01   0.01  -0.00     0.00   0.00  -0.00
  16   6     0.00   0.00  -0.00    -0.08   0.25  -0.00    -0.00   0.00   0.00
  17   8    -0.00  -0.00   0.00    -0.00   0.00   0.00     0.00  -0.00   0.00
  18   6     0.00   0.00   0.00     0.00   0.00   0.00    -0.01  -0.01   0.00
  19   6     0.00   0.00   0.00     0.00   0.00   0.00    -0.11  -0.15  -0.04
  20   1    -0.03   0.07   0.07     0.00  -0.00  -0.00    -0.01  -0.00  -0.01
  21   1     0.87  -0.11  -0.35    -0.01   0.00   0.00     0.03  -0.00  -0.02
  22   1    -0.17   0.04  -0.15    -0.00   0.00  -0.00     0.10  -0.03   0.12
  23   1    -0.00  -0.01  -0.00    -0.00   0.00   0.00    -0.00  -0.00  -0.00
  24   1     0.03  -0.01  -0.02    -0.00   0.00   0.00     0.00  -0.00  -0.00
  25   1    -0.00   0.00  -0.00    -0.00   0.00   0.00     0.00  -0.00  -0.00
  26   1    -0.00  -0.00  -0.00     0.00   0.00   0.00     0.00   0.00  -0.00
  27   1    -0.00   0.00   0.00    -0.00   0.00  -0.00    -0.00  -0.00  -0.00
  28   1    -0.00  -0.01  -0.00     0.00   0.00  -0.00     0.00   0.00  -0.00
  29   1     0.00   0.00   0.00     0.01   0.00   0.01     0.01   0.00   0.02
  30   1    -0.00  -0.00  -0.00     0.00   0.00  -0.00    -0.00  -0.00   0.00
  31   1     0.00  -0.00   0.00     0.00   0.00   0.00     0.00  -0.00   0.00
  32   1    -0.00  -0.00   0.00    -0.01  -0.01   0.01    -0.00  -0.00   0.00
  33   1    -0.00  -0.00  -0.00     0.02   0.00   0.00    -0.00   0.00   0.00
  34   1     0.00  -0.00  -0.00     0.36  -0.89  -0.07     0.01  -0.02  -0.00
  35   1    -0.01  -0.01   0.01    -0.06  -0.04   0.08     0.00   0.00  -0.00
  36   1    -0.00   0.00  -0.00    -0.01   0.03  -0.00    -0.00   0.00  -0.00
  37   1    -0.00   0.00   0.00    -0.00   0.00  -0.00     0.01  -0.00   0.00
  38   1    -0.00  -0.00   0.00    -0.00  -0.00   0.00     0.01   0.01  -0.01
  39   1    -0.00  -0.00  -0.01    -0.00  -0.00  -0.02     0.03   0.06   0.57
  40   1    -0.00   0.00  -0.00    -0.01   0.00  -0.00    -0.10  -0.00  -0.03
  41   1    -0.00  -0.00   0.00    -0.01  -0.01   0.01     0.46   0.48  -0.38
                    115                    116                    117
                        a                      a                      a 
 Frequencies --  3058.7269              3060.0025              3061.3840
 Red. masses --     1.8053                 1.7578                 1.9634
 Frc consts  --     0.0000                 0.0000                 0.0000
 IR Inten    --    12.8985                 9.8188                13.4441
 Raman Activ --     0.0000                 0.0000                 0.0000
 Depolar     --     0.0000                 0.0000                 0.0000
 Atom AN      X      Y      Z        X      Y      Z        X      Y      Z
   1   6    -0.21   0.06  -0.15     0.01  -0.00   0.01    -0.01   0.00  -0.01
   2   6    -0.01  -0.00  -0.00     0.00   0.00   0.00    -0.00  -0.00  -0.00
   3   8     0.00   0.00  -0.00    -0.00   0.00  -0.00     0.00   0.00   0.00
   4  15    -0.00   0.00   0.00     0.00  -0.00  -0.00    -0.00  -0.00  -0.00
   5  16     0.00   0.00   0.00     0.00  -0.00   0.00    -0.00   0.00   0.00
   6   8     0.00   0.00  -0.00     0.00   0.00   0.00    -0.00  -0.00   0.00
   7   6    -0.00  -0.00  -0.00    -0.01  -0.00  -0.00     0.00   0.00   0.00
   8   6    -0.01  -0.00  -0.01    -0.16  -0.03  -0.20     0.02   0.01   0.02
   9  16     0.00   0.00  -0.00     0.00   0.00   0.00     0.00   0.00  -0.00
  10   6     0.00   0.00  -0.00     0.00  -0.00   0.00     0.00  -0.00   0.00
  11  16     0.00   0.00  -0.00     0.00   0.00   0.00    -0.00  -0.00   0.00
  12  15    -0.00  -0.00   0.00     0.00  -0.00  -0.00     0.00   0.00  -0.00
  13  16     0.00   0.00  -0.00    -0.00  -0.00  -0.00     0.00   0.00   0.00
  14   8    -0.00  -0.00   0.00    -0.00  -0.00  -0.00     0.00  -0.00  -0.00
  15   6     0.00   0.00  -0.00     0.00  -0.00   0.00     0.00   0.00  -0.00
  16   6     0.00   0.00  -0.00     0.00  -0.00  -0.00    -0.00   0.00  -0.00
  17   8    -0.00   0.00  -0.00     0.00  -0.00   0.00     0.00  -0.00   0.00
  18   6     0.00   0.00   0.00     0.00   0.00  -0.00     0.00   0.01  -0.01
  19   6     0.02   0.02   0.02     0.01   0.01  -0.03     0.03   0.07  -0.28
  20   1    -0.03  -0.02  -0.04     0.00   0.00   0.00    -0.00   0.00   0.00
  21   1     0.17  -0.02  -0.10    -0.01   0.00   0.00     0.01  -0.00  -0.01
  22   1     0.59  -0.17   0.68    -0.03   0.01  -0.03     0.03  -0.01   0.04
  23   1    -0.00   0.01   0.01    -0.00  -0.00  -0.00    -0.00   0.00   0.00
  24   1     0.02  -0.00  -0.01    -0.00   0.00   0.00     0.00  -0.00  -0.00
  25   1     0.00  -0.00  -0.00     0.01  -0.01  -0.00    -0.00   0.00   0.00
  26   1     0.00   0.00  -0.00     0.00   0.01  -0.00    -0.00  -0.00   0.00
  27   1    -0.00  -0.00  -0.00    -0.02  -0.00  -0.02     0.00   0.00   0.00
  28   1     0.00   0.01  -0.00     0.01   0.06  -0.02    -0.00  -0.01   0.00
  29   1     0.03   0.00   0.04     0.56   0.06   0.77    -0.06  -0.01  -0.08
  30   1    -0.00  -0.00   0.00    -0.00  -0.00   0.00    -0.00   0.00  -0.00
  31   1     0.00  -0.00   0.00    -0.00   0.00  -0.01    -0.00  -0.00  -0.00
  32   1    -0.00  -0.00   0.00     0.00   0.00  -0.00    -0.00  -0.00  -0.00
  33   1    -0.00  -0.00  -0.00    -0.00  -0.00  -0.00     0.00  -0.00  -0.00
  34   1     0.00  -0.00  -0.00    -0.00   0.01   0.00     0.00  -0.01  -0.00
  35   1    -0.00  -0.00   0.00     0.00  -0.00  -0.00    -0.00  -0.00   0.00
  36   1    -0.00   0.00  -0.00    -0.00  -0.00  -0.00    -0.00   0.00  -0.00
  37   1    -0.01   0.00  -0.00     0.00   0.00  -0.00     0.01  -0.00   0.00
  38   1    -0.00  -0.00   0.00    -0.00  -0.00   0.00    -0.02  -0.02   0.01
  39   1    -0.01  -0.02  -0.14     0.01   0.01   0.07     0.07   0.12   0.74
  40   1    -0.01   0.00  -0.00     0.01  -0.00  -0.00     0.16  -0.01   0.01
  41   1    -0.06  -0.07   0.06    -0.04  -0.04   0.03    -0.35  -0.36   0.24
