      -----------------------------------------------------------      
     |                   =====================                   |     
     |                           x T B                           |     
     |                   =====================                   |     
     |                         S. Grimme                         |     
     |          Mulliken Center for Theoretical Chemistry        |     
     |                    University of Bonn                     |     
      -----------------------------------------------------------      

   * xtb version 6.7.1 (edcfbbe) compiled by 'albert@albert-system' on 2024-07-22

   xtb is free software: you can redistribute it and/or modify it under
   the terms of the GNU Lesser General Public License as published by
   the Free Software Foundation, either version 3 of the License, or
   (at your option) any later version.
   
   xtb is distributed in the hope that it will be useful,
   but WITHOUT ANY WARRANTY; without even the implied warranty of
   MERCHANTABILITY or FITNESS FOR A PARTICULAR PURPOSE.  See the
   GNU Lesser General Public License for more details.
   
   Cite this work as:
   * C. Bannwarth, E. Caldeweyher, S. Ehlert, A. Hansen, P. Pracht,
     J. Seibert, S. Spicher, S. Grimme, WIREs Comput. Mol. Sci., 2020, 11,
     e01493. DOI: 10.1002/wcms.1493
   
   for GFN2-xTB:
   * C. Bannwarth, S. Ehlert and S. Grimme., J. Chem. Theory Comput., 2019,
     15, 1652-1671. DOI: 10.1021/acs.jctc.8b01176
   for GFN1-xTB:
   * S. Grimme, C. Bannwarth, P. Shushkov, J. Chem. Theory Comput., 2017,
     13, 1989-2009. DOI: 10.1021/acs.jctc.7b00118
   for GFN0-xTB:
   * P. Pracht, E. Caldeweyher, S. Ehlert, S. Grimme, ChemRxiv, 2019, preprint.
     DOI: 10.26434/chemrxiv.8326202.v1
   for GFN-FF:
   * S. Spicher and S. Grimme, Angew. Chem. Int. Ed., 2020, 59, 15665-15673.
     DOI: 10.1002/anie.202004239
   
   for ALPB and GBSA implicit solvation:
   * S. Ehlert, M. Stahn, S. Spicher, S. Grimme, J. Chem. Theory Comput.,
     2021, 17, 4250-4261. DOI: 10.1021/acs.jctc.1c00471
   
   for ddCOSMO and CPCM-X implicit solvation:
   * M. Stahn, S. Ehlert, S. Grimme, J. Phys. Chem. A,
     2023, XX, XXXX-XXXX. DOI: 10.1021/acs.jpca.3c04382
   
   for DFT-D4:
   * E. Caldeweyher, C. Bannwarth and S. Grimme, J. Chem. Phys., 2017,
     147, 034112. DOI: 10.1063/1.4993215
   * E. Caldeweyher, S. Ehlert, A. Hansen, H. Neugebauer, S. Spicher,
     C. Bannwarth and S. Grimme, J. Chem. Phys., 2019, 150, 154122.
     DOI: 10.1063/1.5090222
   * E. Caldeweyher, J.-M. Mewes, S. Ehlert and S. Grimme, Phys. Chem. Chem. Phys.
     2020, 22, 8499-8512. DOI: 10.1039/D0CP00502A
   
   for sTDA-xTB:
   * S. Grimme and C. Bannwarth, J. Chem. Phys., 2016, 145, 054103.
     DOI: 10.1063/1.4959605
   
   in the mass-spec context:
   * V. Asgeirsson, C. Bauer and S. Grimme, Chem. Sci., 2017, 8, 4879.
     DOI: 10.1039/c7sc00601b
   * J. Koopman and S. Grimme, ACS Omega 2019, 4, 12, 15120-15133.
     DOI: 10.1021/acsomega.9b02011
   
   for metadynamics refer to:
   * S. Grimme, J. Chem. Theory Comput., 2019, 155, 2847-2862
     DOI: 10.1021/acs.jctc.9b00143
   
   for SPH calculations refer to:
   * S. Spicher and S. Grimme, J. Chem. Theory Comput., 2021, 17, 1701-1714
     DOI: 10.1021/acs.jctc.0c01306
   
   for ONIOM refer to:
   * C. Plett, A. Katbashev, S. Ehlert, S. Grimme, M. Bursch,
     Phys. Chem. Chem. Phys., 2023, 25, 17860-17868. DOI: 10.1039/D3CP02178E
   
   for DIPRO refer to:
   * J. Kohn, N. Gildemeister, S. Grimme, D. Fazzi, A. Hansen,
     J. Chem. Phys., 2023, just accepted.
   
   for PTB refer to:
   * S. Grimme, M. Mueller, A. Hansen, J. Chem. Phys., 2023, 158, 124111.
     DOI: 10.1063/5.0137838
   
   with help from (in alphabetical order)
   P. Atkinson, C. Bannwarth, F. Bohle, G. Brandenburg, E. Caldeweyher
   M. Checinski, S. Dohm, S. Ehlert, S. Ehrlich, I. Gerasimov, C. Hölzer
   A. Katbashev, J. Kohn, J. Koopman, C. Lavigne, S. Lehtola, F. März, M. Müller,
   F. Musil, H. Neugebauer, J. Pisarek, C. Plett, P. Pracht, F. Pultar,
   J. Seibert, P. Shushkov, S. Spicher, M. Stahn, M. Steiner, T. Strunk,
   J. Stückrath, T. Rose, and J. Unsleber
   
 * started run on 2025/04/09 at 05:21:02.630     
   ID    Z sym.   atoms
    1    6 C      1, 2, 7, 8, 10, 15, 16, 18, 19
    2    8 O      3, 6, 14, 17
    3   15 P      4, 12
    4   16 S      5, 9, 11, 13
    5    1 H      20-41

           -------------------------------------------------
          |                Calculation Setup                |
           -------------------------------------------------

          program call               : /srv/scratch/z5358697/.xtb/bin/xtb gas.coord --gfn2 --sp --chrg 0 --norestart --parallel 1
          hostname                   : k163
          coordinate file            : gas.coord
          omp threads                :                     1


           -------------------------------------------------
          |                 G F N 2 - x T B                 |
           -------------------------------------------------

        Reference                      10.1021/acs.jctc.8b01176
      * Hamiltonian:
        H0-scaling (s, p, d)           1.850000    2.230000    2.230000
        zeta-weighting                 0.500000
      * Dispersion:
        s8                             2.700000
        a1                             0.520000
        a2                             5.000000
        s9                             5.000000
      * Repulsion:
        kExp                           1.500000    1.000000
        rExp                           1.000000
      * Coulomb:
        alpha                          2.000000
        third order                    shell-resolved
        anisotropic                    true
        a3                             3.000000
        a5                             4.000000
        cn-shift                       1.200000
        cn-exp                         4.000000
        max-rad                        5.000000


          ...................................................
          :                      SETUP                      :
          :.................................................:
          :  # basis functions                 134          :
          :  # atomic orbitals                 128          :
          :  # shells                           66          :
          :  # electrons                       116          :
          :  max. iterations                   250          :
          :  Hamiltonian                  GFN2-xTB          :
          :  restarted?                      false          :
          :  GBSA solvation                  false          :
          :  PC potential                    false          :
          :  electronic temp.          300.0000000     K    :
          :  accuracy                    1.0000000          :
          :  -> integral cutoff          0.2500000E+02      :
          :  -> integral neglect         0.1000000E-07      :
          :  -> SCF convergence          0.1000000E-05 Eh   :
          :  -> wf. convergence          0.1000000E-03 e    :
          :  Broyden damping             0.4000000          :
          :  net charge                          0          :
          :  unpaired electrons                  0          :
          ...................................................

 iter      E             dE          RMSdq      gap      omega  full diag
   1    -65.3897170 -0.653897E+02  0.636E+00    4.22       0.0  T
   2    -65.5517965 -0.162080E+00  0.392E+00    3.29       1.0  T
   3    -65.5701495 -0.183530E-01  0.133E+00    3.07       1.0  T
   4    -65.5721421 -0.199255E-02  0.512E-01    2.87       1.0  T
   5    -65.5729114 -0.769280E-03  0.264E-01    2.97       1.0  T
   6    -65.5732304 -0.319050E-03  0.116E-01    2.95       1.0  T
   7    -65.5732742 -0.438017E-04  0.413E-02    2.96       1.0  T
   8    -65.5732799 -0.564315E-05  0.193E-02    2.96       1.0  T
   9    -65.5732808 -0.912453E-06  0.463E-03    2.96       3.4  T
  10    -65.5732808 -0.265641E-07  0.213E-03    2.96       7.3  T
  11    -65.5732808 -0.815109E-08  0.479E-04    2.96      32.6  T
  12    -65.5732808 -0.536417E-09  0.253E-04    2.96      61.6  T

   *** convergence criteria satisfied after 12 iterations ***

         #    Occupation            Energy/Eh            Energy/eV
      -------------------------------------------------------------
         1        2.0000           -0.7510229             -20.4364
       ...           ...                  ...                  ...
        52        2.0000           -0.4356379             -11.8543
        53        2.0000           -0.4057864             -11.0420
        54        2.0000           -0.3957546             -10.7690
        55        2.0000           -0.3775235             -10.2729
        56        2.0000           -0.3738808             -10.1738
        57        2.0000           -0.3691714             -10.0457
        58        2.0000           -0.3641750              -9.9097 (HOMO)
        59                         -0.2554405              -6.9509 (LUMO)
        60                         -0.2433796              -6.6227
        61                         -0.2065171              -5.6196
        62                         -0.1793200              -4.8795
        63                         -0.1582412              -4.3060
       ...                                ...                  ...
       128                          1.2883110              35.0567
      -------------------------------------------------------------
                  HL-Gap            0.1087345 Eh            2.9588 eV
             Fermi-level           -0.3098078 Eh           -8.4303 eV

 SCC (total)                   0 d,  0 h,  0 min,  0.063 sec
 SCC setup                      ...        0 min,  0.000 sec (  0.445%)
 Dispersion                     ...        0 min,  0.000 sec (  0.518%)
 classical contributions        ...        0 min,  0.000 sec (  0.094%)
 integral evaluation            ...        0 min,  0.014 sec ( 22.911%)
 iterations                     ...        0 min,  0.025 sec ( 40.399%)
 molecular gradient             ...        0 min,  0.022 sec ( 35.268%)
 printout                       ...        0 min,  0.000 sec (  0.340%)

         :::::::::::::::::::::::::::::::::::::::::::::::::::::
         ::                     SUMMARY                     ::
         :::::::::::::::::::::::::::::::::::::::::::::::::::::
         :: total energy             -65.012379577492 Eh    ::
         :: gradient norm              0.026753663263 Eh/a0 ::
         :: HOMO-LUMO gap              2.958816167694 eV    ::
         ::.................................................::
         :: SCC energy               -65.572394931715 Eh    ::
         :: -> isotropic ES            0.105793570828 Eh    ::
         :: -> anisotropic ES         -0.009591608755 Eh    ::
         :: -> anisotropic XC          0.030249493352 Eh    ::
         :: -> dispersion             -0.053806222483 Eh    ::
         :: repulsion energy           0.560015354223 Eh    ::
         :: add. restraining           0.000000000000 Eh    ::
         :: total charge               0.000000000000 e     ::
         :::::::::::::::::::::::::::::::::::::::::::::::::::::

           -------------------------------------------------
          |                Property Printout                |
           -------------------------------------------------

    * Orbital Energies and Occupations

         #    Occupation            Energy/Eh            Energy/eV
      -------------------------------------------------------------
         1        2.0000           -0.7510229             -20.4364
       ...           ...                  ...                  ...
        46        2.0000           -0.4625655             -12.5870
        47        2.0000           -0.4590807             -12.4922
        48        2.0000           -0.4562070             -12.4140
        49        2.0000           -0.4546080             -12.3705
        50        2.0000           -0.4476636             -12.1815
        51        2.0000           -0.4385934             -11.9347
        52        2.0000           -0.4356379             -11.8543
        53        2.0000           -0.4057864             -11.0420
        54        2.0000           -0.3957546             -10.7690
        55        2.0000           -0.3775235             -10.2729
        56        2.0000           -0.3738808             -10.1738
        57        2.0000           -0.3691714             -10.0457
        58        2.0000           -0.3641750              -9.9097 (HOMO)
        59                         -0.2554405              -6.9509 (LUMO)
        60                         -0.2433796              -6.6227
        61                         -0.2065171              -5.6196
        62                         -0.1793200              -4.8795
        63                         -0.1582412              -4.3060
        64                         -0.1526520              -4.1539
        65                         -0.1451919              -3.9509
        66                         -0.1369773              -3.7273
        67                         -0.1223776              -3.3301
        68                         -0.1165764              -3.1722
        69                         -0.0307788              -0.8375
       ...                                ...                  ...
       128                          1.2883110              35.0567
      -------------------------------------------------------------
                  HL-Gap            0.1087345 Eh            2.9588 eV
             Fermi-level           -0.3098078 Eh           -8.4303 eV

     #   Z          covCN         q      C6AA      α(0)
     1   6 C        3.751    -0.113    22.725     6.798
     2   6 C        3.856     0.083    19.171     6.227
     3   8 O        1.656    -0.239    17.974     5.723
     4  15 P        3.852     0.383   144.333    21.581
     5  16 S        0.928    -0.439   158.459    21.292
     6   8 O        1.655    -0.247    18.115     5.746
     7   6 C        3.866     0.082    19.176     6.227
     8   6 C        3.751    -0.118    22.819     6.812
     9  16 S        2.000    -0.114   145.830    20.325
    10   6 C        3.806     0.035    19.982     6.364
    11  16 S        2.001    -0.112   145.741    20.319
    12  15 P        3.821     0.379   144.488    21.593
    13  16 S        0.925    -0.430   158.026    21.262
    14   8 O        1.655    -0.236    17.933     5.717
    15   6 C        3.821     0.086    19.147     6.227
    16   6 C        3.751    -0.114    22.746     6.801
    17   8 O        1.656    -0.256    18.261     5.769
    18   6 C        3.867     0.090    19.059     6.208
    19   6 C        3.751    -0.117    22.797     6.809
    20   1 H        0.925     0.059     2.210     2.325
    21   1 H        0.925     0.058     2.223     2.332
    22   1 H        0.925     0.059     2.216     2.328
    23   1 H        0.924     0.068     2.109     2.271
    24   1 H        0.924     0.072     2.063     2.246
    25   1 H        0.924     0.064     2.156     2.296
    26   1 H        0.924     0.062     2.179     2.308
    27   1 H        0.925     0.064     2.158     2.297
    28   1 H        0.925     0.062     2.172     2.305
    29   1 H        0.925     0.060     2.195     2.317
    30   1 H        0.925     0.084     1.939     2.178
    31   1 H        0.924     0.082     1.954     2.186
    32   1 H        0.924     0.069     2.098     2.265
    33   1 H        0.924     0.066     2.128     2.281
    34   1 H        0.925     0.055     2.264     2.353
    35   1 H        0.925     0.061     2.184     2.311
    36   1 H        0.925     0.061     2.187     2.313
    37   1 H        0.924     0.060     2.194     2.316
    38   1 H        0.924     0.047     2.357     2.401
    39   1 H        0.925     0.060     2.204     2.322
    40   1 H        0.925     0.056     2.244     2.342
    41   1 H        0.925     0.069     2.095     2.264

 Mol. C6AA /au·bohr⁶  :      26557.168595
 Mol. C8AA /au·bohr⁸  :     863441.148468
 Mol. α(0) /au        :        258.355861


Wiberg/Mayer (AO) data.
largest (>0.10) Wiberg bond orders for each atom

 ---------------------------------------------------------------------------
     #   Z sym  total        # sym  WBO       # sym  WBO       # sym  WBO
 ---------------------------------------------------------------------------
     1   6 C    3.992 --     2 C    1.023    20 H    0.984    21 H    0.980
                            22 H    0.976
     2   6 C    3.906 --     1 C    1.023    23 H    0.969    24 H    0.965
                             3 O    0.893
     3   8 O    2.415 --     4 P    1.327     2 C    0.893
     4  15 P    5.275 --     5 S    1.509     3 O    1.327     6 O    1.309
                             9 S    0.989
     5  16 S    1.852 --     4 P    1.509     9 S    0.138
     6   8 O    2.410 --     4 P    1.309     7 C    0.908
     7   6 C    3.911 --     8 C    1.022    25 H    0.970    26 H    0.968
                             6 O    0.908
     8   6 C    3.991 --     7 C    1.022    28 H    0.983    29 H    0.980
                            27 H    0.975
     9  16 S    2.291 --    10 C    0.991     4 P    0.989     5 S    0.138
    10   6 C    3.961 --     9 S    0.991    11 S    0.980    30 H    0.968
                            31 H    0.946
    11  16 S    2.287 --    12 P    0.999    10 C    0.980    13 S    0.140
    12  15 P    5.280 --    13 S    1.510    14 O    1.338    17 O    1.296
                            11 S    0.999
    13  16 S    1.873 --    12 P    1.510    11 S    0.140
    14   8 O    2.433 --    12 P    1.338    15 C    0.898
    15   6 C    3.901 --    16 C    1.018    32 H    0.970    33 H    0.963
                            14 O    0.898
    16   6 C    3.991 --    15 C    1.018    34 H    0.985    35 H    0.984
                            36 H    0.980
    17   8 O    2.385 --    12 P    1.296    18 C    0.899
    18   6 C    3.915 --    19 C    1.021    37 H    0.971    38 H    0.971
                            17 O    0.899
    19   6 C    3.989 --    18 C    1.021    39 H    0.985    40 H    0.981
                            41 H    0.980
    20   1 H    0.996 --     1 C    0.984
    21   1 H    0.996 --     1 C    0.980
    22   1 H    0.997 --     1 C    0.976
    23   1 H    0.995 --     2 C    0.969
    24   1 H    0.995 --     2 C    0.965
    25   1 H    0.996 --     7 C    0.970
    26   1 H    0.996 --     7 C    0.968
    27   1 H    0.996 --     8 C    0.975
    28   1 H    0.996 --     8 C    0.983
    29   1 H    0.996 --     8 C    0.980
    30   1 H    0.993 --    10 C    0.968
    31   1 H    0.993 --    10 C    0.946
    32   1 H    0.995 --    15 C    0.970
    33   1 H    0.996 --    15 C    0.963
    34   1 H    0.997 --    16 C    0.985
    35   1 H    0.996 --    16 C    0.984
    36   1 H    0.995 --    16 C    0.980
    37   1 H    0.996 --    18 C    0.971
    38   1 H    0.998 --    18 C    0.971
    39   1 H    0.996 --    19 C    0.985
    40   1 H    0.996 --    19 C    0.981
    41   1 H    0.995 --    19 C    0.980
 ---------------------------------------------------------------------------

Topologies differ in total number of bonds
Writing topology from bond orders to xtbtopo.mol

molecular dipole:
                 x           y           z       tot (Debye)
 q only:        0.080       0.323      -0.008
   full:       -0.152       0.412      -0.250       1.284
molecular quadrupole (traceless):
                xx          xy          yy          xz          yz          zz
 q only:       15.471      -1.209      -5.728       9.532       0.510      -9.742
  q+dip:       21.338       0.051      -9.291       6.479       3.486     -12.047
   full:       21.588       0.036      -8.876       8.107       2.778     -12.712


           -------------------------------------------------
          | TOTAL ENERGY              -65.012379577492 Eh   |
          | GRADIENT NORM               0.026753663263 Eh/α |
          | HOMO-LUMO GAP               2.958816167694 eV   |
           -------------------------------------------------

------------------------------------------------------------------------
 * finished run on 2025/04/09 at 05:21:02.745     
------------------------------------------------------------------------
 total:
 * wall-time:     0 d,  0 h,  0 min,  0.114 sec
 *  cpu-time:     0 d,  0 h,  0 min,  0.069 sec
 * ratio c/w:     0.606 speedup
 SCF:
 * wall-time:     0 d,  0 h,  0 min,  0.063 sec
 *  cpu-time:     0 d,  0 h,  0 min,  0.056 sec
 * ratio c/w:     0.893 speedup

