12
 energy: -381.388088642318 gnorm: 0.036577935843 xtb: 6.7.1 (edcfbbe)
C           -0.66784612599594        1.25086477335429        0.00003203750001
C            0.66805659139603        1.25079074665426        0.00027802420012
C            1.44705585924123       -0.00003904820002       -0.00012077010005
O            2.66888476408265        0.00003786790002       -0.00014199880006
C            0.66799925689601       -1.25092109755432        0.00005432500002
C           -0.66812493789606       -1.25096333875434        0.00017765380008
C           -1.44703868084122        0.00003727830002       -0.00019232690009
O           -2.66897650098269        0.00014354220006       -0.00011596780005
H           -1.24213669815042        2.16589328795976        0.00041166370018
H            1.24252142495059        2.16569637575968        0.00000319790000
H            1.24245790335057       -2.16580541915973        0.00023441980010
H           -1.24260145835063       -2.16591494915977        0.00071740040032
12
 energy: -381.389034635381 gnorm: 0.012149797564 xtb: 6.7.1 (edcfbbe)
C           -0.66911565132105        1.26399938631405        0.00008396958046
C            0.66926853965891        1.26393523714075        0.00003952545762
C            1.43195577625554       -0.00005971158245        0.00004643252811
O            2.66118597427958       -0.00007845214674       -0.00017184179461
C            0.66917165305208       -1.26403212587312        0.00010007659187
C           -0.66925933946107       -1.26401047672876        0.00020776111119
C           -1.43192078988301        0.00003783285071        0.00029726441924
O           -2.66116920158069        0.00010831262382       -0.00002021887834
H           -1.24635593370076        2.18262617233107        0.00005963871075
H            1.24662617067564        2.18248701063905        0.00012319329228
H            1.24647422240847       -2.18261606790452        0.00020319848512
H           -1.24660997736694       -2.18257709556292        0.00036865982453
12
 energy: -381.389105872016 gnorm: 0.002468660163 xtb: 6.7.1 (edcfbbe)
C           -0.66996929400399        1.26638022064756        0.00019703678527
C            0.67011107925707        1.26632582564766        0.00013057625515
C            1.42731119330490       -0.00007198616603       -0.00004041264958
O            2.65977507513678       -0.00012393809477       -0.00021180066259
C            0.67000377086366       -1.26641054060704        0.00022557180131
C           -0.67006970525307       -1.26635868310501        0.00032713234341
C           -1.42727061543222        0.00003844963209       -0.00013369611696
O           -2.65973183080153        0.00009339763951       -0.00004818253917
H           -1.25007094461733        2.18437157249259        0.00022962723143
H            1.25029616763251        2.18426601130776        0.00003318689182
H            1.25011953501032       -2.18439400204539        0.00017693071441
H           -1.25025298258012       -2.18429630853306        0.00045169331526
12
 energy: -381.389113040484 gnorm: 0.000535902289 xtb: 6.7.1 (edcfbbe)
C           -0.67010434399912        1.26614151686225        0.00006338150438
C            0.67024711159530        1.26608915605210        0.00001944975710
C            1.42598892708143       -0.00007432131022        0.00006060674722
O            2.65913716072074       -0.00012875067479       -0.00012574690753
C            0.67014095384431       -1.26617252026252        0.00012177093254
C           -0.67020265839001       -1.26611554150131        0.00017755319837
C           -1.42594740706669        0.00004049679269        0.00045641100951
O           -2.65909172066842        0.00009193062799        0.00003073446633
H           -1.25160963899433        2.18316859712715        0.00002159183518
H            1.25182721759624        2.18307004547032        0.00005990309309
H            1.25164970107639       -2.18319805643393        0.00022947387993
H           -1.25178385304005       -2.18309253546788        0.00022253392269
12
 energy: -381.389113624631 gnorm: 0.000733121337 xtb: 6.7.1 (edcfbbe)
C           -0.67005913732201        1.26562510905418        0.00029676529468
C            0.67020609413756        1.26557102313602        0.00018331384803
C            1.42516614170016       -0.00007296433459       -0.00002294520632
O            2.65847663727835       -0.00012455946687       -0.00020068074565
C            0.67010375101351       -1.26565546146666        0.00028977190446
C           -0.67016334630846       -1.26559937911042        0.00040069057623
C           -1.42512348590423        0.00004444275290       -0.00076914110097
O           -2.65843556356153        0.00009230048256        0.00001365174801
H           -1.25277924871195        2.18162688293228        0.00046880797496
H            1.25299608011912        2.18152745224422       -0.00008251139159
H            1.25282018170028       -2.18165927244294        0.00010839966271
H           -1.25295666114338       -2.18155555646944        0.00065154312562
12
 energy: -381.389113624631 gnorm: 0.000733121337 xtb: 6.7.1 (edcfbbe)
C           -0.67005913732201        1.26562510905418        0.00029676529468
C            0.67020609413756        1.26557102313602        0.00018331384803
C            1.42516614170016       -0.00007296433459       -0.00002294520632
O            2.65847663727835       -0.00012455946687       -0.00020068074565
C            0.67010375101351       -1.26565546146666        0.00028977190446
C           -0.67016334630846       -1.26559937911042        0.00040069057623
C           -1.42512348590423        0.00004444275290       -0.00076914110097
O           -2.65843556356153        0.00009230048256        0.00001365174801
H           -1.25277924871195        2.18162688293228        0.00046880797496
H            1.25299608011912        2.18152745224422       -0.00008251139159
H            1.25282018170028       -2.18165927244294        0.00010839966271
H           -1.25295666114338       -2.18155555646944        0.00065154312562
