
                                 *****************
                                 * O   R   C   A *
                                 *****************

                                            #,                                       
                                            ###                                      
                                            ####                                     
                                            #####                                    
                                            ######                                   
                                           ########,                                 
                                     ,,################,,,,,                         
                               ,,#################################,,                 
                          ,,##########################################,,             
                       ,#########################################, ''#####,          
                    ,#############################################,,   '####,        
                  ,##################################################,,,,####,       
                ,###########''''           ''''###############################       
              ,#####''   ,,,,##########,,,,          '''####'''          '####       
            ,##' ,,,,###########################,,,                        '##       
           ' ,,###''''                  '''############,,,                           
         ,,##''                                '''############,,,,        ,,,,,,###''
      ,#''                                            '''#######################'''  
     '                                                          ''''####''''         
             ,#######,   #######,   ,#######,      ##                                
            ,#'     '#,  ##    ##  ,#'     '#,    #''#        ,####,   ,####,        
            ##       ##  ##   ,#'  ##            #'  '#       #'       #'  '#        
            ##       ##  #######   ##           ,######,      #####,   #    #        
            '#,     ,#'  ##    ##  '#,     ,#' ,#      #,     #,   #   #,  ,#        
             '#######'   ##     ##  '#######'  #'      '#     '####' # '####'        



                #########################################################
                #                        -***-                          #
                #          Department of theory and spectroscopy        #
                #                                                       #
                #                      Frank Neese                      #
                #                                                       #
                #     Directorship, Architecture, Infrastructure        #
                #                    SHARK, DRIVERS                     #
                #        Core code/Algorithms in most modules           #
                #                                                       #
                #        Max Planck Institute fuer Kohlenforschung      #
                #                Kaiser Wilhelm Platz 1                 #
                #                 D-45470 Muelheim/Ruhr                 #
                #                      Germany                          #
                #                                                       #
                #                  All rights reserved                  #
                #                        -***-                          #
                #########################################################


                         Program Version 6.0.0  -   RELEASE  -


 With contributions from (in alphabetic order):
   Daniel Aravena         : Magnetic Suceptibility
   Michael Atanasov       : Ab Initio Ligand Field Theory (pilot matlab implementation)
   Alexander A. Auer      : GIAO ZORA, VPT2 properties, NMR spectrum
   Ute Becker             : All parallelization in ORCA, NUMFREQ, NUMCALC
   Giovanni Bistoni       : ED, misc. LED, open-shell LED, HFLD
   Martin Brehm           : Molecular dynamics
   Dmytro Bykov           : pre 5.0 version of the SCF Hessian
   Marcos Casanova-Páez   : Triplet and SCS-CIS(D). UHF-(DLPNO)-IP/EA/STEOM-CCSD. UHF-CVS-IP/STEOM-CCSD
   Vijay G. Chilkuri      : MRCI spin determinant printing, contributions to CSF-ICE
   Pauline Colinet        : FMM embedding
   Dipayan Datta          : RHF DLPNO-CCSD density
   Achintya Kumar Dutta   : EOM-CC, STEOM-CC
   Nicolas Foglia         : Exact transition moments, OPA infrastructure, MCD improvements
   Dmitry Ganyushin       : Spin-Orbit,Spin-Spin,Magnetic field MRCI
   Miquel Garcia          : C-PCM and meta-GGA Hessian, CCSD/C-PCM, Gaussian charge scheme
   Tiago L. C. Gouveia    : GS-ROHF, GS-ROCIS
   Yang Guo               : DLPNO-NEVPT2, F12-NEVPT2, CIM, IAO-localization
   Andreas Hansen         : Spin unrestricted coupled pair/coupled cluster methods
   Ingolf Harden          : AUTO-CI MPn and infrastructure 
   Benjamin Helmich-Paris : MC-RPA, TRAH-(SCF,CASSCF), AVAS, COSX integrals, SCF dyn. polar.
   Lee Huntington         : MR-EOM, pCC
   Robert Izsak           : Overlap fitted RIJCOSX, COSX-SCS-MP3, EOM
   Riya Kayal             : Wick's Theorem for AUTO-CI, AUTO-CI UHF-CCSDT
   Emily Kempfer          : AUTO-CI, RHF CISDT and CCSDT
   Christian Kollmar      : KDIIS, OOCD, Brueckner-CCSD(T), CCSD density, CASPT2, CASPT2-K, improved NEVPT2
   Axel Koslowski         : Symmetry handling
   Simone Kossmann        : Meta GGA functionals, TD-DFT gradient, OOMP2, (MP2 Hessian; deprecated post 5.0)
   Lucas Lang             : DCDCAS
   Marvin Lechner         : AUTO-CI (C++ implementation), FIC-MRCC
   Spencer Leger          : CASSCF response
   Dagmar Lenk            : GEPOL surface, SMD, ORCA-2-JSON
   Dimitrios Liakos       : Extrapolation schemes; Compound Job, initial MDCI parallelization
   Dimitrios Manganas     : Further ROCIS development; embedding schemes. LFT, Crystal Embedding
   Dimitrios Pantazis     : SARC Basis sets
   Anastasios Papadopoulos: AUTO-CI, single reference methods and gradients
   Taras Petrenko         : pre 6.0 DFT Hessian and TD-DFT gradient, (ASA, deprecated), ECA, 1-Electron XAS/XES, NRVS
   Peter Pinski           : DLPNO-MP2, DLPNO-MP2 Gradient
   Christoph Reimann      : Effective Core Potentials
   Marius Retegan         : Local ZFS, SOC
   Christoph Riplinger    : Optimizer, TS searches, QM/MM, DLPNO-CCSD(T), (RO)-DLPNO pert. Triples
   Michael Roemelt        : Original ROCIS implementation
   Masaaki Saitow         : Open-shell DLPNO-CCSD energy and density
   Barbara Sandhoefer     : DKH picture change effects
   Kantharuban Sivalingam : CASSCF convergence/infrastructure, NEVPT2 and variants, FIC-MRCI
   Bernardo de Souza      : ESD, SOC TD-DFT
   Georgi Stoychev        : AutoAux, RI-MP2 NMR, DLPNO-MP2 response, X2C
   Van Anh Tran           : RI-MP2 g-tensors
   Willem Van den Heuvel  : Paramagnetic NMR
   Zikuan Wang            : NOTCH, Electric field optimization 
   Frank Wennmohs         : Technical directorship and infrastructure
   Hang Xu                : AUTO-CI-Response properties 


 We gratefully acknowledge several colleagues who have allowed us to
 interface, adapt or use parts of their codes:
   Stefan Grimme, W. Hujo, H. Kruse, P. Pracht,  : VdW corrections, initial TS optimization,
                  C. Bannwarth, S. Ehlert,         DFT functionals, gCP, sTDA/sTD-DF
                  L. Wittmann, M. Mueller
   Ed Valeev, F. Pavosevic, A. Kumar             : LibInt (2-el integral package), F12 methods
   Garnet Chan, S. Sharma, J. Yang, R. Olivares  : DMRG
   Ulf Ekstrom                                   : XCFun DFT Library
   Mihaly Kallay                                 : mrcc  (arbitrary order and MRCC methods)
   Frank Weinhold                                : gennbo (NPA and NBO analysis)
   Simon Mueller                                 : openCOSMO-RS
   Christopher J. Cramer and Donald G. Truhlar   : smd solvation model
   Lars Goerigk                                  : TD-DFT with DH, B97 family of functionals
   V. Asgeirsson, H. Jonsson                     : NEB implementation
   FAccTs GmbH                                   : IRC, NEB, NEB-TS, DLPNO-Multilevel, CI-OPT
                                                   MM, QMMM, 2- and 3-layer-ONIOM, Crystal-QMMM,
                                                   LR-CPCM, SF, NACMEs, symmetry and pop. for TD-DFT,
                                                   nearIR, NL-DFT gradient (VV10), updates on ESD,
                                                   ML-optimized integration grids, MBIS, APM,
                                                   GOAT, DOCKER, SOLVATOR, interface openCOSMO-RS
   S Lehtola, MJT Oliveira, MAL Marques          : LibXC Library
   Liviu Ungur et al                             : ANISO software


 Your calculation uses the libint2 library for the computation of 2-el integrals
 For citations please refer to: http://libint.valeyev.net

 Your ORCA version has been built with support for libXC version: 6.2.2
 For citations please refer to: https://libxc.gitlab.io

 This ORCA versions uses:
   CBLAS   interface :  Fast vector & matrix operations
   LAPACKE interface :  Fast linear algebra routines
   SCALAPACK package :  Parallel linear algebra routines
   Shared memory     :  Shared parallel matrices
   BLAS/LAPACK       :  OpenBLAS 0.3.27  USE64BITINT DYNAMIC_ARCH NO_AFFINITY SapphireRapids SINGLE_THREADED
        Core in use  :  SapphireRapids
   Copyright (c) 2011-2014, The OpenBLAS Project


Your calculation utilizes the geometrical counterpoise correction gCP
Please cite in your paper:
H.Kruse, S. Grimme J.Chem.Phys., 136, (2012), 154101 
   

Your calculation utilizes the atom-pairwise dispersion correction
based on EEQ partial charges (D4)


================================================================================

----- Orbital basis set information -----
Your calculation utilizes the basis: def2-SV(P)
   F. Weigend and R. Ahlrichs, Phys. Chem. Chem. Phys. 7, 3297 (2005).

----- AuxJ basis set information -----
Your calculation utilizes the auxiliary basis: def2/J
   F. Weigend, Phys. Chem. Chem. Phys. 8, 1057 (2006).

================================================================================
                                        WARNINGS
                       Please study these warnings very carefully!
================================================================================


================================================================================
                                       INPUT FILE
================================================================================
NAME = sp.inp
|  1> ! pbe def2-sv(p) def2/J RI DEFGRID1 loosescf d4 GCP(DFT/SV(P)) printgap
|  2> %output
|  3>     printlevel normal
|  4> end
|  5> * xyz 0 1
|  6> C 3.8684010913 -1.8269166747 -1.815294993
|  7> C 4.1405553652 -0.3356635615 -1.8270203712
|  8> O 3.594017757 0.3319059338 -0.6809315166
|  9> P 2.029086581 0.4978949831 -0.4148716168
| 10> S 1.0218962979 0.8668673066 -2.0541548067
| 11> O 2.0321489523 1.7043497128 0.5906286779
| 12> C 2.2798914975 1.6477017154 2.0147681282
| 13> C 3.5955388572 0.9818893278 2.3512057985
| 14> S 1.4641457863 -1.2433052562 0.6764102793
| 15> C 0.2430353435 -1.9679960503 -0.4607350623
| 16> S -1.4128346795 -2.1470952727 0.259007399
| 17> P -2.1067897379 -0.1664668615 0.1683681979
| 18> S -1.091257242 1.2781630061 1.0378202913
| 19> O -3.5978946334 -0.2973955692 0.7001320439
| 20> C -3.9399331006 -0.1378502256 2.0875790096
| 21> C -3.3822587429 -1.2578883911 2.9417430465
| 22> O -2.3075501829 -0.0435278978 -1.3969804072
| 23> C -2.5045215688 1.215368526 -2.0672371598
| 24> C -3.8205133348 1.8597756164 -1.6885416268
| 25> H 4.1632185038 -2.2578621257 -0.8620380576
| 26> H 2.8081043845 -2.0131034448 -1.9783147229
| 27> H 4.4325201837 -2.2982831413 -2.6136979195
| 28> H 3.7233346136 0.1248054544 -2.7286735126
| 29> H 5.2087468887 -0.1225770793 -1.7648713777
| 30> H 2.2661195077 2.698531782 2.3075727043
| 31> H 1.4371902849 1.1318208679 2.4833052278
| 32> H 4.4094174094 1.4727301351 1.8239166698
| 33> H 3.7627014132 1.0513245813 3.4215292668
| 34> H 3.5696715383 -0.0682891949 2.0641322218
| 35> H 0.5641691007 -2.9802790326 -0.6917964982
| 36> H 0.1854213842 -1.3458066015 -1.3587014737
| 37> H -3.5593714577 0.830817459 2.4280850577
| 38> H -5.0306213264 -0.1314828584 2.0890770332
| 39> H -2.2941360737 -1.2037181114 2.9599801559
| 40> H -3.7570007811 -1.1588030127 3.9554316788
| 41> H -3.6765921433 -2.2232677282 2.5378751454
| 42> H -1.6616794363 1.8727553516 -1.8287378642
| 43> H -2.4640429949 0.9535695155 -3.1255114997
| 44> H -3.8016920313 2.153676802 -0.6396353523
| 45> H -3.9748105758 2.7435142015 -2.2997622206
| 46> H -4.6377922918 1.1605307528 -1.8446313724
| 47> *
| 48> 
| 49>                          ****END OF INPUT****
================================================================================

                       ****************************
                       * Single Point Calculation *
                       ****************************

---------------------------------
CARTESIAN COORDINATES (ANGSTROEM)
---------------------------------
  C      3.868401   -1.826917   -1.815295
  C      4.140555   -0.335664   -1.827020
  O      3.594018    0.331906   -0.680932
  P      2.029087    0.497895   -0.414872
  S      1.021896    0.866867   -2.054155
  O      2.032149    1.704350    0.590629
  C      2.279891    1.647702    2.014768
  C      3.595539    0.981889    2.351206
  S      1.464146   -1.243305    0.676410
  C      0.243035   -1.967996   -0.460735
  S     -1.412835   -2.147095    0.259007
  P     -2.106790   -0.166467    0.168368
  S     -1.091257    1.278163    1.037820
  O     -3.597895   -0.297396    0.700132
  C     -3.939933   -0.137850    2.087579
  C     -3.382259   -1.257888    2.941743
  O     -2.307550   -0.043528   -1.396980
  C     -2.504522    1.215369   -2.067237
  C     -3.820513    1.859776   -1.688542
  H      4.163219   -2.257862   -0.862038
  H      2.808104   -2.013103   -1.978315
  H      4.432520   -2.298283   -2.613698
  H      3.723335    0.124805   -2.728674
  H      5.208747   -0.122577   -1.764871
  H      2.266120    2.698532    2.307573
  H      1.437190    1.131821    2.483305
  H      4.409417    1.472730    1.823917
  H      3.762701    1.051325    3.421529
  H      3.569672   -0.068289    2.064132
  H      0.564169   -2.980279   -0.691796
  H      0.185421   -1.345807   -1.358701
  H     -3.559371    0.830817    2.428085
  H     -5.030621   -0.131483    2.089077
  H     -2.294136   -1.203718    2.959980
  H     -3.757001   -1.158803    3.955432
  H     -3.676592   -2.223268    2.537875
  H     -1.661679    1.872755   -1.828738
  H     -2.464043    0.953570   -3.125511
  H     -3.801692    2.153677   -0.639635
  H     -3.974811    2.743514   -2.299762
  H     -4.637792    1.160531   -1.844631

----------------------------
CARTESIAN COORDINATES (A.U.)
----------------------------
  NO LB      ZA    FRAG     MASS         X           Y           Z
   0 C     6.0000    0    12.011    7.310219   -3.452372   -3.430410
   1 C     6.0000    0    12.011    7.824516   -0.634312   -3.452568
   2 O     8.0000    0    15.999    6.791709    0.627211   -1.286774
   3 P    15.0000    0    30.974    3.834418    0.940885   -0.783994
   4 S    16.0000    0    32.060    1.931104    1.638142   -3.881790
   5 O     8.0000    0    15.999    3.840205    3.220754    1.116126
   6 C     6.0000    0    12.011    4.308371    3.113705    3.807360
   7 C     6.0000    0    12.011    6.794584    1.855502    4.443135
   8 S    16.0000    0    32.060    2.766835   -2.349506    1.278230
   9 C     6.0000    0    12.011    0.459270   -3.718974   -0.870663
  10 S    16.0000    0    32.060   -2.669871   -4.057422    0.489453
  11 P    15.0000    0    30.974   -3.981256   -0.314577    0.318170
  12 S    16.0000    0    32.060   -2.062177    2.415378    1.961196
  13 O     8.0000    0    15.999   -6.799036   -0.561996    1.323058
  14 C     6.0000    0    12.011   -7.445395   -0.260499    3.944953
  15 C     6.0000    0    12.011   -6.391543   -2.377065    5.559089
  16 O     8.0000    0    15.999   -4.360638   -0.082256   -2.639910
  17 C     6.0000    0    12.011   -4.732860    2.296714   -3.906512
  18 C     6.0000    0    12.011   -7.219724    3.514467   -3.190881
  19 H     1.0000    0     1.008    7.867343   -4.266741   -1.629016
  20 H     1.0000    0     1.008    5.306548   -3.804214   -3.738473
  21 H     1.0000    0     1.008    8.376249   -4.343126   -4.939173
  22 H     1.0000    0     1.008    7.036083    0.235848   -5.156446
  23 H     1.0000    0     1.008    9.843105   -0.231637   -3.335124
  24 H     1.0000    0     1.008    4.282345    5.099486    4.360680
  25 H     1.0000    0     1.008    2.715896    2.138831    4.692767
  26 H     1.0000    0     1.008    8.332591    2.783057    3.446703
  27 H     1.0000    0     1.008    7.110475    1.986716    6.465753
  28 H     1.0000    0     1.008    6.745702   -0.129048    3.900645
  29 H     1.0000    0     1.008    1.066125   -5.631911   -1.307306
  30 H     1.0000    0     1.008    0.350396   -2.543206   -2.567574
  31 H     1.0000    0     1.008   -6.726237    1.570017    4.588416
  32 H     1.0000    0     1.008   -9.506497   -0.248467    3.947783
  33 H     1.0000    0     1.008   -4.335289   -2.274698    5.593552
  34 H     1.0000    0     1.008   -7.099703   -2.189820    7.474683
  35 H     1.0000    0     1.008   -6.947752   -4.201367    4.795889
  36 H     1.0000    0     1.008   -3.140119    3.538995   -3.455814
  37 H     1.0000    0     1.008   -4.656366    1.801985   -5.906361
  38 H     1.0000    0     1.008   -7.184157    4.069859   -1.208736
  39 H     1.0000    0     1.008   -7.511303    5.184490   -4.345921
  40 H     1.0000    0     1.008   -8.764157    2.193085   -3.485848

--------------------------------
INTERNAL COORDINATES (ANGSTROEM)
--------------------------------
 C      0   0   0     0.000000000000     0.00000000     0.00000000
 C      1   0   0     1.515929180709     0.00000000     0.00000000
 O      2   1   0     1.434528511697   112.53234685     0.00000000
 P      3   2   1     1.596041923129   123.72037837   291.99582671
 S      4   3   2     1.959036043203   112.59411948   321.17899742
 O      4   3   2     1.570532787170   100.64395577   200.49612666
 C      6   4   3     1.446636975268   126.90753238   278.69508662
 C      7   6   4     1.512423358906   112.65624870    54.79679821
 S      4   3   2     2.131157561423   105.08840195    88.95689638
 C      9   4   3     1.819172061266   100.56349667   240.67893111
 S     10   9   4     1.814390055951   113.82586069   239.85208138
 P     11  10   9     2.100637520161   101.02892528    76.85695500
 S     12  11  10     1.968300954455   120.16640998   303.16435130
 O     12  11  10     1.588492657772   102.58820035   176.27912109
 C     14  12  11     1.437864427663   122.49131743    91.70531360
 C     15  14  12     1.514952931066   111.99035362   292.31830577
 O     12  11  10     1.582951357610    99.07886409    71.07316288
 C     17  12  11     1.439743743562   123.06718642   193.80650897
 C     18  17  12     1.513441486497   112.01065011   293.40106447
 H      1   2   3     1.086890092576   110.37277184   309.11352438
 H      1   2   3     1.088792933550   109.99220138    69.58084297
 H      1   2   3     1.085294397520   109.16226558   188.84960017
 H      2   1   3     1.095026601305   110.58704279   238.50388482
 H      2   1   3     1.091009384546   111.55944655   116.06347444
 H      7   6   4     1.090948218917   102.96408873   175.68941174
 H      7   6   4     1.093528873069   107.95684677   291.17206793
 H      8   7   6     1.086902397222   110.16095858    54.76441896
 H      8   7   6     1.085521488203   108.97364345   174.93883893
 H      8   7   6     1.089015741928   110.19565780   294.47328195
 H     10   9   4     1.086845487375   107.79374867   123.58303304
 H     10   9   4     1.093975664495   108.77645467     2.22357976
 H     15  14  12     1.095029048029   108.39322460    54.52127315
 H     15  14  12     1.090707840505   103.87758518   171.47914023
 H     16  15  14     1.089622849700   109.89442566    66.81254020
 H     16  15  14     1.085271464041   109.39169244   186.37681600
 H     16  15  14     1.087059656426   110.32972007   306.95453691
 H     18  17  12     1.095181360685   108.55329152    56.37498946
 H     18  17  12     1.090927044002   103.69149399   172.25599376
 H     19  18  17     1.089466163333   109.92243045    66.86983890
 H     19  18  17     1.085537719133   109.22882571   186.37205764
 H     19  18  17     1.086854305557   110.12006824   306.82175577

---------------------------
INTERNAL COORDINATES (A.U.)
---------------------------
 C      0   0   0     0.000000000000     0.00000000     0.00000000
 C      1   0   0     2.864690989959     0.00000000     0.00000000
 O      2   1   0     2.710866018408   112.53234685     0.00000000
 P      3   2   1     3.016082132971   123.72037837   291.99582671
 S      4   3   2     3.702041608135   112.59411948   321.17899742
 O      4   3   2     2.967876852095   100.64395577   200.49612666
 C      6   4   3     2.733747698461   126.90753238   278.69508662
 C      7   6   4     2.858065946877   112.65624870    54.79679821
 S      4   3   2     4.027304139325   105.08840195    88.95689638
 C      9   4   3     3.437736986274   100.56349667   240.67893111
 S     10   9   4     3.428700305857   113.82586069   239.85208138
 P     11  10   9     3.969629619744   101.02892528    76.85695500
 S     12  11  10     3.719549753056   120.16640998   303.16435130
 O     12  11  10     3.001816088934   102.58820035   176.27912109
 C     14  12  11     2.717169985991   122.49131743    91.70531360
 C     15  14  12     2.862846145496   111.99035362   292.31830577
 O     12  11  10     2.991344549203    99.07886409    71.07316288
 C     17  12  11     2.720721378359   123.06718642   193.80650897
 C     18  17  12     2.859989929195   112.01065011   293.40106447
 H      1   2   3     2.053924612640   110.37277184   309.11352438
 H      1   2   3     2.057520460958   109.99220138    69.58084297
 H      1   2   3     2.050909185992   109.16226558   188.84960017
 H      2   1   3     2.069300385825   110.58704279   238.50388482
 H      2   1   3     2.061708946329   111.55944655   116.06347444
 H      7   6   4     2.061593360043   102.96408873   175.68941174
 H      7   6   4     2.066470089637   107.95684677   291.17206793
 H      8   7   6     2.053947865052   110.16095858    54.76441896
 H      8   7   6     2.051338325191   108.97364345   174.93883893
 H      8   7   6     2.057941507773   110.19565780   294.47328195
 H     10   9   4     2.053840321027   107.79374867   123.58303304
 H     10   9   4     2.067314403070   108.77645467     2.22357976
 H     15  14  12     2.069305009464   108.39322460    54.52127315
 H     15  14  12     2.061139110675   103.87758518   171.47914023
 H     16  15  14     2.059088775196   109.89442566    66.81254020
 H     16  15  14     2.050865847997   109.39169244   186.37681600
 H     16  15  14     2.054245041880   110.32972007   306.95453691
 H     18  17  12     2.069592838669   108.55329152    56.37498946
 H     18  17  12     2.061553345252   103.69149399   172.25599376
 H     19  18  17     2.058792680874   109.92243045    66.86983890
 H     19  18  17     2.051368997202   109.22882571   186.37205764
 H     19  18  17     2.053856984976   110.12006824   306.82175577

---------------------
BASIS SET INFORMATION
---------------------
There are 5 groups of distinct atoms

 Group   1 Type C   : 7s4p1d contracted to 3s2p1d pattern {511/31/1}
 Group   2 Type O   : 7s4p1d contracted to 3s2p1d pattern {511/31/1}
 Group   3 Type P   : 10s7p1d contracted to 4s3p1d pattern {5311/511/1}
 Group   4 Type S   : 10s7p1d contracted to 4s3p1d pattern {5311/511/1}
 Group   5 Type H   : 4s contracted to 2s pattern {31}

Atom   0C    basis set group =>   1
Atom   1C    basis set group =>   1
Atom   2O    basis set group =>   2
Atom   3P    basis set group =>   3
Atom   4S    basis set group =>   4
Atom   5O    basis set group =>   2
Atom   6C    basis set group =>   1
Atom   7C    basis set group =>   1
Atom   8S    basis set group =>   4
Atom   9C    basis set group =>   1
Atom  10S    basis set group =>   4
Atom  11P    basis set group =>   3
Atom  12S    basis set group =>   4
Atom  13O    basis set group =>   2
Atom  14C    basis set group =>   1
Atom  15C    basis set group =>   1
Atom  16O    basis set group =>   2
Atom  17C    basis set group =>   1
Atom  18C    basis set group =>   1
Atom  19H    basis set group =>   5
Atom  20H    basis set group =>   5
Atom  21H    basis set group =>   5
Atom  22H    basis set group =>   5
Atom  23H    basis set group =>   5
Atom  24H    basis set group =>   5
Atom  25H    basis set group =>   5
Atom  26H    basis set group =>   5
Atom  27H    basis set group =>   5
Atom  28H    basis set group =>   5
Atom  29H    basis set group =>   5
Atom  30H    basis set group =>   5
Atom  31H    basis set group =>   5
Atom  32H    basis set group =>   5
Atom  33H    basis set group =>   5
Atom  34H    basis set group =>   5
Atom  35H    basis set group =>   5
Atom  36H    basis set group =>   5
Atom  37H    basis set group =>   5
Atom  38H    basis set group =>   5
Atom  39H    basis set group =>   5
Atom  40H    basis set group =>   5
---------------------------------
AUXILIARY/J BASIS SET INFORMATION
---------------------------------
There are 5 groups of distinct atoms

 Group   1 Type C   : 12s5p4d2f1g contracted to 6s4p3d1f1g pattern {711111/2111/211/2/1}
 Group   2 Type O   : 12s5p4d2f1g contracted to 6s4p3d1f1g pattern {711111/2111/211/2/1}
 Group   3 Type P   : 14s5p5d2f1g contracted to 8s4p3d1f1g pattern {71111111/2111/311/2/1}
 Group   4 Type S   : 14s5p5d2f1g contracted to 8s4p3d1f1g pattern {71111111/2111/311/2/1}
 Group   5 Type H   : 5s2p1d contracted to 3s1p1d pattern {311/2/1}

Atom   0C    basis set group =>   1
Atom   1C    basis set group =>   1
Atom   2O    basis set group =>   2
Atom   3P    basis set group =>   3
Atom   4S    basis set group =>   4
Atom   5O    basis set group =>   2
Atom   6C    basis set group =>   1
Atom   7C    basis set group =>   1
Atom   8S    basis set group =>   4
Atom   9C    basis set group =>   1
Atom  10S    basis set group =>   4
Atom  11P    basis set group =>   3
Atom  12S    basis set group =>   4
Atom  13O    basis set group =>   2
Atom  14C    basis set group =>   1
Atom  15C    basis set group =>   1
Atom  16O    basis set group =>   2
Atom  17C    basis set group =>   1
Atom  18C    basis set group =>   1
Atom  19H    basis set group =>   5
Atom  20H    basis set group =>   5
Atom  21H    basis set group =>   5
Atom  22H    basis set group =>   5
Atom  23H    basis set group =>   5
Atom  24H    basis set group =>   5
Atom  25H    basis set group =>   5
Atom  26H    basis set group =>   5
Atom  27H    basis set group =>   5
Atom  28H    basis set group =>   5
Atom  29H    basis set group =>   5
Atom  30H    basis set group =>   5
Atom  31H    basis set group =>   5
Atom  32H    basis set group =>   5
Atom  33H    basis set group =>   5
Atom  34H    basis set group =>   5
Atom  35H    basis set group =>   5
Atom  36H    basis set group =>   5
Atom  37H    basis set group =>   5
Atom  38H    basis set group =>   5
Atom  39H    basis set group =>   5
Atom  40H    basis set group =>   5
------------------------------------------------------------------------------
                             ORCA STARTUP CALCULATIONS
                           -- RI-GTO INTEGRALS CHOSEN --
------------------------------------------------------------------------------
------------------------------------------------------------------------------
                   ___                                                        
                  /   \      - P O W E R E D   B Y -                         
                 /     \                                                     
                 |  |  |   _    _      __       _____    __    __             
                 |  |  |  | |  | |    /  \     |  _  \  |  |  /  |          
                  \  \/   | |  | |   /    \    | | | |  |  | /  /          
                 / \  \   | |__| |  /  /\  \   | |_| |  |  |/  /          
                |  |  |   |  __  | /  /__\  \  |    /   |      \           
                |  |  |   | |  | | |   __   |  |    \   |  |\   \          
                \     /   | |  | | |  |  |  |  | |\  \  |  | \   \       
                 \___/    |_|  |_| |__|  |__|  |_| \__\ |__|  \__/        
                                                                              
                      - O R C A' S   B I G   F R I E N D -                    
                                      &                                       
                       - I N T E G R A L  F E E D E R -                       
                                                                              
 v1 FN, 2020, v2 2021, v3 2022-2024                                           
------------------------------------------------------------------------------


----------------------
SHARK INTEGRAL PACKAGE
----------------------

Number of atoms                             ...     41
Number of basis functions                   ...    334
Number of shells                            ...    170
Maximum angular momentum                    ...      2
Integral batch strategy                     ... SHARK/LIBINT Hybrid
RI-J (if used) integral strategy            ... SPLIT-RIJ (Revised 2003 algorithm where possible)
Printlevel                                  ...      1
Contraction scheme used                     ... SEGMENTED contraction
Prescreening option                         ... SCHWARTZ
   Thresh                                   ... 1.000e-09
   Tcut                                     ... 1.000e-10
   Tpresel                                  ... 1.000e-10 
Coulomb Range Separation                    ... NOT USED
Exchange Range Separation                   ... NOT USED
Multipole approximations                    ... NOT USED
Finite Nucleus Model                        ... NOT USED
CABS basis                                  ... NOT available
Auxiliary Coulomb fitting basis             ... AVAILABLE
   # of basis functions in Aux-J            ...   1185
   # of shells in Aux-J                     ...    407
   Maximum angular momentum in Aux-J        ...      4
Auxiliary J/K fitting basis                 ... NOT available
Auxiliary Correlation fitting basis         ... NOT available
Auxiliary 'external' fitting basis          ... NOT available

Checking pre-screening integrals            ... done (  0.0 sec) Dimension = 170
Check shell pair data                       ... done (  0.0 sec)
Shell pair information
Shell pair cut-off parameter TPreSel        ...   1.0e-10
Total number of shell pairs                 ...     14535
Shell pairs after pre-screening             ...     10366
Total number of primitive shell pairs       ...     62501
Primitive shell pairs kept                  ...     25790
          la=0 lb=0:   4008 shell pairs
          la=1 lb=0:   3526 shell pairs
          la=1 lb=1:    820 shell pairs
          la=2 lb=0:   1301 shell pairs
          la=2 lb=1:    599 shell pairs
          la=2 lb=2:    112 shell pairs

Calculating one electron integrals          ... done (  0.1 sec)
Calculating RI/J V-Matrix + Cholesky decomp.... done (  0.4 sec)
Calculating Nuclear repulsion               ... done (  0.0 sec) ENN=   2815.615971386409 Eh

Diagonalization of the overlap matrix:
Smallest eigenvalue                        ... 3.263e-03
Time for diagonalization                   ...    0.010 sec
Threshold for overlap eigenvalues          ... 1.000e-07
Number of eigenvalues below threshold      ... 0
Time for construction of square roots      ...    0.037 sec
Total time needed                          ...    0.062 sec

-------------------
DFT GRID GENERATION
-------------------

General Integration Accuracy     IntAcc      ... 4.159
Radial Grid Type                 RadialGrid  ... OptM3 with GC (2021)
Angular Grid (max. ang.)         AngularGrid ... 3 (Lebedev-194)
Angular grid pruning method      GridPruning ... 4 (adaptive)
Weight generation scheme         WeightScheme... mBecke (2022)
Basis function cutoff            BFCut       ... 1.0000e-10
Integration weight cutoff        WCut        ... 1.0000e-14
Partially contracted basis set               ... off
Rotationally invariant grid construction     ... off
Angular grids for H and He will be reduced by one unit

Total number of grid points                  ...    97327
Total number of batches                      ...     1540
Average number of points per batch           ...       63
Average number of grid points per atom       ...     2374
Initializing property integral containers    ... done (  0.0 sec)

SHARK setup successfully completed in   2.2 seconds

Maximum memory used throughout the entire STARTUP-calculation: 51.5 MB
-------------------------------------------------------------------------------
                                 ORCA GUESS
                   Start orbitals & Density for SCF / CASSCF
-------------------------------------------------------------------------------

------------
SCF SETTINGS
------------
Hamiltonian:
 Density Functional     Method          .... DFT(GTOs)
 Exchange Functional    Exchange        .... PBE
   PBE kappa parameter   XKappa         ....  0.804000
   PBE mue parameter    XMuePBE         ....  0.219520
 Correlation Functional Correlation     .... PBE
   PBE beta parameter  CBetaPBE         ....  0.066725
 LDA part of GGA corr.  LDAOpt          .... PW91-LDA
 Gradients option       PostSCFGGA      .... off
   NL short-range parameter             ....  6.400000
 RI-approximation to the Coulomb term is turned on
   Number of AuxJ basis functions       .... 1185


General Settings:
 Integral files         IntName         .... sp
 Hartree-Fock type      HFTyp           .... RHF
 Total Charge           Charge          ....    0
 Multiplicity           Mult            ....    1
 Number of Electrons    NEL             ....  202
 Basis Dimension        Dim             ....  334
 Nuclear Repulsion      ENuc            ....   2815.6159713864 Eh

Convergence Acceleration:
 AO-DIIS                CNVDIIS         .... on
   Start iteration      DIISMaxIt       ....    12
   Startup error        DIISStart       ....  0.200000
   # of expansion vecs  DIISMaxEq       ....     5
   Bias factor          DIISBfac        ....   1.050
   Max. coefficient     DIISMaxC        ....  10.000
 MO-DIIS                CNVKDIIS        .... off
 Trust-Rad. Augm. Hess. CNVTRAH         .... auto
   Auto Start mean grad. ratio tolernc. ....  1.125000
   Auto Start start iteration           ....    50
   Auto Start num. interpolation iter.  ....    10
   Max. Number of Micro iterations      ....    24
   Max. Number of Macro iterations      .... Maxiter - #DIIS iter
   Number of Davidson start vectors     ....     2
   Converg. threshold    (grad. norm)   ....   1.000e-04
   Grad. Scal. Fac. for Micro threshold ....   0.100
   Minimum threshold for Micro iter.    ....   1.000e-02
   NR start threshold (gradient norm)   ....   1.000e-04
   Initial trust radius                 ....   0.400
   Minimum AH scaling param. (alpha)    ....   1.000
   Maximum AH scaling param. (alpha)    .... 1000.000
   Quad. conv. algorithm                .... NR
   White noise on init. David. guess    .... on
   Maximum white noise                  ....   0.010
   Pseudo random numbers                .... off
   Inactive MOs                         .... canonical
   Orbital update algorithm             .... Taylor
   Preconditioner                       .... Diag
   Full preconditioner red. dimension   ....   250
 SOSCF                  CNVSOSCF        .... on
   Start iteration      SOSCFMaxIt      ....   150
   Startup grad/error   SOSCFStart      ....  0.003300
   Hessian update       SOSCFHessUp     .... L-BFGS
 Level Shifting         CNVShift        .... on
   Level shift para.    LevelShift      ....    0.2500
   Turn off err/grad.   ShiftErr        ....    0.0010
 Zerner damping         CNVZerner       .... off
 Static damping         CNVDamp         .... on
   Fraction old density DampFac         ....    0.7000
   Max. Damping (<1)    DampMax         ....    0.9800
   Min. Damping (>=0)   DampMin         ....    0.0000
   Turn off err/grad.   DampErr         ....    0.1000

SCF Procedure:
 Maximum # iterations   MaxIter         ....   125
 SCF integral mode      SCFMode         .... Direct
   Integral package                     .... SHARK and LIBINT hybrid scheme
 Reset frequency        DirectResetFreq ....    20
 Integral Threshold     Thresh          ....  1.000e-09 Eh
 Primitive CutOff       TCut            ....  1.000e-10 Eh

Convergence Tolerance:
 Convergence Check Mode ConvCheckMode   .... Total+1el-Energy
 Convergence forced     ConvForced      .... 0
 Energy Change          TolE            ....  1.000e-05 Eh
 1-El. energy change                    ....  1.000e-02 Eh
 Orbital Gradient       TolG            ....  1.000e-04
 Orbital Rotation angle TolX            ....  1.000e-04
 DIIS Error             TolErr          ....  5.000e-04

------------------------------
INITIAL GUESS: MODEL POTENTIAL
------------------------------
Loading Hartree-Fock densities                     ... done
Calculating cut-offs                               ... done
Initializing the effective Hamiltonian             ... done
Setting up the integral package (SHARK)            ... done
Starting the Coulomb interaction                   ... done (   0.6 sec)
Making the grid                                    ... done (   0.6 sec)
Mapping shells                                     ... done
Starting the XC term evaluation                    ... done (   0.3 sec)
  promolecular density results
     # of electrons  =    201.988538059
     EX              =   -230.002454687
     EC              =     -7.293581715
     EX+EC           =   -237.296036403
Transforming the Hamiltonian                       ... done (   0.0 sec)
Diagonalizing the Hamiltonian                      ... done (   0.0 sec)
Back transforming the eigenvectors                 ... done (   0.1 sec)
Now organizing SCF variables                       ... done
                      ------------------
                      INITIAL GUESS DONE (   2.2 sec)
                      ------------------
             **** ENERGY FILE WAS UPDATED (sp.en.tmp) ****
Finished Guess after   2.5 sec
Maximum memory used throughout the entire GUESS-calculation: 39.4 MB

-------------------------------------------------------------------------------------------
                                      ORCA LEAN-SCF
                              memory conserving SCF solver
-------------------------------------------------------------------------------------------

----------------------------------------D-I-I-S--------------------------------------------
Iteration    Energy (Eh)           Delta-E    RMSDP     MaxDP     DIISErr   Damp  Time(sec)
-------------------------------------------------------------------------------------------
               ***  Starting incremental Fock matrix formation  ***
    1    -2929.1899720319493099     0.00e+00  2.68e-03  1.38e-01  1.89e-01  0.700   2.2
    2    -2929.4131807502403717    -2.23e-01  1.74e-03  7.20e-02  7.56e-02  0.700   2.1
                               ***Turning on AO-DIIS***
    3    -2929.4844144176581722    -7.12e-02  6.88e-04  1.75e-02  2.26e-02  0.700   2.0
    4    -2929.5293270496263176    -4.49e-02  1.04e-03  3.34e-02  1.01e-02  0.000   1.9
    5    -2929.6337234224524764    -1.04e-01  3.07e-04  1.18e-02  7.68e-03  0.000   2.4
                              *** Initializing SOSCF ***
---------------------------------------S-O-S-C-F--------------------------------------
Iteration    Energy (Eh)           Delta-E    RMSDP     MaxDP     MaxGrad    Time(sec)
--------------------------------------------------------------------------------------
    6    -2929.6347789592441586    -1.06e-03  1.07e-04  2.99e-03  2.32e-03     1.8
               *** Restarting incremental Fock matrix formation ***
    7    -2929.6348976358335676    -1.19e-04  7.62e-05  1.96e-03  2.05e-04     2.1
    8    -2929.6348984613673565    -8.26e-07  3.33e-05  9.53e-04  2.59e-04     1.7
                 **** Energy Check signals convergence ****

               *****************************************************
               *                     SUCCESS                       *
               *           SCF CONVERGED AFTER   8 CYCLES          *
               *****************************************************

             **** ENERGY FILE WAS UPDATED (sp.en.tmp) ****

----------------
TOTAL SCF ENERGY
----------------

Total Energy       :      -2929.63489846136736 Eh          -79719.41844 eV

Components:
Nuclear Repulsion  :       2815.61597138640855 Eh           76616.80570 eV
Electronic Energy  :      -5745.25086984777590 Eh         -156336.22415 eV
One Electron Energy:      -9650.53742573442651 Eh         -262604.47391 eV
Two Electron Energy:       3905.28655588665060 Eh          106268.24976 eV

Virial components:
Potential Energy   :      -5848.91657284969915 Eh         -159157.11134 eV
Kinetic Energy     :       2919.28167438833225 Eh           79437.69289 eV
Virial Ratio       :          2.00354649712766

DFT components:
N(Alpha)           :      101.000652205365 electrons
N(Beta)            :      101.000652205365 electrons
N(Total)           :      202.001304410731 electrons
E(X)               :     -231.810387778444 Eh       
E(C)               :       -7.300064527815 Eh       
E(XC)              :     -239.110452306259 Eh       

---------------
SCF CONVERGENCE
---------------

  Last Energy change         ...    8.2553e-07  Tolerance :   1.0000e-05
  Last MAX-Density change    ...    9.5282e-04  Tolerance :   1.0000e-03
  Last RMS-Density change    ...    3.3316e-05  Tolerance :   1.0000e-04
  Last DIIS Error            ...    2.3186e-03  Tolerance :   5.0000e-04
  Last Orbital Gradient      ...    2.5920e-04  Tolerance :   1.0000e-04
  Last Orbital Rotation      ...    3.4967e-04  Tolerance :   1.0000e-04


----------------
ORBITAL ENERGIES
----------------

  NO   OCC          E(Eh)            E(eV) 
   0   2.0000     -88.041552     -2395.7324 
   1   2.0000     -88.040799     -2395.7119 
   2   2.0000     -87.983117     -2394.1423 
   3   2.0000     -87.981830     -2394.1073 
   4   2.0000     -76.423845     -2079.5985 
   5   2.0000     -76.421614     -2079.5378 
   6   2.0000     -18.788813      -511.2696 
   7   2.0000     -18.787077      -511.2223 
   8   2.0000     -18.782909      -511.1090 
   9   2.0000     -18.782729      -511.1040 
  10   2.0000      -9.956008      -270.9167 
  11   2.0000      -9.951490      -270.7938 
  12   2.0000      -9.950336      -270.7624 
  13   2.0000      -9.948899      -270.7233 
  14   2.0000      -9.939823      -270.4763 
  15   2.0000      -9.886597      -269.0280 
  16   2.0000      -9.884836      -268.9801 
  17   2.0000      -9.883292      -268.9381 
  18   2.0000      -9.876392      -268.7503 
  19   2.0000      -7.686461      -209.1592 
  20   2.0000      -7.686222      -209.1527 
  21   2.0000      -7.628062      -207.5701 
  22   2.0000      -7.626321      -207.5228 
  23   2.0000      -6.420928      -174.7223 
  24   2.0000      -6.419211      -174.6756 
  25   2.0000      -5.714296      -155.4939 
  26   2.0000      -5.714152      -155.4900 
  27   2.0000      -5.710960      -155.4031 
  28   2.0000      -5.710750      -155.3974 
  29   2.0000      -5.703352      -155.1961 
  30   2.0000      -5.703190      -155.1917 
  31   2.0000      -5.656978      -153.9342 
  32   2.0000      -5.655108      -153.8833 
  33   2.0000      -5.648951      -153.7158 
  34   2.0000      -5.647874      -153.6865 
  35   2.0000      -5.646961      -153.6616 
  36   2.0000      -5.646672      -153.6538 
  37   2.0000      -4.643506      -126.3562 
  38   2.0000      -4.642685      -126.3339 
  39   2.0000      -4.641679      -126.3065 
  40   2.0000      -4.641477      -126.3010 
  41   2.0000      -4.640989      -126.2877 
  42   2.0000      -4.639752      -126.2541 
  43   2.0000      -0.981916       -26.7193 
  44   2.0000      -0.981693       -26.7132 
  45   2.0000      -0.940987       -25.6056 
  46   2.0000      -0.938959       -25.5504 
  47   2.0000      -0.760463       -20.6932 
  48   2.0000      -0.717662       -19.5286 
  49   2.0000      -0.706707       -19.2305 
  50   2.0000      -0.687574       -18.7098 
  51   2.0000      -0.684131       -18.6162 
  52   2.0000      -0.673075       -18.3153 
  53   2.0000      -0.649813       -17.6823 
  54   2.0000      -0.633567       -17.2402 
  55   2.0000      -0.600848       -16.3499 
  56   2.0000      -0.591505       -16.0957 
  57   2.0000      -0.572349       -15.5744 
  58   2.0000      -0.568030       -15.4569 
  59   2.0000      -0.561522       -15.2798 
  60   2.0000      -0.492611       -13.4046 
  61   2.0000      -0.485614       -13.2142 
  62   2.0000      -0.468184       -12.7399 
  63   2.0000      -0.467071       -12.7097 
  64   2.0000      -0.451584       -12.2882 
  65   2.0000      -0.446155       -12.1405 
  66   2.0000      -0.437839       -11.9142 
  67   2.0000      -0.434433       -11.8215 
  68   2.0000      -0.428583       -11.6623 
  69   2.0000      -0.416771       -11.3409 
  70   2.0000      -0.410647       -11.1743 
  71   2.0000      -0.396527       -10.7900 
  72   2.0000      -0.388058       -10.5596 
  73   2.0000      -0.387321       -10.5395 
  74   2.0000      -0.379303       -10.3214 
  75   2.0000      -0.373937       -10.1753 
  76   2.0000      -0.365987        -9.9590 
  77   2.0000      -0.355520        -9.6742 
  78   2.0000      -0.352370        -9.5885 
  79   2.0000      -0.351132        -9.5548 
  80   2.0000      -0.345045        -9.3891 
  81   2.0000      -0.343920        -9.3586 
  82   2.0000      -0.340170        -9.2565 
  83   2.0000      -0.334644        -9.1061 
  84   2.0000      -0.331512        -9.0209 
  85   2.0000      -0.309508        -8.4221 
  86   2.0000      -0.307791        -8.3754 
  87   2.0000      -0.292410        -7.9569 
  88   2.0000      -0.290471        -7.9041 
  89   2.0000      -0.287457        -7.8221 
  90   2.0000      -0.276566        -7.5258 
  91   2.0000      -0.270113        -7.3501 
  92   2.0000      -0.266881        -7.2622 
  93   2.0000      -0.260554        -7.0900 
  94   2.0000      -0.257010        -6.9936 
  95   2.0000      -0.238916        -6.5012 
  96   2.0000      -0.217743        -5.9251 
  97   2.0000      -0.205917        -5.6033 
  98   2.0000      -0.202753        -5.5172 
  99   2.0000      -0.194113        -5.2821 
 100   2.0000      -0.186651        -5.0790 
 101   0.0000      -0.039003        -1.0613 
 102   0.0000      -0.030952        -0.8422 
 103   0.0000      -0.013128        -0.3572 
 104   0.0000       0.003661         0.0996 
 105   0.0000       0.021573         0.5870 
 106   0.0000       0.036545         0.9944 
 107   0.0000       0.037311         1.0153 
 108   0.0000       0.039971         1.0877 
 109   0.0000       0.044035         1.1983 
 110   0.0000       0.045418         1.2359 
 111   0.0000       0.058455         1.5906 
*Only the first 10 virtual orbitals were printed.

                    ********************************
                    * MULLIKEN POPULATION ANALYSIS *
                    ********************************

-----------------------
MULLIKEN ATOMIC CHARGES
-----------------------
   0 C :   -0.320175
   1 C :    0.003311
   2 O :   -0.373615
   3 P :    0.607256
   4 S :   -0.310955
   5 O :   -0.352482
   6 C :   -0.007691
   7 C :   -0.315315
   8 S :   -0.108987
   9 C :   -0.357482
  10 S :   -0.078882
  11 P :    0.614685
  12 S :   -0.326754
  13 O :   -0.372351
  14 C :   -0.002796
  15 C :   -0.322184
  16 O :   -0.365645
  17 C :   -0.011385
  18 C :   -0.303881
  19 H :    0.118344
  20 H :    0.121151
  21 H :    0.111734
  22 H :    0.110448
  23 H :    0.102407
  24 H :    0.110716
  25 H :    0.124989
  26 H :    0.123807
  27 H :    0.114733
  28 H :    0.125684
  29 H :    0.185078
  30 H :    0.202145
  31 H :    0.109741
  32 H :    0.105026
  33 H :    0.129297
  34 H :    0.113375
  35 H :    0.119837
  36 H :    0.130677
  37 H :    0.102184
  38 H :    0.119752
  39 H :    0.110427
  40 H :    0.113775
Sum of atomic charges:   -0.0000000

--------------------------------
MULLIKEN REDUCED ORBITAL CHARGES
--------------------------------
  0 C s       :     3.103549  s :     3.103549
      pz      :     1.076649  p :     3.188484
      px      :     1.089130
      py      :     1.022705
      dz2     :     0.005601  d :     0.028142
      dxz     :     0.004162
      dyz     :     0.006264
      dx2y2   :     0.007439
      dxy     :     0.004675

  1 C s       :     3.072479  s :     3.072479
      pz      :     0.863318  p :     2.863320
      px      :     1.023640
      py      :     0.976362
      dz2     :     0.014787  d :     0.060890
      dxz     :     0.009271
      dyz     :     0.016249
      dx2y2   :     0.012446
      dxy     :     0.008137

  2 O s       :     3.754456  s :     3.754456
      pz      :     1.517016  p :     4.606425
      px      :     1.388235
      py      :     1.701174
      dz2     :     0.003014  d :     0.012733
      dxz     :     0.002230
      dyz     :     0.002275
      dx2y2   :     0.003312
      dxy     :     0.001901

  3 P s       :     5.206985  s :     5.206985
      pz      :     2.898058  p :     8.601298
      px      :     2.831279
      py      :     2.871961
      dz2     :     0.102929  d :     0.584462
      dxz     :     0.114033
      dyz     :     0.133658
      dx2y2   :     0.131134
      dxy     :     0.102708

  4 S s       :     5.912163  s :     5.912163
      pz      :     3.201704  p :    10.355908
      px      :     3.544754
      py      :     3.609449
      dz2     :     0.012931  d :     0.042885
      dxz     :     0.015201
      dyz     :     0.007353
      dx2y2   :     0.003877
      dxy     :     0.003522

  5 O s       :     3.748857  s :     3.748857
      pz      :     1.272475  p :     4.590548
      px      :     1.771853
      py      :     1.546221
      dz2     :     0.003024  d :     0.013077
      dxz     :     0.001902
      dyz     :     0.003994
      dx2y2   :     0.002427
      dxy     :     0.001730

  6 C s       :     3.086598  s :     3.086598
      pz      :     0.714069  p :     2.861037
      px      :     1.051722
      py      :     1.095246
      dz2     :     0.019323  d :     0.060055
      dxz     :     0.014783
      dyz     :     0.009924
      dx2y2   :     0.009489
      dxy     :     0.006536

  7 C s       :     3.104109  s :     3.104109
      pz      :     1.066247  p :     3.183065
      px      :     1.038065
      py      :     1.078753
      dz2     :     0.007879  d :     0.028141
      dxz     :     0.004204
      dyz     :     0.002394
      dx2y2   :     0.008197
      dxy     :     0.005467

  8 S s       :     5.878015  s :     5.878015
      pz      :     3.412521  p :    10.157643
      px      :     3.439547
      py      :     3.305575
      dz2     :     0.009601  d :     0.073329
      dxz     :     0.018495
      dyz     :     0.019795
      dx2y2   :     0.014408
      dxy     :     0.011030

  9 C s       :     3.221701  s :     3.221701
      pz      :     1.067471  p :     3.096284
      px      :     0.906794
      py      :     1.122019
      dz2     :     0.006616  d :     0.039497
      dxz     :     0.008839
      dyz     :     0.006938
      dx2y2   :     0.011263
      dxy     :     0.005841

 10 S s       :     5.868946  s :     5.868946
      pz      :     3.724825  p :    10.134714
      px      :     3.139205
      py      :     3.270683
      dz2     :     0.010358  d :     0.075221
      dxz     :     0.013775
      dyz     :     0.006598
      dx2y2   :     0.027185
      dxy     :     0.017305

 11 P s       :     5.203471  s :     5.203471
      pz      :     2.824542  p :     8.591259
      px      :     2.839384
      py      :     2.927333
      dz2     :     0.149554  d :     0.590586
      dxz     :     0.124580
      dyz     :     0.085952
      dx2y2   :     0.123415
      dxy     :     0.107084

 12 S s       :     5.917910  s :     5.917910
      pz      :     3.562400  p :    10.365450
      px      :     3.524522
      py      :     3.278527
      dz2     :     0.005354  d :     0.043394
      dxz     :     0.006540
      dyz     :     0.010299
      dx2y2   :     0.008612
      dxy     :     0.012590

 13 O s       :     3.757795  s :     3.757795
      pz      :     1.389073  p :     4.601463
      px      :     1.445737
      py      :     1.766652
      dz2     :     0.003998  d :     0.013093
      dxz     :     0.002515
      dyz     :     0.001730
      dx2y2   :     0.002901
      dxy     :     0.001949

 14 C s       :     3.073559  s :     3.073559
      pz      :     0.730281  p :     2.868714
      px      :     1.061472
      py      :     1.076962
      dz2     :     0.021383  d :     0.060523
      dxz     :     0.009617
      dyz     :     0.013468
      dx2y2   :     0.011597
      dxy     :     0.004457

 15 C s       :     3.108778  s :     3.108778
      pz      :     1.049683  p :     3.185365
      px      :     1.092699
      py      :     1.042983
      dz2     :     0.006921  d :     0.028041
      dxz     :     0.003472
      dyz     :     0.004771
      dx2y2   :     0.009682
      dxy     :     0.003195

 16 O s       :     3.753481  s :     3.753481
      pz      :     1.351665  p :     4.598948
      px      :     1.756415
      py      :     1.490867
      dz2     :     0.004659  d :     0.013216
      dxz     :     0.001962
      dyz     :     0.002594
      dx2y2   :     0.002395
      dxy     :     0.001606

 17 C s       :     3.087639  s :     3.087639
      pz      :     0.994670  p :     2.863585
      px      :     1.061331
      py      :     0.807584
      dz2     :     0.013963  d :     0.060162
      dxz     :     0.004997
      dyz     :     0.012750
      dx2y2   :     0.012634
      dxy     :     0.015817

 18 C s       :     3.095277  s :     3.095277
      pz      :     1.085838  p :     3.180546
      px      :     1.034377
      py      :     1.060332
      dz2     :     0.007514  d :     0.028058
      dxz     :     0.002498
      dyz     :     0.005982
      dx2y2   :     0.004914
      dxy     :     0.007150

 19 H s       :     0.881656  s :     0.881656

 20 H s       :     0.878849  s :     0.878849

 21 H s       :     0.888266  s :     0.888266

 22 H s       :     0.889552  s :     0.889552

 23 H s       :     0.897593  s :     0.897593

 24 H s       :     0.889284  s :     0.889284

 25 H s       :     0.875011  s :     0.875011

 26 H s       :     0.876193  s :     0.876193

 27 H s       :     0.885267  s :     0.885267

 28 H s       :     0.874316  s :     0.874316

 29 H s       :     0.814922  s :     0.814922

 30 H s       :     0.797855  s :     0.797855

 31 H s       :     0.890259  s :     0.890259

 32 H s       :     0.894974  s :     0.894974

 33 H s       :     0.870703  s :     0.870703

 34 H s       :     0.886625  s :     0.886625

 35 H s       :     0.880163  s :     0.880163

 36 H s       :     0.869323  s :     0.869323

 37 H s       :     0.897816  s :     0.897816

 38 H s       :     0.880248  s :     0.880248

 39 H s       :     0.889573  s :     0.889573

 40 H s       :     0.886225  s :     0.886225


------------------------
MULLIKEN OVERLAP CHARGES
------------------------
B(  0-C ,  1-C ) :   0.9130 B(  0-C ,  2-O ) :  -0.1005 B(  0-C , 19-H ) :   0.7293 
B(  0-C , 20-H ) :   0.7287 B(  0-C , 21-H ) :   0.6878 B(  0-C , 22-H ) :  -0.0721 
B(  0-C , 23-H ) :  -0.0537 B(  1-C ,  2-O ) :   0.5865 B(  1-C ,  3-P ) :  -0.0908 
B(  1-C , 22-H ) :   0.7235 B(  1-C , 23-H ) :   0.7286 B(  2-O ,  3-P ) :   0.6099 
B(  2-O ,  4-S ) :  -0.0746 B(  2-O ,  5-O ) :  -0.0680 B(  2-O ,  8-S ) :  -0.0747 
B(  2-O , 22-H ) :  -0.0678 B(  2-O , 23-H ) :  -0.0594 B(  3-P ,  4-S ) :   0.9277 
B(  3-P ,  5-O ) :   0.6803 B(  3-P ,  6-C ) :  -0.0877 B(  3-P ,  8-S ) :   0.5159 
B(  3-P ,  9-C ) :  -0.0599 B(  4-S ,  5-O ) :  -0.0567 B(  4-S ,  8-S ) :  -0.0839 
B(  4-S ,  9-C ) :  -0.0615 B(  4-S , 22-H ) :   0.0661 B(  4-S , 30-H ) :   0.1282 
B(  5-O ,  6-C ) :   0.5553 B(  5-O ,  7-C ) :  -0.0962 B(  5-O ,  8-S ) :  -0.0646 
B(  5-O , 24-H ) :  -0.0569 B(  5-O , 25-H ) :  -0.0623 B(  6-C ,  7-C ) :   0.9212 
B(  6-C , 24-H ) :   0.7331 B(  6-C , 25-H ) :   0.7219 B(  6-C , 28-H ) :  -0.0505 
B(  7-C , 25-H ) :  -0.0715 B(  7-C , 26-H ) :   0.7325 B(  7-C , 27-H ) :   0.6920 
B(  7-C , 28-H ) :   0.7523 B(  8-S ,  9-C ) :   0.4887 B(  8-S , 10-S ) :  -0.1480 
B(  8-S , 29-H ) :  -0.0604 B(  8-S , 30-H ) :  -0.0604 B(  9-C , 10-S ) :   0.4553 
B(  9-C , 29-H ) :   0.7210 B(  9-C , 30-H ) :   0.5994 B( 10-S , 11-P ) :   0.5250 
B( 10-S , 12-S ) :  -0.0741 B( 10-S , 13-O ) :  -0.0655 B( 10-S , 16-O ) :  -0.0803 
B( 10-S , 29-H ) :  -0.0709 B( 11-P , 12-S ) :   0.9446 B( 11-P , 13-O ) :   0.6262 
B( 11-P , 14-C ) :  -0.0754 B( 11-P , 16-O ) :   0.6432 B( 11-P , 17-C ) :  -0.0810 
B( 12-S , 13-O ) :  -0.0809 B( 12-S , 16-O ) :  -0.0677 B( 12-S , 31-H ) :   0.0667 
B( 13-O , 14-C ) :   0.5587 B( 13-O , 15-C ) :  -0.0903 B( 13-O , 16-O ) :  -0.0545 
B( 13-O , 31-H ) :  -0.0700 B( 13-O , 32-H ) :  -0.0581 B( 14-C , 15-C ) :   0.9359 
B( 14-C , 31-H ) :   0.7133 B( 14-C , 32-H ) :   0.7239 B( 15-C , 31-H ) :  -0.0692 
B( 15-C , 33-H ) :   0.7225 B( 15-C , 34-H ) :   0.6898 B( 15-C , 35-H ) :   0.7281 
B( 16-O , 17-C ) :   0.5493 B( 16-O , 18-C ) :  -0.0915 B( 16-O , 36-H ) :  -0.0619 
B( 16-O , 37-H ) :  -0.0586 B( 17-C , 18-C ) :   0.8930 B( 17-C , 36-H ) :   0.7260 
B( 17-C , 37-H ) :   0.7344 B( 18-C , 36-H ) :  -0.0722 B( 18-C , 37-H ) :  -0.0532 
B( 18-C , 38-H ) :   0.7242 B( 18-C , 39-H ) :   0.7020 B( 18-C , 40-H ) :   0.7210 
B( 19-H , 20-H ) :  -0.0556 B( 22-H , 23-H ) :  -0.0647 B( 24-H , 25-H ) :  -0.0656 
B( 26-H , 28-H ) :  -0.0563 B( 31-H , 32-H ) :  -0.0643 B( 33-H , 35-H ) :  -0.0547 
B( 36-H , 37-H ) :  -0.0643 B( 38-H , 40-H ) :  -0.0542 


                     *******************************
                     * LOEWDIN POPULATION ANALYSIS *
                     *******************************

----------------------
LOEWDIN ATOMIC CHARGES
----------------------
   0 C :   -0.369490
   1 C :   -0.118666
   2 O :   -0.249172
   3 P :    0.577099
   4 S :   -0.295563
   5 O :   -0.224299
   6 C :   -0.115588
   7 C :   -0.367130
   8 S :    0.070833
   9 C :   -0.483038
  10 S :    0.093435
  11 P :    0.569193
  12 S :   -0.313771
  13 O :   -0.242932
  14 C :   -0.120623
  15 C :   -0.371654
  16 O :   -0.236945
  17 C :   -0.120865
  18 C :   -0.365465
  19 H :    0.124168
  20 H :    0.118993
  21 H :    0.130032
  22 H :    0.110018
  23 H :    0.117766
  24 H :    0.123875
  25 H :    0.110092
  26 H :    0.129627
  27 H :    0.132295
  28 H :    0.116033
  29 H :    0.136734
  30 H :    0.123802
  31 H :    0.109430
  32 H :    0.118607
  33 H :    0.122020
  34 H :    0.131370
  35 H :    0.124428
  36 H :    0.111211
  37 H :    0.118337
  38 H :    0.121315
  39 H :    0.129818
  40 H :    0.124670

-------------------------------
LOEWDIN REDUCED ORBITAL CHARGES
-------------------------------
  0 C s       :     2.953305  s :     2.953305
      pz      :     1.132679  p :     3.346774
      px      :     1.134466
      py      :     1.079629
      dz2     :     0.014422  d :     0.069412
      dxz     :     0.009837
      dyz     :     0.014572
      dx2y2   :     0.020262
      dxy     :     0.010318

  1 C s       :     2.925516  s :     2.925516
      pz      :     0.937658  p :     3.056830
      px      :     1.076787
      py      :     1.042385
      dz2     :     0.034912  d :     0.136320
      dxz     :     0.019670
      dyz     :     0.034090
      dx2y2   :     0.031601
      dxy     :     0.016047

  2 O s       :     3.498622  s :     3.498622
      pz      :     1.558939  p :     4.726892
      px      :     1.469446
      py      :     1.698507
      dz2     :     0.005863  d :     0.023657
      dxz     :     0.004055
      dyz     :     0.003964
      dx2y2   :     0.006818
      dxy     :     0.002957

  3 P s       :     5.056578  s :     5.056578
      pz      :     2.883598  p :     8.556325
      px      :     2.821743
      py      :     2.850984
      dz2     :     0.136716  d :     0.809998
      dxz     :     0.151188
      dyz     :     0.195657
      dx2y2   :     0.194951
      dxy     :     0.131486

  4 S s       :     5.757169  s :     5.757169
      pz      :     3.293099  p :    10.480773
      px      :     3.559722
      py      :     3.627951
      dz2     :     0.017320  d :     0.057621
      dxz     :     0.022433
      dyz     :     0.009204
      dx2y2   :     0.004389
      dxy     :     0.004275

  5 O s       :     3.488360  s :     3.488360
      pz      :     1.345434  p :     4.712192
      px      :     1.761204
      py      :     1.605554
      dz2     :     0.006311  d :     0.023747
      dxz     :     0.003518
      dyz     :     0.008326
      dx2y2   :     0.003759
      dxy     :     0.001834

  6 C s       :     2.927305  s :     2.927305
      pz      :     0.806877  p :     3.054914
      px      :     1.109243
      py      :     1.138794
      dz2     :     0.043116  d :     0.133369
      dxz     :     0.031894
      dyz     :     0.020654
      dx2y2   :     0.021610
      dxy     :     0.016095

  7 C s       :     2.951948  s :     2.951948
      pz      :     1.126360  p :     3.345530
      px      :     1.095342
      py      :     1.123828
      dz2     :     0.019603  d :     0.069652
      dxz     :     0.010615
      dyz     :     0.005719
      dx2y2   :     0.019805
      dxy     :     0.013910

  8 S s       :     5.643609  s :     5.643609
      pz      :     3.446324  p :    10.192859
      px      :     3.450460
      py      :     3.296075
      dz2     :     0.010882  d :     0.092700
      dxz     :     0.023458
      dyz     :     0.025014
      dx2y2   :     0.018124
      dxy     :     0.015222

  9 C s       :     3.064608  s :     3.064608
      pz      :     1.129647  p :     3.331317
      px      :     1.030981
      py      :     1.170689
      dz2     :     0.013831  d :     0.087114
      dxz     :     0.019921
      dyz     :     0.015903
      dx2y2   :     0.025071
      dxy     :     0.012388

 10 S s       :     5.634180  s :     5.634180
      pz      :     3.711035  p :    10.177095
      px      :     3.172935
      py      :     3.293125
      dz2     :     0.013401  d :     0.095290
      dxz     :     0.017608
      dyz     :     0.006998
      dx2y2   :     0.036406
      dxy     :     0.020877

 11 P s       :     5.055179  s :     5.055179
      pz      :     2.797312  p :     8.554965
      px      :     2.830195
      py      :     2.927458
      dz2     :     0.218907  d :     0.820663
      dxz     :     0.167055
      dyz     :     0.110575
      dx2y2   :     0.177905
      dxy     :     0.146222

 12 S s       :     5.768576  s :     5.768576
      pz      :     3.585094  p :    10.486979
      px      :     3.542008
      py      :     3.359878
      dz2     :     0.006380  d :     0.058216
      dxz     :     0.008754
      dyz     :     0.014567
      dx2y2   :     0.010331
      dxy     :     0.018184

 13 O s       :     3.500543  s :     3.500543
      pz      :     1.433541  p :     4.718426
      px      :     1.519020
      py      :     1.765866
      dz2     :     0.008091  d :     0.023962
      dxz     :     0.004697
      dyz     :     0.002978
      dx2y2   :     0.005534
      dxy     :     0.002662

 14 C s       :     2.927307  s :     2.927307
      pz      :     0.828168  p :     3.057990
      px      :     1.107050
      py      :     1.122772
      dz2     :     0.046320  d :     0.135325
      dxz     :     0.019782
      dyz     :     0.032716
      dx2y2   :     0.026860
      dxy     :     0.009647

 15 C s       :     2.954695  s :     2.954695
      pz      :     1.109371  p :     3.347772
      px      :     1.137151
      py      :     1.101250
      dz2     :     0.016776  d :     0.069187
      dxz     :     0.008140
      dyz     :     0.013331
      dx2y2   :     0.023086
      dxy     :     0.007856

 16 O s       :     3.497800  s :     3.497800
      pz      :     1.435908  p :     4.714931
      px      :     1.748504
      py      :     1.530520
      dz2     :     0.009814  d :     0.024214
      dxz     :     0.003083
      dyz     :     0.004839
      dx2y2   :     0.004002
      dxy     :     0.002476

 17 C s       :     2.927881  s :     2.927881
      pz      :     1.047882  p :     3.058798
      px      :     1.116598
      py      :     0.894318
      dz2     :     0.032671  d :     0.134186
      dxz     :     0.009466
      dyz     :     0.027226
      dx2y2   :     0.027417
      dxy     :     0.037405

 18 C s       :     2.952432  s :     2.952432
      pz      :     1.134772  p :     3.343530
      px      :     1.091958
      py      :     1.116799
      dz2     :     0.018758  d :     0.069503
      dxz     :     0.005716
      dyz     :     0.014297
      dx2y2   :     0.011942
      dxy     :     0.018791

 19 H s       :     0.875832  s :     0.875832

 20 H s       :     0.881007  s :     0.881007

 21 H s       :     0.869968  s :     0.869968

 22 H s       :     0.889982  s :     0.889982

 23 H s       :     0.882234  s :     0.882234

 24 H s       :     0.876125  s :     0.876125

 25 H s       :     0.889908  s :     0.889908

 26 H s       :     0.870373  s :     0.870373

 27 H s       :     0.867705  s :     0.867705

 28 H s       :     0.883967  s :     0.883967

 29 H s       :     0.863266  s :     0.863266

 30 H s       :     0.876198  s :     0.876198

 31 H s       :     0.890570  s :     0.890570

 32 H s       :     0.881393  s :     0.881393

 33 H s       :     0.877980  s :     0.877980

 34 H s       :     0.868630  s :     0.868630

 35 H s       :     0.875572  s :     0.875572

 36 H s       :     0.888789  s :     0.888789

 37 H s       :     0.881663  s :     0.881663

 38 H s       :     0.878685  s :     0.878685

 39 H s       :     0.870182  s :     0.870182

 40 H s       :     0.875330  s :     0.875330


---------------------------------
LOEWDIN BOND ORDERS (THRESH 0.050000)
---------------------------------
B(  0-C ,  1-C ) :   1.1546 B(  0-C ,  2-O ) :   0.0590 B(  0-C , 19-H ) :   0.9350 
B(  0-C , 20-H ) :   0.9305 B(  0-C , 21-H ) :   0.9256 B(  1-C ,  2-O ) :   1.1011 
B(  1-C ,  3-P ) :   0.0627 B(  1-C , 22-H ) :   0.9066 B(  1-C , 23-H ) :   0.9168 
B(  2-O ,  3-P ) :   1.2486 B(  2-O ,  4-S ) :   0.0905 B(  2-O ,  5-O ) :   0.0532 
B(  2-O ,  8-S ) :   0.0637 B(  3-P ,  4-S ) :   1.7029 B(  3-P ,  5-O ) :   1.3220 
B(  3-P ,  6-C ) :   0.0615 B(  3-P ,  8-S ) :   1.0368 B(  4-S ,  5-O ) :   0.0661 
B(  4-S ,  8-S ) :   0.1304 B(  4-S , 30-H ) :   0.0812 B(  5-O ,  6-C ) :   1.0755 
B(  5-O ,  7-C ) :   0.0582 B(  5-O ,  8-S ) :   0.0650 B(  6-C ,  7-C ) :   1.1613 
B(  6-C , 24-H ) :   0.9160 B(  6-C , 25-H ) :   0.9072 B(  7-C , 26-H ) :   0.9335 
B(  7-C , 27-H ) :   0.9234 B(  7-C , 28-H ) :   0.9272 B(  8-S ,  9-C ) :   1.1621 
B(  8-S , 10-S ) :   0.0954 B(  9-C , 10-S ) :   1.1707 B(  9-C , 29-H ) :   0.9245 
B(  9-C , 30-H ) :   0.8882 B( 10-S , 11-P ) :   1.0772 B( 10-S , 12-S ) :   0.1233 
B( 10-S , 13-O ) :   0.0589 B( 10-S , 16-O ) :   0.0532 B( 11-P , 12-S ) :   1.7144 
B( 11-P , 13-O ) :   1.2688 B( 11-P , 14-C ) :   0.0649 B( 11-P , 16-O ) :   1.2967 
B( 11-P , 17-C ) :   0.0639 B( 12-S , 13-O ) :   0.0937 B( 12-S , 16-O ) :   0.0947 
B( 13-O , 14-C ) :   1.0919 B( 13-O , 15-C ) :   0.0595 B( 14-C , 15-C ) :   1.1574 
B( 14-C , 31-H ) :   0.9064 B( 14-C , 32-H ) :   0.9170 B( 15-C , 33-H ) :   0.9266 
B( 15-C , 34-H ) :   0.9253 B( 15-C , 35-H ) :   0.9354 B( 16-O , 17-C ) :   1.0821 
B( 16-O , 18-C ) :   0.0578 B( 17-C , 18-C ) :   1.1574 B( 17-C , 36-H ) :   0.9036 
B( 17-C , 37-H ) :   0.9171 B( 18-C , 38-H ) :   0.9298 B( 18-C , 39-H ) :   0.9262 
B( 18-C , 40-H ) :   0.9360 

------------------------------------------
LOEWDIN REDUCED ORBITAL POPULATIONS PER MO
-------------------------------------------
THRESHOLD FOR PRINTING IS 0.1%%
                      0         1         2         3         4         5   
                 -88.04155 -88.04080 -87.98312 -87.98183 -76.42384 -76.42161
                   2.00000   2.00000   2.00000   2.00000   2.00000   2.00000
                  --------  --------  --------  --------  --------  --------
 3 P  s               0.0       0.0       0.0       0.0     100.0       0.0
 4 S  s               0.0       0.0     100.0       0.0       0.0       0.0
 8 S  s              99.8       0.2       0.0       0.0       0.0       0.0
10 S  s               0.2      99.8       0.0       0.0       0.0       0.0
11 P  s               0.0       0.0       0.0       0.0       0.0     100.0
12 S  s               0.0       0.0       0.0     100.0       0.0       0.0

                      6         7         8         9        10        11   
                 -18.78881 -18.78708 -18.78291 -18.78273  -9.95601  -9.95149
                   2.00000   2.00000   2.00000   2.00000   2.00000   2.00000
                  --------  --------  --------  --------  --------  --------
 2 O  s               0.0       0.0      99.9       0.0       0.0       0.0
 5 O  s               0.0      99.9       0.0       0.0       0.0       0.0
 6 C  s               0.0       0.0       0.0       0.0       0.0      99.7
 9 C  s               0.0       0.0       0.0       0.0      99.8       0.0
13 O  s              99.9       0.0       0.0       0.0       0.0       0.0
16 O  s               0.0       0.0       0.0      99.9       0.0       0.0

                     12        13        14        15        16        17   
                  -9.95034  -9.94890  -9.93982  -9.88660  -9.88484  -9.88329
                   2.00000   2.00000   2.00000   2.00000   2.00000   2.00000
                  --------  --------  --------  --------  --------  --------
 0 C  s               0.0       0.0       0.0       0.0      99.7       0.0
 0 C  py              0.0       0.1       0.0       0.0       0.0       0.0
 1 C  s               0.0      99.7       0.0       0.0       0.0       0.0
 1 C  py              0.0       0.0       0.0       0.0       0.1       0.0
 7 C  s               0.0       0.0       0.0      99.7       0.0       0.0
14 C  s              99.7       0.0       0.0       0.0       0.0       0.0
15 C  s               0.0       0.0       0.0       0.0       0.0      99.7
17 C  s               0.0       0.0      99.7       0.0       0.0       0.0

                     18        19        20        21        22        23   
                  -9.87639  -7.68646  -7.68622  -7.62806  -7.62632  -6.42093
                   2.00000   2.00000   2.00000   2.00000   2.00000   2.00000
                  --------  --------  --------  --------  --------  --------
 2 O  px              0.0       0.0       0.0       0.0       0.0       0.2
 3 P  s               0.0       0.0       0.0       0.0       0.0      99.3
 4 S  s               0.0       0.0       0.0      99.9       0.0       0.0
 5 O  pz              0.0       0.0       0.0       0.0       0.0       0.1
 5 O  py              0.0       0.0       0.0       0.0       0.0       0.2
 8 S  s               0.0       0.8      98.9       0.0       0.0       0.0
 9 C  px              0.0       0.1       0.1       0.0       0.0       0.0
10 S  s               0.0      98.9       0.8       0.0       0.0       0.0
12 S  s               0.0       0.0       0.0       0.0      99.9       0.0
18 C  s              99.7       0.0       0.0       0.0       0.0       0.0

                     24        25        26        27        28        29   
                  -6.41921  -5.71430  -5.71415  -5.71096  -5.71075  -5.70335
                   2.00000   2.00000   2.00000   2.00000   2.00000   2.00000
                  --------  --------  --------  --------  --------  --------
 8 S  pz              0.0       0.0       0.4       0.1      78.0       0.0
 8 S  px              0.0       0.0      35.6       0.0      11.5       0.1
 8 S  py              0.0       0.0      64.0       0.0      10.5       0.0
10 S  pz              0.0       5.6       0.0       9.8       0.0      84.4
10 S  px              0.0      63.2       0.0      23.2       0.0      13.6
10 S  py              0.0      31.2       0.0      66.9       0.1       1.8
11 P  s              99.3       0.0       0.0       0.0       0.0       0.0
13 O  px              0.2       0.0       0.0       0.0       0.0       0.0
16 O  pz              0.2       0.0       0.0       0.0       0.0       0.0

                     30        31        32        33        34        35   
                  -5.70319  -5.65698  -5.65511  -5.64895  -5.64787  -5.64696
                   2.00000   2.00000   2.00000   2.00000   2.00000   2.00000
                  --------  --------  --------  --------  --------  --------
 4 S  pz              0.0      72.2       0.0       1.7      26.0       0.0
 4 S  px              0.0      20.3       0.0      10.2      69.5       0.0
 4 S  py              0.0       7.4       0.0      88.1       4.5       0.0
 8 S  pz             21.5       0.0       0.0       0.0       0.0       0.0
 8 S  px             52.8       0.0       0.0       0.0       0.0       0.0
 8 S  py             25.5       0.0       0.0       0.0       0.0       0.0
10 S  pz              0.1       0.0       0.0       0.0       0.0       0.0
12 S  pz              0.0       0.0      18.4       0.0       0.0      12.4
12 S  px              0.0       0.0      20.7       0.0       0.0      50.6
12 S  py              0.0       0.0      60.9       0.0       0.0      37.0

                     36        37        38        39        40        41   
                  -5.64667  -4.64351  -4.64269  -4.64168  -4.64148  -4.64099
                   2.00000   2.00000   2.00000   2.00000   2.00000   2.00000
                  --------  --------  --------  --------  --------  --------
 3 P  pz              0.0      10.4       2.2       0.0      87.3       0.0
 3 P  px              0.0      12.3      80.6       0.0       7.0       0.0
 3 P  py              0.0      77.3      17.0       0.0       5.6       0.0
11 P  pz              0.0       0.0       0.0      62.9       0.0      30.7
11 P  px              0.0       0.0       0.0      36.3       0.0      59.6
11 P  py              0.0       0.0       0.0       0.7       0.0       9.7
12 S  pz             69.2       0.0       0.0       0.0       0.0       0.0
12 S  px             28.7       0.0       0.0       0.0       0.0       0.0
12 S  py              2.1       0.0       0.0       0.0       0.0       0.0

                     42        43        44        45        46        47   
                  -4.63975  -0.98192  -0.98169  -0.94099  -0.93896  -0.76046
                   2.00000   2.00000   2.00000   2.00000   2.00000   2.00000
                  --------  --------  --------  --------  --------  --------
 0 C  s               0.0       0.0       0.1       0.0       0.4       0.0
 0 C  py              0.0       0.1       0.3       0.0       0.6       0.0
 1 C  s               0.0       0.6       2.3       0.0       5.4       0.2
 1 C  pz              0.0       0.4       1.6       0.0       2.9       0.0
 1 C  px              0.0       0.1       0.5       0.0       0.9       0.0
 1 C  py              0.0       0.1       0.5       0.0       0.8       0.0
 1 C  dxz             0.0       0.0       0.1       0.0       0.1       0.0
 1 C  dyz             0.0       0.0       0.1       0.0       0.2       0.0
 2 O  s               0.0       5.6      20.0       0.0      33.4       0.2
 2 O  pz              0.0       0.0       0.1       0.0       0.9       0.1
 2 O  px              0.0       0.3       0.9       0.0       0.2       0.2
 2 O  py              0.0       0.0       0.0       0.0       0.4       0.0
 3 P  s               0.0       3.2      11.0       0.0       0.0       2.2
 3 P  pz              0.0       0.2       0.8       0.0       3.2       0.1
 3 P  px              0.0       0.6       2.1       0.0       4.2       0.6
 3 P  py              0.0       0.3       1.1       0.0       3.1       1.3
 3 P  dz2             0.0       0.0       0.0       0.0       0.5       0.0
 3 P  dxz             0.0       0.0       0.0       0.0       0.1       0.0
 3 P  dyz             0.0       0.2       0.6       0.0       0.7       0.1
 3 P  dx2y2           0.0       0.0       0.0       0.0       2.0       0.0
 4 S  s               0.0       0.1       0.3       0.0       0.0       0.5
 4 S  pz              0.0       0.1       0.2       0.0       0.0       0.1
 5 O  s               0.0       7.0      24.5       0.0      27.4       0.2
 5 O  pz              0.0       0.0       0.0       0.0       0.4       0.3
 5 O  py              0.0       0.4       1.3       0.0       0.5       0.1
 6 C  s               0.0       0.8       2.8       0.0       4.0       0.3
 6 C  pz              0.0       0.9       3.1       0.0       3.4       0.0
 6 C  dz2             0.0       0.1       0.2       0.0       0.3       0.0
 7 C  s               0.0       0.1       0.2       0.0       0.3       0.1
 7 C  pz              0.0       0.0       0.1       0.0       0.1       0.0
 7 C  px              0.0       0.1       0.2       0.0       0.3       0.0
 8 S  s               0.0       0.1       0.2       0.0       0.0      17.7
 8 S  pz              0.0       0.0       0.1       0.0       0.0       1.6
 8 S  px              0.0       0.0       0.0       0.0       0.0       1.1
 8 S  py              0.0       0.1       0.2       0.0       0.0       0.1
 8 S  dxz             0.0       0.0       0.0       0.0       0.0       0.1
 8 S  dxy             0.0       0.0       0.0       0.0       0.0       0.1
 9 C  s               0.0       0.0       0.0       0.0       0.0      27.1
 9 C  pz              0.0       0.0       0.0       0.0       0.0       1.8
 9 C  px              0.0       0.0       0.0       0.0       0.0       0.2
 9 C  py              0.0       0.0       0.0       0.0       0.0       0.3
10 S  s               0.0       0.3       0.1       0.0       0.0      19.8
10 S  pz              0.0       0.0       0.0       0.0       0.0       0.4
10 S  px              0.0       0.0       0.0       0.0       0.0       1.9
10 S  py              0.0       0.3       0.1       0.0       0.0       0.6
10 S  dxz             0.0       0.0       0.0       0.0       0.0       0.1
11 P  s               0.0      11.1       3.1       0.1       0.0       2.7
11 P  pz              6.3       0.6       0.2       8.5       0.0       0.0
11 P  px              4.0       3.1       0.9       2.2       0.0       0.9
11 P  py             89.6       0.0       0.0       0.2       0.0       1.4
11 P  dz2             0.0       0.2       0.1       2.0       0.0       0.1
11 P  dxz             0.0       0.1       0.0       0.7       0.0       0.0
11 P  dx2y2           0.0       0.4       0.1       0.5       0.0       0.1
[...]
 1 C  px              0.0       0.0       0.4       0.1
 1 C  py              0.0       0.0       0.5       0.1
 1 C  dz2             0.0       0.0       1.2       0.3
 1 C  dxz             0.0       0.0       2.3       0.6
 1 C  dyz             0.1       0.0       2.1       0.5
 1 C  dxy             0.0       0.0       0.9       0.2
 2 O  s               0.6       0.0       0.5       0.0
 2 O  pz              0.0       0.0       1.7       0.4
 2 O  px              0.2       0.0       2.2       0.7
 2 O  py              0.0       0.0       0.6       0.2
 2 O  dz2             0.5       0.0      15.4       4.3
 2 O  dxz             0.9       0.0       5.3       0.9
 2 O  dyz             0.1       0.0      14.6       3.3
 2 O  dx2y2           3.5       0.0       8.1       3.1
 2 O  dxy             0.5       0.0       2.4       0.4
 3 P  s               0.2       0.0       0.0       0.0
 3 P  pz              0.0       0.0       0.6       0.2
 3 P  px              0.4       0.0       0.6       0.3
 3 P  py              0.1       0.0       0.7       0.3
 3 P  dz2             0.1       0.0       0.1       0.0
 3 P  dxz             0.0       0.0       0.4       0.1
 3 P  dyz             0.0       0.0       0.3       0.1
 3 P  dx2y2           0.7       0.0       0.4       0.2
 3 P  dxy             0.0       0.0       0.2       0.0
 5 O  s               4.9       0.0       0.6       0.3
 5 O  pz              2.5       0.0       0.7       0.3
 5 O  py              0.0       0.0       0.3       0.2
 5 O  dz2            58.9       0.3       0.2       0.0
 5 O  dxz             6.7       0.1       0.3       0.1
 5 O  dyz             0.0       0.0       8.2       3.4
 5 O  dx2y2           0.1       0.0       2.3       1.0
 5 O  dxy             0.0       0.0       0.2       0.0
 6 C  s               1.6       0.0       0.0       0.0
 6 C  pz              3.0       0.0       0.1       0.0
 6 C  px              0.2       0.0       0.0       0.0
 6 C  dz2            11.2       0.1       0.2       0.0
 6 C  dxz             0.9       0.0       0.0       0.0
 6 C  dyz             0.2       0.0       0.1       0.1
 7 C  dxz             0.3       0.0       0.0       0.0
11 P  s               0.0       0.5       0.0       0.0
11 P  pz              0.0       0.0       0.5       2.0
11 P  px              0.0       0.4       0.1       0.4
11 P  dz2             0.0       0.0       0.1       0.6
11 P  dxz             0.0       0.2       0.2       0.7
11 P  dyz             0.0       0.4       0.0       0.0
11 P  dx2y2           0.0       0.1       0.0       0.1
13 O  s               0.0       0.1       0.1       0.2
13 O  pz              0.0       1.0       0.7       2.2
13 O  px              0.0       0.6       0.4       1.4
13 O  dz2             0.0      14.2       9.3      28.8
13 O  dxz             0.0       0.0       0.1       0.1
13 O  dyz             0.0       0.7       0.2       0.7
13 O  dx2y2           0.0       1.7       1.0       4.4
13 O  dxy             0.0       0.1       0.1       0.3
14 C  s               0.0       0.4       0.3       0.8
14 C  pz              0.0       0.7       0.5       1.4
14 C  px              0.0       0.1       0.0       0.1
14 C  dz2             0.0       1.6       1.1       2.9
14 C  dxz             0.0       0.7       0.4       1.3
14 C  dyz             0.0       0.1       0.1       0.2
16 O  s               0.0       2.8       0.0       0.2
16 O  pz              0.0       1.4       0.5       2.0
16 O  px              0.0       0.1       0.0       0.0
16 O  py              0.0       2.1       0.2       0.6
16 O  dz2             0.0       3.2       4.2      17.0
16 O  dxz             0.0       0.3       0.0       0.0
16 O  dyz             0.2      26.1       0.5       1.9
16 O  dx2y2           0.2      22.2       0.8       3.4
16 O  dxy             0.0       2.2       0.1       0.4
17 C  s               0.0       1.6       0.1       0.3
17 C  pz              0.0       0.6       0.0       0.2
17 C  px              0.0       0.1       0.0       0.0
17 C  py              0.0       2.2       0.1       0.4
17 C  dz2             0.0       0.2       0.0       0.0
17 C  dxz             0.0       0.2       0.0       0.1
17 C  dyz             0.0       5.0       0.3       1.3
17 C  dx2y2           0.0       4.4       0.1       0.4
17 C  dxy             0.0       0.3       0.0       0.0
18 C  dxy             0.0       0.2       0.0       0.0
24 H  s               0.1       0.0       0.0       0.0


                      *****************************
                      * MAYER POPULATION ANALYSIS *
                      *****************************

  NA   - Mulliken gross atomic population
  ZA   - Total nuclear charge
  QA   - Mulliken gross atomic charge
  VA   - Mayer's total valence
  BVA  - Mayer's bonded valence
  FA   - Mayer's free valence

  ATOM       NA         ZA         QA         VA         BVA        FA
  0 C      6.3202     6.0000    -0.3202     3.9968     3.9968    -0.0000
  1 C      5.9967     6.0000     0.0033     4.0101     4.0101    -0.0000
  2 O      8.3736     8.0000    -0.3736     2.1695     2.1695     0.0000
  3 P     14.3927    15.0000     0.6073     4.9590     4.9590    -0.0000
  4 S     16.3110    16.0000    -0.3110     2.0806     2.0806    -0.0000
  5 O      8.3525     8.0000    -0.3525     2.1976     2.1976    -0.0000
  6 C      6.0077     6.0000    -0.0077     3.9873     3.9873    -0.0000
  7 C      6.3153     6.0000    -0.3153     4.0096     4.0096    -0.0000
  8 S     16.1090    16.0000    -0.1090     2.2859     2.2859    -0.0000
  9 C      6.3575     6.0000    -0.3575     3.8145     3.8145    -0.0000
 10 S     16.0789    16.0000    -0.0789     2.2565     2.2565     0.0000
 11 P     14.3853    15.0000     0.6147     4.9815     4.9815     0.0000
 12 S     16.3268    16.0000    -0.3268     2.0813     2.0813     0.0000
 13 O      8.3724     8.0000    -0.3724     2.1799     2.1799    -0.0000
 14 C      6.0028     6.0000    -0.0028     4.0029     4.0029     0.0000
 15 C      6.3222     6.0000    -0.3222     3.9868     3.9868     0.0000
 16 O      8.3656     8.0000    -0.3656     2.1845     2.1845    -0.0000
 17 C      6.0114     6.0000    -0.0114     3.9905     3.9905    -0.0000
 18 C      6.3039     6.0000    -0.3039     3.9935     3.9935    -0.0000
 19 H      0.8817     1.0000     0.1183     0.9662     0.9662     0.0000
 20 H      0.8788     1.0000     0.1212     0.9760     0.9760     0.0000
 21 H      0.8883     1.0000     0.1117     0.9541     0.9541     0.0000
 22 H      0.8896     1.0000     0.1104     0.9829     0.9829     0.0000
 23 H      0.8976     1.0000     0.1024     0.9495     0.9495    -0.0000
 24 H      0.8893     1.0000     0.1107     0.9500     0.9500    -0.0000
 25 H      0.8750     1.0000     0.1250     0.9704     0.9704    -0.0000
 26 H      0.8762     1.0000     0.1238     0.9622     0.9622    -0.0000
 27 H      0.8853     1.0000     0.1147     0.9531     0.9531    -0.0000
 28 H      0.8743     1.0000     0.1257     0.9679     0.9679     0.0000
 29 H      0.8149     1.0000     0.1851     0.9291     0.9291    -0.0000
 30 H      0.7979     1.0000     0.2021     0.9977     0.9977    -0.0000
 31 H      0.8903     1.0000     0.1097     0.9855     0.9855    -0.0000
 32 H      0.8950     1.0000     0.1050     0.9492     0.9492    -0.0000
 33 H      0.8707     1.0000     0.1293     0.9834     0.9834     0.0000
 34 H      0.8866     1.0000     0.1134     0.9555     0.9555     0.0000
 35 H      0.8802     1.0000     0.1198     0.9595     0.9595    -0.0000
 36 H      0.8693     1.0000     0.1307     0.9823     0.9823     0.0000
 37 H      0.8978     1.0000     0.1022     0.9519     0.9519     0.0000
 38 H      0.8802     1.0000     0.1198     0.9798     0.9798     0.0000
 39 H      0.8896     1.0000     0.1104     0.9541     0.9541    -0.0000
 40 H      0.8862     1.0000     0.1138     0.9603     0.9603    -0.0000

  Mayer bond orders larger than 0.100000
B(  0-C ,  1-C ) :   1.1625 B(  0-C , 19-H ) :   0.9430 B(  0-C , 20-H ) :   0.9381 
B(  0-C , 21-H ) :   0.9377 B(  1-C ,  2-O ) :   0.9232 B(  1-C , 22-H ) :   0.9149 
B(  1-C , 23-H ) :   0.9344 B(  2-O ,  3-P ) :   1.0763 B(  3-P ,  4-S ) :   1.5975 
B(  3-P ,  5-O ) :   1.1579 B(  3-P ,  8-S ) :   0.9444 B(  4-S ,  8-S ) :   0.1125 
B(  4-S , 30-H ) :   0.1141 B(  5-O ,  6-C ) :   0.8964 B(  6-C ,  7-C ) :   1.1665 
B(  6-C , 24-H ) :   0.9343 B(  6-C , 25-H ) :   0.9138 B(  7-C , 26-H ) :   0.9417 
B(  7-C , 27-H ) :   0.9355 B(  7-C , 28-H ) :   0.9367 B(  8-S ,  9-C ) :   1.0011 
B(  9-C , 10-S ) :   0.9988 B(  9-C , 29-H ) :   0.9077 B(  9-C , 30-H ) :   0.8423 
B( 10-S , 11-P ) :   0.9684 B( 10-S , 12-S ) :   0.1150 B( 11-P , 12-S ) :   1.6068 
B( 11-P , 13-O ) :   1.0998 B( 11-P , 16-O ) :   1.1335 B( 13-O , 14-C ) :   0.9082 
B( 14-C , 15-C ) :   1.1661 B( 14-C , 31-H ) :   0.9132 B( 14-C , 32-H ) :   0.9331 
B( 15-C , 33-H ) :   0.9336 B( 15-C , 34-H ) :   0.9379 B( 15-C , 35-H ) :   0.9438 
B( 16-O , 17-C ) :   0.8989 B( 17-C , 18-C ) :   1.1609 B( 17-C , 36-H ) :   0.9083 
B( 17-C , 37-H ) :   0.9365 B( 18-C , 38-H ) :   0.9375 B( 18-C , 39-H ) :   0.9394 
B( 18-C , 40-H ) :   0.9451 

-------
TIMINGS
-------

Total SCF time: 0 days 0 hours 0 min 16 sec 

Total time                  ....      16.927 sec
Sum of individual times     ....      16.381 sec  ( 96.8%)

SCF preparation             ....       0.275 sec  (  1.6%)
Fock matrix formation       ....      14.837 sec  ( 87.7%)
  Startup                   ....       0.089 sec  (  0.6% of F)
  Split-RI-J                ....       8.524 sec  ( 57.4% of F)
  XC integration            ....       5.635 sec  ( 38.0% of F)
    Basis function eval.    ....       1.918 sec  ( 34.0% of XC)
    Density eval.           ....       0.960 sec  ( 17.0% of XC)
    XC-Functional eval.     ....       0.366 sec  (  6.5% of XC)
    XC-Potential eval.      ....       1.123 sec  ( 19.9% of XC)
Diagonalization             ....       0.000 sec  (  0.0%)
Density matrix formation    ....       0.277 sec  (  1.6%)
Total Energy calculation    ....       0.041 sec  (  0.2%)
Population analysis         ....       0.200 sec  (  1.2%)
Orbital Transformation      ....       0.089 sec  (  0.5%)
Orbital Orthonormalization  ....       0.000 sec  (  0.0%)
DIIS solution               ....       0.532 sec  (  3.1%)
  MO trafo                  ....       0.000 sec  (  0.0 % of DIIS)
  Orb grad                  ....       0.000 sec  (  0.0 % of DIIS)
  Energy W gradient         ....       0.000 sec  (  0.0 % of DIIS)
  DIIS error                ....       0.022 sec  (  4.2 % of DIIS)
  DIIS work                 ....       0.438 sec  ( 82.3 % of DIIS)
  Form Q                    ....       0.000 sec  (  0.0 % of DIIS)
  Form QpQm                 ....       0.000 sec  (  0.0 % of DIIS)
  Exp/Cayley                ....       0.000 sec  (  0.0 % of DIIS)
  Orb update                ....       0.000 sec  (  0.0 % of DIIS)
  Wake-sleep                ....       0.024 sec  (  4.6 % of DIIS)
SOSCF solution              ....       0.131 sec  (  0.8%)
  MO trafo                  ....       0.075 sec  ( 57.4 % of SOSCF)
  Orb grad                  ....       0.002 sec  (  1.2 % of SOSCF)
  Rot update                ....       0.013 sec  (  9.8 % of SOSCF)
  Step                      ....       0.041 sec  ( 31.5 % of SOSCF)
Finished LeanSCF after  17.0 sec

Maximum memory used throughout the entire LEANSCF-calculation: 34.7 MB


-------------------------------------------------------------------------------
                          DFT DISPERSION CORRECTION                            
                                                                               
                                DFTD4 V3.4.0                                   
-------------------------------------------------------------------------------
The PBE functional is recognized
Active option DFTDOPT                   ...         5   

-------------------------   ----------------
Dispersion correction           -0.068464688
-------------------------   ----------------

------------------   -----------------
gCP correction             0.185819671
------------------   -----------------

-------------------------   --------------------
FINAL SINGLE POINT ENERGY     -2929.517543477848
-------------------------   --------------------


------------------------------------------------------------------------------
                              ORCA PROPERTY CALCULATIONS
------------------------------------------------------------------------------

GBWName                                 ... sp.gbw
Number of atoms                         ...     41
Number of basis functions               ...    334
Max core memory                         ...   1024 MB

Electric properties:
Dipole moment                           ... YES
Quadrupole moment                       ...  NO
Static polarizability (Dipole/Dipole)   ...  NO
Static polarizability (Dipole/Quad.)    ...  NO
Static polarizability (Quad./Quad.)     ...  NO
Static polarizability (Velocity)        ...  NO

Atomic electric properties:
Dipole moment                           ...  NO
Quadrupole moment                       ...  NO
Static polarizability                   ...  NO

Choice of electric origin               ... Center of mass
Position of electric origin             ...     0.000001    -0.000003     0.000003

General magnetic properties:
Magnetizability                         ...  NO

EPR properties:
g-Tensor (aka g-matrix)                 ...  NO
Zero-Field splitting spin-orbit         ...  NO
Zero-field splitting spin-spin          ...  NO
Hyperfine couplings                     ...  NO (   0 nuclei)
Quadrupole couplings                    ...  NO (   0 nuclei)
Contact density                         ...  NO (   0 nuclei)

NMR properties:
Chemical shifts                         ...  NO (   0 nuclei)
Spin-rotation constants                 ...  NO (   0 nuclei)
Spin-spin couplings                     ...  NO (   0 nuclei,    0 pairs)

Choice of magnetic origin               ... GIAO
Position of magnetic origin             ...     0.000000     0.000000     0.000000

Properties with geometric perturbations:
SCF Hessian                             ...  NO
IR spectrum                             ...  NO
VCD spectrum                            ...  NO
X-ray spectroscopy properties:
SCF XES/XAS/RIXS spectra                ...  NO


-------------
DIPOLE MOMENT
-------------

Method             : SCF
Type of density    : Electron Density
Multiplicity       :   1
Irrep              :   0
Energy             : -2929.6348984613673565 Eh
Relativity type    : 
Basis              : AO
                                X                 Y                 Z
Electronic contribution:     -1.373512805      -0.670397587      -3.774229555
Nuclear contribution   :      1.635259672       0.131479686       4.277473576
                        -----------------------------------------
Total Dipole Moment    :      0.261746867      -0.538917901       0.503244021
                        -----------------------------------------
Magnitude (a.u.)       :      0.782431128
Magnitude (Debye)      :      1.988781877



--------------------
Rotational spectrum 
--------------------
 
Rotational constants in cm-1:             0.012286             0.005400             0.005109 
Rotational constants in MHz :           368.333134           161.894390           153.175729 

Dipole components along the rotational axes: 
x,y,z [a.u.] :     0.171020     0.638591    -0.418512 
x,y,z [Debye]:     0.434698     1.623169    -1.063773 

 

Dipole moment calculation done in   0.0 sec 

Maximum memory used throughout the entire PROP-calculation: 24.1 MB

--------------------------------
SUGGESTED CITATIONS FOR THIS RUN
--------------------------------

Below you find a list of papers that are relevant to this ORCA run
We neither can nor want to force you to cite these papers, but we appreciate if you do
You receive ORCA, which is the product of decades of hard work by many enthusiastic individuals, for free
The only thing we kindly ask in return is that you cite our papers,
We deeply appreciate it, if you show your appreciation for ORCA by not just citing the generic ORCA reference.

Please note that relegating all ORCA citations to the supporting information does *not* help us.
SI sections are not indexed - citations you put there will not count into any citation statistics
But we need these citations in order to attract the funding resources that allow us to do what we are doing

Therefore, if you are a happy ORCA user, please consider citing a few of the papers listed below in the main body of your paper

In addition to the list printed below, the program has created the file sp.bibtex that contains the list in bibtex format
You can import this file easily into all common literature databanks and citation aid programs


List of essential papers. We consider these as the minimum necessary citations

  1. Neese,F.
     Software update: the ORCA program system, version 5.0
     WIRES Comput. Molec. Sci., 2022 12(1)e1606
     doi.org/10.1002/wcms.1606

List of papers to cite with high priority. The work reported in these papers was absolutely
necessary for this run to complete.
Our perspective: the developers of density functionals and basis sets usually get cited in chemistry papers
Good! But without the algorithms to do something with them, the functionals or basis sets would not do anything.
Hence, in our opinion, the algorithm design and method developments papers are equally worthy of getting cited

  1. Neese,F.
     An improvement of the resolution of the identity approximation for the formation of the Coulomb matrix
     J. Comp. Chem., 2003 24(14)1740-1747
     doi.org/10.1002/jcc.10318
  2. Neese,F.
     The SHARK Integral Generation and Digestion System
     J. Comp. Chem., 2022  1-16
     doi.org/10.1002/jcc.26942
  3. Caldeweyher,E.; Bannwarth,C.; Grimme,S.
     Extension of the D3 dispersion coefficient model
     J. Chem. Phys., 2017 147 034112-XXXX
     doi.org/10.1063/1.4993215
  4. Caldeweyher,E.; Ehlert,S.; Hansen,A.; Neugebauer,H.; Spicher,S.; Bannwarth,C.; Grimme,S.
     A generally applicable atomic-charge dependent London dispersion correction
     J. Chem. Phys., 2019 150 154122-XXXX
     doi.org/10.1063/1.5090222
  5. Caldeweyher,E.; Mewes,J.; Ehlert,S.; Grimme,S.
     Extension and evaluation of the D4 London-dispersion model for periodic systems
     Phys. Chem. Chem. Phys., 2020 22(16)8499-8512
     doi.org/10.1039/D0CP00502A

List of suggested additional citations. These are papers that are important in the 'surrounding' of 
of this run, or papers that preceded the highly important papers. If you like your results we are grateful for a citation.

  1. Neese,F.
     The ORCA program system
     WIRES Comput. Molec. Sci., 2012 2(1)73-78
     doi.org/10.1002/wcms.81
  2. Neese,F.
     Software update: the ORCA program system, version 4.0
     WIRES Comput. Molec. Sci., 2018 8(1)1-6
     doi.org/10.1002/wcms.1327
  3. Neese,F.; Wennmohs,F.; Becker,U.; Riplinger,C.
     The ORCA quantum chemistry program package
     J. Chem. Phys., 2020 152 Art. No. L224108
     doi.org/10.1063/5.0004608

List of optional additional citations

  1. Neese,F.
     Approximate second-order SCF convergence for spin unrestricted wavefunctions
     Chem. Phys. Lett., 2000 325(1-3)93-98
     doi.org/10.1016/s0009-2614(00)00662-x

Timings for individual modules:

Sum of individual times          ...       21.920 sec (=   0.365 min)
Startup calculation              ...        2.265 sec (=   0.038 min)  10.3 %
SCF iterations                   ...       19.543 sec (=   0.326 min)  89.2 %
Property calculations            ...        0.111 sec (=   0.002 min)   0.5 %
                             ****ORCA TERMINATED NORMALLY****
TOTAL RUN TIME: 0 days 0 hours 0 minutes 22 seconds 828 msec
