      -----------------------------------------------------------      
     |                   =====================                   |     
     |                           x T B                           |     
     |                   =====================                   |     
     |                         S. Grimme                         |     
     |          Mulliken Center for Theoretical Chemistry        |     
     |                    University of Bonn                     |     
      -----------------------------------------------------------      

   * xtb version 6.7.1 (edcfbbe) compiled by 'albert@albert-system' on 2024-07-22

   xtb is free software: you can redistribute it and/or modify it under
   the terms of the GNU Lesser General Public License as published by
   the Free Software Foundation, either version 3 of the License, or
   (at your option) any later version.
   
   xtb is distributed in the hope that it will be useful,
   but WITHOUT ANY WARRANTY; without even the implied warranty of
   MERCHANTABILITY or FITNESS FOR A PARTICULAR PURPOSE.  See the
   GNU Lesser General Public License for more details.
   
   Cite this work as:
   * C. Bannwarth, E. Caldeweyher, S. Ehlert, A. Hansen, P. Pracht,
     J. Seibert, S. Spicher, S. Grimme, WIREs Comput. Mol. Sci., 2020, 11,
     e01493. DOI: 10.1002/wcms.1493
   
   for GFN2-xTB:
   * C. Bannwarth, S. Ehlert and S. Grimme., J. Chem. Theory Comput., 2019,
     15, 1652-1671. DOI: 10.1021/acs.jctc.8b01176
   for GFN1-xTB:
   * S. Grimme, C. Bannwarth, P. Shushkov, J. Chem. Theory Comput., 2017,
     13, 1989-2009. DOI: 10.1021/acs.jctc.7b00118
   for GFN0-xTB:
   * P. Pracht, E. Caldeweyher, S. Ehlert, S. Grimme, ChemRxiv, 2019, preprint.
     DOI: 10.26434/chemrxiv.8326202.v1
   for GFN-FF:
   * S. Spicher and S. Grimme, Angew. Chem. Int. Ed., 2020, 59, 15665-15673.
     DOI: 10.1002/anie.202004239
   
   for ALPB and GBSA implicit solvation:
   * S. Ehlert, M. Stahn, S. Spicher, S. Grimme, J. Chem. Theory Comput.,
     2021, 17, 4250-4261. DOI: 10.1021/acs.jctc.1c00471
   
   for ddCOSMO and CPCM-X implicit solvation:
   * M. Stahn, S. Ehlert, S. Grimme, J. Phys. Chem. A,
     2023, XX, XXXX-XXXX. DOI: 10.1021/acs.jpca.3c04382
   
   for DFT-D4:
   * E. Caldeweyher, C. Bannwarth and S. Grimme, J. Chem. Phys., 2017,
     147, 034112. DOI: 10.1063/1.4993215
   * E. Caldeweyher, S. Ehlert, A. Hansen, H. Neugebauer, S. Spicher,
     C. Bannwarth and S. Grimme, J. Chem. Phys., 2019, 150, 154122.
     DOI: 10.1063/1.5090222
   * E. Caldeweyher, J.-M. Mewes, S. Ehlert and S. Grimme, Phys. Chem. Chem. Phys.
     2020, 22, 8499-8512. DOI: 10.1039/D0CP00502A
   
   for sTDA-xTB:
   * S. Grimme and C. Bannwarth, J. Chem. Phys., 2016, 145, 054103.
     DOI: 10.1063/1.4959605
   
   in the mass-spec context:
   * V. Asgeirsson, C. Bauer and S. Grimme, Chem. Sci., 2017, 8, 4879.
     DOI: 10.1039/c7sc00601b
   * J. Koopman and S. Grimme, ACS Omega 2019, 4, 12, 15120-15133.
     DOI: 10.1021/acsomega.9b02011
   
   for metadynamics refer to:
   * S. Grimme, J. Chem. Theory Comput., 2019, 155, 2847-2862
     DOI: 10.1021/acs.jctc.9b00143
   
   for SPH calculations refer to:
   * S. Spicher and S. Grimme, J. Chem. Theory Comput., 2021, 17, 1701-1714
     DOI: 10.1021/acs.jctc.0c01306
   
   for ONIOM refer to:
   * C. Plett, A. Katbashev, S. Ehlert, S. Grimme, M. Bursch,
     Phys. Chem. Chem. Phys., 2023, 25, 17860-17868. DOI: 10.1039/D3CP02178E
   
   for DIPRO refer to:
   * J. Kohn, N. Gildemeister, S. Grimme, D. Fazzi, A. Hansen,
     J. Chem. Phys., 2023, just accepted.
   
   for PTB refer to:
   * S. Grimme, M. Mueller, A. Hansen, J. Chem. Phys., 2023, 158, 124111.
     DOI: 10.1063/5.0137838
   
   with help from (in alphabetical order)
   P. Atkinson, C. Bannwarth, F. Bohle, G. Brandenburg, E. Caldeweyher
   M. Checinski, S. Dohm, S. Ehlert, S. Ehrlich, I. Gerasimov, C. Hölzer
   A. Katbashev, J. Kohn, J. Koopman, C. Lavigne, S. Lehtola, F. März, M. Müller,
   F. Musil, H. Neugebauer, J. Pisarek, C. Plett, P. Pracht, F. Pultar,
   J. Seibert, P. Shushkov, S. Spicher, M. Stahn, M. Steiner, T. Strunk,
   J. Stückrath, T. Rose, and J. Unsleber
   
 * started run on 2025/04/09 at 05:20:56.727     
   ID    Z sym.   atoms
    1    6 C      1, 2, 7, 8, 10, 15, 16, 18, 19
    2    8 O      3, 6, 14, 17
    3   15 P      4, 12
    4   16 S      5, 9, 11, 13
    5    1 H      20-41

           -------------------------------------------------
          |                Calculation Setup                |
           -------------------------------------------------

          program call               : /srv/scratch/z5358697/.xtb/bin/xtb gas.coord --gfn2 --sp --chrg 0 --norestart --parallel 1
          hostname                   : k163
          coordinate file            : gas.coord
          omp threads                :                     1


           -------------------------------------------------
          |                 G F N 2 - x T B                 |
           -------------------------------------------------

        Reference                      10.1021/acs.jctc.8b01176
      * Hamiltonian:
        H0-scaling (s, p, d)           1.850000    2.230000    2.230000
        zeta-weighting                 0.500000
      * Dispersion:
        s8                             2.700000
        a1                             0.520000
        a2                             5.000000
        s9                             5.000000
      * Repulsion:
        kExp                           1.500000    1.000000
        rExp                           1.000000
      * Coulomb:
        alpha                          2.000000
        third order                    shell-resolved
        anisotropic                    true
        a3                             3.000000
        a5                             4.000000
        cn-shift                       1.200000
        cn-exp                         4.000000
        max-rad                        5.000000


          ...................................................
          :                      SETUP                      :
          :.................................................:
          :  # basis functions                 134          :
          :  # atomic orbitals                 128          :
          :  # shells                           66          :
          :  # electrons                       116          :
          :  max. iterations                   250          :
          :  Hamiltonian                  GFN2-xTB          :
          :  restarted?                      false          :
          :  GBSA solvation                  false          :
          :  PC potential                    false          :
          :  electronic temp.          300.0000000     K    :
          :  accuracy                    1.0000000          :
          :  -> integral cutoff          0.2500000E+02      :
          :  -> integral neglect         0.1000000E-07      :
          :  -> SCF convergence          0.1000000E-05 Eh   :
          :  -> wf. convergence          0.1000000E-03 e    :
          :  Broyden damping             0.4000000          :
          :  net charge                          0          :
          :  unpaired electrons                  0          :
          ...................................................

 iter      E             dE          RMSdq      gap      omega  full diag
   1    -65.3866271 -0.653866E+02  0.631E+00    4.32       0.0  T
   2    -65.5512443 -0.164617E+00  0.379E+00    3.30       1.0  T
   3    -65.5703439 -0.190996E-01  0.137E+00    3.10       1.0  T
   4    -65.5725072 -0.216321E-02  0.577E-01    2.88       1.0  T
   5    -65.5731986 -0.691400E-03  0.250E-01    2.98       1.0  T
   6    -65.5733365 -0.137919E-03  0.130E-01    2.96       1.0  T
   7    -65.5734022 -0.657770E-04  0.486E-02    2.98       1.0  T
   8    -65.5734113 -0.906049E-05  0.216E-02    2.98       1.0  T
   9    -65.5734124 -0.106274E-05  0.486E-03    2.98       3.2  T
  10    -65.5734124 -0.570298E-07  0.244E-03    2.98       6.4  T
  11    -65.5734124 -0.720539E-08  0.556E-04    2.98      28.1  T
  12    -65.5734124 -0.878998E-09  0.283E-04    2.98      55.2  T

   *** convergence criteria satisfied after 12 iterations ***

         #    Occupation            Energy/Eh            Energy/eV
      -------------------------------------------------------------
         1        2.0000           -0.7612809             -20.7155
       ...           ...                  ...                  ...
        52        2.0000           -0.4396046             -11.9622
        53        2.0000           -0.4072569             -11.0820
        54        2.0000           -0.4011345             -10.9154
        55        2.0000           -0.3768768             -10.2553
        56        2.0000           -0.3758230             -10.2267
        57        2.0000           -0.3716674             -10.1136
        58        2.0000           -0.3702796             -10.0758 (HOMO)
        59                         -0.2607031              -7.0941 (LUMO)
        60                         -0.2488172              -6.7707
        61                         -0.2066979              -5.6245
        62                         -0.1782843              -4.8514
        63                         -0.1714131              -4.6644
       ...                                ...                  ...
       128                          1.3155602              35.7982
      -------------------------------------------------------------
                  HL-Gap            0.1095764 Eh            2.9817 eV
             Fermi-level           -0.3154914 Eh           -8.5850 eV

 SCC (total)                   0 d,  0 h,  0 min,  0.065 sec
 SCC setup                      ...        0 min,  0.000 sec (  0.411%)
 Dispersion                     ...        0 min,  0.000 sec (  0.470%)
 classical contributions        ...        0 min,  0.000 sec (  0.092%)
 integral evaluation            ...        0 min,  0.017 sec ( 26.203%)
 iterations                     ...        0 min,  0.025 sec ( 38.676%)
 molecular gradient             ...        0 min,  0.022 sec ( 33.797%)
 printout                       ...        0 min,  0.000 sec (  0.328%)

         :::::::::::::::::::::::::::::::::::::::::::::::::::::
         ::                     SUMMARY                     ::
         :::::::::::::::::::::::::::::::::::::::::::::::::::::
         :: total energy             -65.010097513553 Eh    ::
         :: gradient norm              0.038066672059 Eh/a0 ::
         :: HOMO-LUMO gap              2.981726412362 eV    ::
         ::.................................................::
         :: SCC energy               -65.572438431626 Eh    ::
         :: -> isotropic ES            0.104384649326 Eh    ::
         :: -> anisotropic ES         -0.013498322050 Eh    ::
         :: -> anisotropic XC          0.031485945858 Eh    ::
         :: -> dispersion             -0.052502243160 Eh    ::
         :: repulsion energy           0.562340918072 Eh    ::
         :: add. restraining           0.000000000000 Eh    ::
         :: total charge              -0.000000000000 e     ::
         :::::::::::::::::::::::::::::::::::::::::::::::::::::

           -------------------------------------------------
          |                Property Printout                |
           -------------------------------------------------

    * Orbital Energies and Occupations

         #    Occupation            Energy/Eh            Energy/eV
      -------------------------------------------------------------
         1        2.0000           -0.7612809             -20.7155
       ...           ...                  ...                  ...
        46        2.0000           -0.4714121             -12.8278
        47        2.0000           -0.4676657             -12.7258
        48        2.0000           -0.4620396             -12.5727
        49        2.0000           -0.4574939             -12.4490
        50        2.0000           -0.4520278             -12.3003
        51        2.0000           -0.4415980             -12.0165
        52        2.0000           -0.4396046             -11.9622
        53        2.0000           -0.4072569             -11.0820
        54        2.0000           -0.4011345             -10.9154
        55        2.0000           -0.3768768             -10.2553
        56        2.0000           -0.3758230             -10.2267
        57        2.0000           -0.3716674             -10.1136
        58        2.0000           -0.3702796             -10.0758 (HOMO)
        59                         -0.2607031              -7.0941 (LUMO)
        60                         -0.2488172              -6.7707
        61                         -0.2066979              -5.6245
        62                         -0.1782843              -4.8514
        63                         -0.1714131              -4.6644
        64                         -0.1609266              -4.3790
        65                         -0.1523746              -4.1463
        66                         -0.1430220              -3.8918
        67                         -0.1213102              -3.3010
        68                         -0.1153183              -3.1380
        69                         -0.0446330              -1.2145
       ...                                ...                  ...
       128                          1.3155602              35.7982
      -------------------------------------------------------------
                  HL-Gap            0.1095764 Eh            2.9817 eV
             Fermi-level           -0.3154914 Eh           -8.5850 eV

     #   Z          covCN         q      C6AA      α(0)
     1   6 C        3.751    -0.116    22.774     6.806
     2   6 C        3.860     0.082    19.182     6.229
     3   8 O        1.654    -0.228    17.798     5.695
     4  15 P        3.868     0.361   145.170    21.643
     5  16 S        0.927    -0.388   156.072    21.131
     6   8 O        1.655    -0.246    18.087     5.741
     7   6 C        3.862     0.082    19.178     6.228
     8   6 C        3.751    -0.117    22.808     6.811
     9  16 S        2.032    -0.186   148.940    20.540
    10   6 C        3.824     0.053    19.665     6.310
    11  16 S        2.033    -0.148   147.293    20.427
    12  15 P        3.803     0.382   144.375    21.584
    13  16 S        0.927    -0.399   156.583    21.165
    14   8 O        1.653    -0.237    17.947     5.719
    15   6 C        3.831     0.078    19.257     6.244
    16   6 C        3.751    -0.121    22.874     6.821
    17   8 O        1.655    -0.248    18.127     5.747
    18   6 C        3.842     0.083    19.169     6.228
    19   6 C        3.751    -0.120    22.866     6.819
    20   1 H        0.925     0.065     2.146     2.291
    21   1 H        0.925     0.060     2.197     2.318
    22   1 H        0.925     0.057     2.234     2.337
    23   1 H        0.924     0.051     2.306     2.375
    24   1 H        0.924     0.081     1.974     2.197
    25   1 H        0.924     0.064     2.153     2.295
    26   1 H        0.924     0.064     2.150     2.293
    27   1 H        0.925     0.061     2.182     2.310
    28   1 H        0.925     0.061     2.191     2.315
    29   1 H        0.925     0.064     2.154     2.295
    30   1 H        0.924     0.078     1.997     2.210
    31   1 H        0.925     0.084     1.935     2.176
    32   1 H        0.924     0.073     2.057     2.243
    33   1 H        0.924     0.061     2.185     2.312
    34   1 H        0.925     0.062     2.172     2.305
    35   1 H        0.925     0.067     2.116     2.275
    36   1 H        0.925     0.068     2.113     2.273
    37   1 H        0.924     0.064     2.156     2.296
    38   1 H        0.924     0.057     2.230     2.335
    39   1 H        0.925     0.068     2.109     2.271
    40   1 H        0.925     0.061     2.182     2.310
    41   1 H        0.925     0.060     2.203     2.321

 Mol. C6AA /au·bohr⁶  :      26529.694399
 Mol. C8AA /au·bohr⁸  :     863359.801780
 Mol. α(0) /au        :        258.238776


Wiberg/Mayer (AO) data.
largest (>0.10) Wiberg bond orders for each atom

 ---------------------------------------------------------------------------
     #   Z sym  total        # sym  WBO       # sym  WBO       # sym  WBO
 ---------------------------------------------------------------------------
     1   6 C    3.990 --     2 C    1.021    20 H    0.984    21 H    0.982
                            22 H    0.980
     2   6 C    3.908 --     1 C    1.021    24 H    0.967    23 H    0.967
                             3 O    0.887
     3   8 O    2.425 --     4 P    1.347     2 C    0.887
     4  15 P    5.319 --     5 S    1.586     3 O    1.347     6 O    1.308
                             9 S    0.942
     5  16 S    1.901 --     4 P    1.586     9 S    0.137
     6   8 O    2.408 --     4 P    1.308     7 C    0.904
     7   6 C    3.909 --     8 C    1.022    25 H    0.970    26 H    0.969
                             6 O    0.904
     8   6 C    3.990 --     7 C    1.022    27 H    0.983    28 H    0.980
                            29 H    0.976
     9  16 S    2.239 --    10 C    0.968     4 P    0.942     5 S    0.137
    10   6 C    3.958 --    11 S    1.003     9 S    0.968    31 H    0.963
                            30 H    0.952
    11  16 S    2.276 --    10 C    1.003    12 P    0.935    13 S    0.145
    12  15 P    5.266 --    13 S    1.562    14 O    1.348    17 O    1.301
                            11 S    0.935
    13  16 S    1.900 --    12 P    1.562    11 S    0.145
    14   8 O    2.413 --    12 P    1.348    15 C    0.886
    15   6 C    3.909 --    16 C    1.024    33 H    0.973    32 H    0.969
                            14 O    0.886
    16   6 C    3.990 --    15 C    1.024    36 H    0.982    34 H    0.978
                            35 H    0.971
    17   8 O    2.413 --    12 P    1.301    18 C    0.905
    18   6 C    3.909 --    19 C    1.020    37 H    0.970    38 H    0.967
                            17 O    0.905
    19   6 C    3.987 --    18 C    1.020    40 H    0.984    41 H    0.980
                            39 H    0.976
    20   1 H    0.996 --     1 C    0.984
    21   1 H    0.996 --     1 C    0.982
    22   1 H    0.995 --     1 C    0.980
    23   1 H    0.997 --     2 C    0.967
    24   1 H    0.993 --     2 C    0.967
    25   1 H    0.996 --     7 C    0.970
    26   1 H    0.996 --     7 C    0.969
    27   1 H    0.996 --     8 C    0.983
    28   1 H    0.996 --     8 C    0.980
    29   1 H    0.996 --     8 C    0.976
    30   1 H    0.994 --    10 C    0.952
    31   1 H    0.993 --    10 C    0.963
    32   1 H    0.994 --    15 C    0.969
    33   1 H    0.996 --    15 C    0.973
    34   1 H    0.995 --    16 C    0.978
    35   1 H    0.995 --    16 C    0.971
    36   1 H    0.995 --    16 C    0.982
    37   1 H    0.996 --    18 C    0.970
    38   1 H    0.997 --    18 C    0.967
    39   1 H    0.995 --    19 C    0.976
    40   1 H    0.996 --    19 C    0.984
    41   1 H    0.995 --    19 C    0.980
 ---------------------------------------------------------------------------

Topologies differ in total number of bonds
Writing topology from bond orders to xtbtopo.mol

molecular dipole:
                 x           y           z       tot (Debye)
 q only:       -1.667      -2.671       0.270
   full:       -1.713      -2.547      -0.240       7.825
molecular quadrupole (traceless):
                xx          xy          yy          xz          yz          zz
 q only:       13.416     -18.017      -4.451      -9.518       2.212      -8.965
  q+dip:       15.457     -19.601      -2.575      -7.097       2.034     -12.882
   full:       16.817     -20.708      -3.650      -7.205       2.170     -13.167


           -------------------------------------------------
          | TOTAL ENERGY              -65.010097513553 Eh   |
          | GRADIENT NORM               0.038066672059 Eh/α |
          | HOMO-LUMO GAP               2.981726412362 eV   |
           -------------------------------------------------

------------------------------------------------------------------------
 * finished run on 2025/04/09 at 05:20:56.850     
------------------------------------------------------------------------
 total:
 * wall-time:     0 d,  0 h,  0 min,  0.123 sec
 *  cpu-time:     0 d,  0 h,  0 min,  0.070 sec
 * ratio c/w:     0.568 speedup
 SCF:
 * wall-time:     0 d,  0 h,  0 min,  0.065 sec
 *  cpu-time:     0 d,  0 h,  0 min,  0.056 sec
 * ratio c/w:     0.854 speedup

