      -----------------------------------------------------------      
     |                   =====================                   |     
     |                           x T B                           |     
     |                   =====================                   |     
     |                         S. Grimme                         |     
     |          Mulliken Center for Theoretical Chemistry        |     
     |                    University of Bonn                     |     
      -----------------------------------------------------------      

   * xtb version 6.7.1 (edcfbbe) compiled by 'albert@albert-system' on 2024-07-22

   xtb is free software: you can redistribute it and/or modify it under
   the terms of the GNU Lesser General Public License as published by
   the Free Software Foundation, either version 3 of the License, or
   (at your option) any later version.
   
   xtb is distributed in the hope that it will be useful,
   but WITHOUT ANY WARRANTY; without even the implied warranty of
   MERCHANTABILITY or FITNESS FOR A PARTICULAR PURPOSE.  See the
   GNU Lesser General Public License for more details.
   
   Cite this work as:
   * C. Bannwarth, E. Caldeweyher, S. Ehlert, A. Hansen, P. Pracht,
     J. Seibert, S. Spicher, S. Grimme, WIREs Comput. Mol. Sci., 2020, 11,
     e01493. DOI: 10.1002/wcms.1493
   
   for GFN2-xTB:
   * C. Bannwarth, S. Ehlert and S. Grimme., J. Chem. Theory Comput., 2019,
     15, 1652-1671. DOI: 10.1021/acs.jctc.8b01176
   for GFN1-xTB:
   * S. Grimme, C. Bannwarth, P. Shushkov, J. Chem. Theory Comput., 2017,
     13, 1989-2009. DOI: 10.1021/acs.jctc.7b00118
   for GFN0-xTB:
   * P. Pracht, E. Caldeweyher, S. Ehlert, S. Grimme, ChemRxiv, 2019, preprint.
     DOI: 10.26434/chemrxiv.8326202.v1
   for GFN-FF:
   * S. Spicher and S. Grimme, Angew. Chem. Int. Ed., 2020, 59, 15665-15673.
     DOI: 10.1002/anie.202004239
   
   for ALPB and GBSA implicit solvation:
   * S. Ehlert, M. Stahn, S. Spicher, S. Grimme, J. Chem. Theory Comput.,
     2021, 17, 4250-4261. DOI: 10.1021/acs.jctc.1c00471
   
   for ddCOSMO and CPCM-X implicit solvation:
   * M. Stahn, S. Ehlert, S. Grimme, J. Phys. Chem. A,
     2023, XX, XXXX-XXXX. DOI: 10.1021/acs.jpca.3c04382
   
   for DFT-D4:
   * E. Caldeweyher, C. Bannwarth and S. Grimme, J. Chem. Phys., 2017,
     147, 034112. DOI: 10.1063/1.4993215
   * E. Caldeweyher, S. Ehlert, A. Hansen, H. Neugebauer, S. Spicher,
     C. Bannwarth and S. Grimme, J. Chem. Phys., 2019, 150, 154122.
     DOI: 10.1063/1.5090222
   * E. Caldeweyher, J.-M. Mewes, S. Ehlert and S. Grimme, Phys. Chem. Chem. Phys.
     2020, 22, 8499-8512. DOI: 10.1039/D0CP00502A
   
   for sTDA-xTB:
   * S. Grimme and C. Bannwarth, J. Chem. Phys., 2016, 145, 054103.
     DOI: 10.1063/1.4959605
   
   in the mass-spec context:
   * V. Asgeirsson, C. Bauer and S. Grimme, Chem. Sci., 2017, 8, 4879.
     DOI: 10.1039/c7sc00601b
   * J. Koopman and S. Grimme, ACS Omega 2019, 4, 12, 15120-15133.
     DOI: 10.1021/acsomega.9b02011
   
   for metadynamics refer to:
   * S. Grimme, J. Chem. Theory Comput., 2019, 155, 2847-2862
     DOI: 10.1021/acs.jctc.9b00143
   
   for SPH calculations refer to:
   * S. Spicher and S. Grimme, J. Chem. Theory Comput., 2021, 17, 1701-1714
     DOI: 10.1021/acs.jctc.0c01306
   
   for ONIOM refer to:
   * C. Plett, A. Katbashev, S. Ehlert, S. Grimme, M. Bursch,
     Phys. Chem. Chem. Phys., 2023, 25, 17860-17868. DOI: 10.1039/D3CP02178E
   
   for DIPRO refer to:
   * J. Kohn, N. Gildemeister, S. Grimme, D. Fazzi, A. Hansen,
     J. Chem. Phys., 2023, just accepted.
   
   for PTB refer to:
   * S. Grimme, M. Mueller, A. Hansen, J. Chem. Phys., 2023, 158, 124111.
     DOI: 10.1063/5.0137838
   
   with help from (in alphabetical order)
   P. Atkinson, C. Bannwarth, F. Bohle, G. Brandenburg, E. Caldeweyher
   M. Checinski, S. Dohm, S. Ehlert, S. Ehrlich, I. Gerasimov, C. Hölzer
   A. Katbashev, J. Kohn, J. Koopman, C. Lavigne, S. Lehtola, F. März, M. Müller,
   F. Musil, H. Neugebauer, J. Pisarek, C. Plett, P. Pracht, F. Pultar,
   J. Seibert, P. Shushkov, S. Spicher, M. Stahn, M. Steiner, T. Strunk,
   J. Stückrath, T. Rose, and J. Unsleber
   
 * started run on 2025/04/09 at 05:20:44.154     
   ID    Z sym.   atoms
    1    6 C      1, 2, 7, 8, 10, 15, 16, 18, 19
    2    8 O      3, 6, 14, 17
    3   15 P      4, 12
    4   16 S      5, 9, 11, 13
    5    1 H      20-41

           -------------------------------------------------
          |                Calculation Setup                |
           -------------------------------------------------

          program call               : /srv/scratch/z5358697/.xtb/bin/xtb gas.coord --gfn2 --sp --chrg 0 --norestart --parallel 1
          hostname                   : k163
          coordinate file            : gas.coord
          omp threads                :                     1


           -------------------------------------------------
          |                 G F N 2 - x T B                 |
           -------------------------------------------------

        Reference                      10.1021/acs.jctc.8b01176
      * Hamiltonian:
        H0-scaling (s, p, d)           1.850000    2.230000    2.230000
        zeta-weighting                 0.500000
      * Dispersion:
        s8                             2.700000
        a1                             0.520000
        a2                             5.000000
        s9                             5.000000
      * Repulsion:
        kExp                           1.500000    1.000000
        rExp                           1.000000
      * Coulomb:
        alpha                          2.000000
        third order                    shell-resolved
        anisotropic                    true
        a3                             3.000000
        a5                             4.000000
        cn-shift                       1.200000
        cn-exp                         4.000000
        max-rad                        5.000000


          ...................................................
          :                      SETUP                      :
          :.................................................:
          :  # basis functions                 134          :
          :  # atomic orbitals                 128          :
          :  # shells                           66          :
          :  # electrons                       116          :
          :  max. iterations                   250          :
          :  Hamiltonian                  GFN2-xTB          :
          :  restarted?                      false          :
          :  GBSA solvation                  false          :
          :  PC potential                    false          :
          :  electronic temp.          300.0000000     K    :
          :  accuracy                    1.0000000          :
          :  -> integral cutoff          0.2500000E+02      :
          :  -> integral neglect         0.1000000E-07      :
          :  -> SCF convergence          0.1000000E-05 Eh   :
          :  -> wf. convergence          0.1000000E-03 e    :
          :  Broyden damping             0.4000000          :
          :  net charge                          0          :
          :  unpaired electrons                  0          :
          ...................................................

 iter      E             dE          RMSdq      gap      omega  full diag
   1    -65.3766943 -0.653767E+02  0.621E+00    4.25       0.0  T
   2    -65.5481778 -0.171484E+00  0.380E+00    3.02       1.0  T
   3    -65.5677358 -0.195580E-01  0.138E+00    2.93       1.0  T
   4    -65.5707025 -0.296673E-02  0.621E-01    2.66       1.0  T
   5    -65.5716384 -0.935831E-03  0.272E-01    2.79       1.0  T
   6    -65.5717812 -0.142864E-03  0.140E-01    2.76       1.0  T
   7    -65.5718371 -0.559018E-04  0.521E-02    2.77       1.0  T
   8    -65.5718477 -0.105699E-04  0.246E-02    2.78       1.0  T
   9    -65.5718498 -0.211297E-05  0.610E-03    2.78       2.6  T
  10    -65.5718499 -0.129704E-06  0.294E-03    2.78       5.3  T
  11    -65.5718499 -0.900802E-08  0.678E-04    2.78      23.0  T
  12    -65.5718499 -0.812506E-09  0.324E-04    2.78      48.2  T

   *** convergence criteria satisfied after 12 iterations ***

         #    Occupation            Energy/Eh            Energy/eV
      -------------------------------------------------------------
         1        2.0000           -0.7585910             -20.6423
       ...           ...                  ...                  ...
        52        2.0000           -0.4351095             -11.8399
        53        2.0000           -0.4112617             -11.1910
        54        2.0000           -0.4002162             -10.8904
        55        2.0000           -0.3720595             -10.1243
        56        2.0000           -0.3699268             -10.0662
        57        2.0000           -0.3653704              -9.9422
        58        2.0000           -0.3599869              -9.7957 (HOMO)
        59                         -0.2579581              -7.0194 (LUMO)
        60                         -0.2456117              -6.6834
        61                         -0.2077218              -5.6524
        62                         -0.1768837              -4.8133
        63                         -0.1649916              -4.4896
       ...                                ...                  ...
       128                          1.3540198              36.8448
      -------------------------------------------------------------
                  HL-Gap            0.1020288 Eh            2.7763 eV
             Fermi-level           -0.3089725 Eh           -8.4076 eV

 SCC (total)                   0 d,  0 h,  0 min,  0.058 sec
 SCC setup                      ...        0 min,  0.000 sec (  0.478%)
 Dispersion                     ...        0 min,  0.000 sec (  0.536%)
 classical contributions        ...        0 min,  0.000 sec (  0.100%)
 integral evaluation            ...        0 min,  0.014 sec ( 23.381%)
 iterations                     ...        0 min,  0.023 sec ( 39.116%)
 molecular gradient             ...        0 min,  0.021 sec ( 35.998%)
 printout                       ...        0 min,  0.000 sec (  0.354%)

         :::::::::::::::::::::::::::::::::::::::::::::::::::::
         ::                     SUMMARY                     ::
         :::::::::::::::::::::::::::::::::::::::::::::::::::::
         :: total energy             -65.009445348981 Eh    ::
         :: gradient norm              0.043354497182 Eh/a0 ::
         :: HOMO-LUMO gap              2.776345812516 eV    ::
         ::.................................................::
         :: SCC energy               -65.570752424190 Eh    ::
         :: -> isotropic ES            0.105705950391 Eh    ::
         :: -> anisotropic ES         -0.012353215385 Eh    ::
         :: -> anisotropic XC          0.030737717383 Eh    ::
         :: -> dispersion             -0.055648646730 Eh    ::
         :: repulsion energy           0.561307075208 Eh    ::
         :: add. restraining           0.000000000000 Eh    ::
         :: total charge               0.000000000000 e     ::
         :::::::::::::::::::::::::::::::::::::::::::::::::::::

           -------------------------------------------------
          |                Property Printout                |
           -------------------------------------------------

    * Orbital Energies and Occupations

         #    Occupation            Energy/Eh            Energy/eV
      -------------------------------------------------------------
         1        2.0000           -0.7585910             -20.6423
       ...           ...                  ...                  ...
        46        2.0000           -0.4695341             -12.7767
        47        2.0000           -0.4659670             -12.6796
        48        2.0000           -0.4616643             -12.5625
        49        2.0000           -0.4609935             -12.5443
        50        2.0000           -0.4471089             -12.1665
        51        2.0000           -0.4407027             -11.9921
        52        2.0000           -0.4351095             -11.8399
        53        2.0000           -0.4112617             -11.1910
        54        2.0000           -0.4002162             -10.8904
        55        2.0000           -0.3720595             -10.1243
        56        2.0000           -0.3699268             -10.0662
        57        2.0000           -0.3653704              -9.9422
        58        2.0000           -0.3599869              -9.7957 (HOMO)
        59                         -0.2579581              -7.0194 (LUMO)
        60                         -0.2456117              -6.6834
        61                         -0.2077218              -5.6524
        62                         -0.1768837              -4.8133
        63                         -0.1649916              -4.4896
        64                         -0.1605844              -4.3697
        65                         -0.1497760              -4.0756
        66                         -0.1395446              -3.7972
        67                         -0.1138141              -3.0970
        68                         -0.1092147              -2.9719
        69                         -0.0428627              -1.1664
       ...                                ...                  ...
       128                          1.3540198              36.8448
      -------------------------------------------------------------
                  HL-Gap            0.1020288 Eh            2.7763 eV
             Fermi-level           -0.3089725 Eh           -8.4076 eV

     #   Z          covCN         q      C6AA      α(0)
     1   6 C        3.751    -0.113    22.727     6.799
     2   6 C        3.870     0.090    19.052     6.207
     3   8 O        1.654    -0.224    17.728     5.684
     4  15 P        3.851     0.370   144.826    21.618
     5  16 S        0.926    -0.363   154.882    21.050
     6   8 O        1.655    -0.260    18.322     5.778
     7   6 C        3.854     0.083    19.171     6.227
     8   6 C        3.751    -0.116    22.791     6.808
     9  16 S        2.017    -0.185   148.898    20.538
    10   6 C        3.809     0.048    19.767     6.329
    11  16 S        2.013    -0.168   148.177    20.488
    12  15 P        3.823     0.369   144.893    21.623
    13  16 S        0.927    -0.364   154.943    21.054
    14   8 O        1.655    -0.250    18.160     5.753
    15   6 C        3.829     0.081    19.214     6.237
    16   6 C        3.751    -0.118    22.829     6.814
    17   8 O        1.653    -0.239    17.971     5.723
    18   6 C        3.852     0.083    19.163     6.226
    19   6 C        3.751    -0.116    22.790     6.808
    20   1 H        0.925     0.067     2.122     2.278
    21   1 H        0.925     0.053     2.279     2.361
    22   1 H        0.925     0.072     2.063     2.246
    23   1 H        0.924     0.055     2.257     2.349
    24   1 H        0.924     0.049     2.333     2.389
    25   1 H        0.924     0.063     2.166     2.302
    26   1 H        0.924     0.064     2.156     2.296
    27   1 H        0.925     0.060     2.197     2.318
    28   1 H        0.925     0.061     2.184     2.311
    29   1 H        0.925     0.060     2.204     2.322
    30   1 H        0.924     0.089     1.890     2.150
    31   1 H        0.925     0.078     1.996     2.209
    32   1 H        0.924     0.066     2.127     2.280
    33   1 H        0.924     0.056     2.249     2.345
    34   1 H        0.925     0.067     2.117     2.275
    35   1 H        0.925     0.070     2.090     2.261
    36   1 H        0.925     0.059     2.209     2.324
    37   1 H        0.924     0.062     2.173     2.305
    38   1 H        0.924     0.057     2.234     2.337
    39   1 H        0.925     0.062     2.181     2.310
    40   1 H        0.925     0.058     2.222     2.331
    41   1 H        0.925     0.065     2.143     2.289

 Mol. C6AA /au·bohr⁶  :      26554.958068
 Mol. C8AA /au·bohr⁸  :     863344.537532
 Mol. α(0) /au        :        258.350926


Wiberg/Mayer (AO) data.
largest (>0.10) Wiberg bond orders for each atom

 ---------------------------------------------------------------------------
     #   Z sym  total        # sym  WBO       # sym  WBO       # sym  WBO
 ---------------------------------------------------------------------------
     1   6 C    3.985 --     2 C    1.020    20 H    0.983    21 H    0.980
                            22 H    0.980
     2   6 C    3.914 --     1 C    1.020    23 H    0.973    24 H    0.966
                             3 O    0.889
     3   8 O    2.419 --     4 P    1.338     2 C    0.889
     4  15 P    5.294 --     5 S    1.588     3 O    1.338     6 O    1.293
                             9 S    0.940
     5  16 S    1.923 --     4 P    1.588     9 S    0.143
     6   8 O    2.394 --     4 P    1.293     7 C    0.908
     7   6 C    3.910 --     8 C    1.022    25 H    0.970    26 H    0.969
                             6 O    0.908
     8   6 C    3.991 --     7 C    1.022    28 H    0.983    29 H    0.981
                            27 H    0.977
     9  16 S    2.253 --    10 C    0.982     4 P    0.940     5 S    0.143
    10   6 C    3.956 --    11 S    0.992     9 S    0.982    31 H    0.969
                            30 H    0.942
    11  16 S    2.277 --    10 C    0.992    12 P    0.950    13 S    0.145
    12  15 P    5.298 --    13 S    1.580    17 O    1.331    14 O    1.307
                            11 S    0.950
    13  16 S    1.920 --    12 P    1.580    11 S    0.145
    14   8 O    2.407 --    12 P    1.307    15 C    0.904
    15   6 C    3.911 --    16 C    1.022    33 H    0.970    32 H    0.969
                            14 O    0.904
    16   6 C    3.988 --    15 C    1.022    35 H    0.982    36 H    0.980
                            34 H    0.974
    17   8 O    2.415 --    12 P    1.331    18 C    0.890
    18   6 C    3.914 --    19 C    1.021    37 H    0.971    38 H    0.966
                            17 O    0.890
    19   6 C    3.990 --    18 C    1.021    39 H    0.984    41 H    0.982
                            40 H    0.980
    20   1 H    0.995 --     1 C    0.983
    21   1 H    0.995 --     1 C    0.980
    22   1 H    0.995 --     1 C    0.980
    23   1 H    0.997 --     2 C    0.973
    24   1 H    0.998 --     2 C    0.966
    25   1 H    0.996 --     7 C    0.970
    26   1 H    0.996 --     7 C    0.969
    27   1 H    0.996 --     8 C    0.977
    28   1 H    0.996 --     8 C    0.983
    29   1 H    0.996 --     8 C    0.981
    30   1 H    0.992 --    10 C    0.942
    31   1 H    0.994 --    10 C    0.969
    32   1 H    0.996 --    15 C    0.969
    33   1 H    0.997 --    15 C    0.970
    34   1 H    0.995 --    16 C    0.974
    35   1 H    0.995 --    16 C    0.982
    36   1 H    0.996 --    16 C    0.980
    37   1 H    0.996 --    18 C    0.971
    38   1 H    0.997 --    18 C    0.966
    39   1 H    0.996 --    19 C    0.984
    40   1 H    0.995 --    19 C    0.980
    41   1 H    0.996 --    19 C    0.982
 ---------------------------------------------------------------------------

Topologies differ in total number of bonds
Writing topology from bond orders to xtbtopo.mol

molecular dipole:
                 x           y           z       tot (Debye)
 q only:       -1.363      -2.437      -0.412
   full:       -1.137      -2.632      -0.870       7.616
molecular quadrupole (traceless):
                xx          xy          yy          xz          yz          zz
 q only:       15.888     -16.164     -16.431       3.937       4.533       0.543
  q+dip:       19.133     -17.952     -18.828       2.493       3.101      -0.305
   full:       19.934     -18.079     -19.665       2.833       3.437      -0.269


           -------------------------------------------------
          | TOTAL ENERGY              -65.009445348981 Eh   |
          | GRADIENT NORM               0.043354497182 Eh/α |
          | HOMO-LUMO GAP               2.776345812516 eV   |
           -------------------------------------------------

------------------------------------------------------------------------
 * finished run on 2025/04/09 at 05:20:44.256     
------------------------------------------------------------------------
 total:
 * wall-time:     0 d,  0 h,  0 min,  0.101 sec
 *  cpu-time:     0 d,  0 h,  0 min,  0.067 sec
 * ratio c/w:     0.656 speedup
 SCF:
 * wall-time:     0 d,  0 h,  0 min,  0.058 sec
 *  cpu-time:     0 d,  0 h,  0 min,  0.053 sec
 * ratio c/w:     0.901 speedup

