
                                 *****************
                                 * O   R   C   A *
                                 *****************

                                            #,                                       
                                            ###                                      
                                            ####                                     
                                            #####                                    
                                            ######                                   
                                           ########,                                 
                                     ,,################,,,,,                         
                               ,,#################################,,                 
                          ,,##########################################,,             
                       ,#########################################, ''#####,          
                    ,#############################################,,   '####,        
                  ,##################################################,,,,####,       
                ,###########''''           ''''###############################       
              ,#####''   ,,,,##########,,,,          '''####'''          '####       
            ,##' ,,,,###########################,,,                        '##       
           ' ,,###''''                  '''############,,,                           
         ,,##''                                '''############,,,,        ,,,,,,###''
      ,#''                                            '''#######################'''  
     '                                                          ''''####''''         
             ,#######,   #######,   ,#######,      ##                                
            ,#'     '#,  ##    ##  ,#'     '#,    #''#        ,####,   ,####,        
            ##       ##  ##   ,#'  ##            #'  '#       #'       #'  '#        
            ##       ##  #######   ##           ,######,      #####,   #    #        
            '#,     ,#'  ##    ##  '#,     ,#' ,#      #,     #,   #   #,  ,#        
             '#######'   ##     ##  '#######'  #'      '#     '####' # '####'        



                #########################################################
                #                        -***-                          #
                #          Department of theory and spectroscopy        #
                #                                                       #
                #                      Frank Neese                      #
                #                                                       #
                #     Directorship, Architecture, Infrastructure        #
                #                    SHARK, DRIVERS                     #
                #        Core code/Algorithms in most modules           #
                #                                                       #
                #        Max Planck Institute fuer Kohlenforschung      #
                #                Kaiser Wilhelm Platz 1                 #
                #                 D-45470 Muelheim/Ruhr                 #
                #                      Germany                          #
                #                                                       #
                #                  All rights reserved                  #
                #                        -***-                          #
                #########################################################


                         Program Version 6.0.0  -   RELEASE  -


 With contributions from (in alphabetic order):
   Daniel Aravena         : Magnetic Suceptibility
   Michael Atanasov       : Ab Initio Ligand Field Theory (pilot matlab implementation)
   Alexander A. Auer      : GIAO ZORA, VPT2 properties, NMR spectrum
   Ute Becker             : All parallelization in ORCA, NUMFREQ, NUMCALC
   Giovanni Bistoni       : ED, misc. LED, open-shell LED, HFLD
   Martin Brehm           : Molecular dynamics
   Dmytro Bykov           : pre 5.0 version of the SCF Hessian
   Marcos Casanova-Páez   : Triplet and SCS-CIS(D). UHF-(DLPNO)-IP/EA/STEOM-CCSD. UHF-CVS-IP/STEOM-CCSD
   Vijay G. Chilkuri      : MRCI spin determinant printing, contributions to CSF-ICE
   Pauline Colinet        : FMM embedding
   Dipayan Datta          : RHF DLPNO-CCSD density
   Achintya Kumar Dutta   : EOM-CC, STEOM-CC
   Nicolas Foglia         : Exact transition moments, OPA infrastructure, MCD improvements
   Dmitry Ganyushin       : Spin-Orbit,Spin-Spin,Magnetic field MRCI
   Miquel Garcia          : C-PCM and meta-GGA Hessian, CCSD/C-PCM, Gaussian charge scheme
   Tiago L. C. Gouveia    : GS-ROHF, GS-ROCIS
   Yang Guo               : DLPNO-NEVPT2, F12-NEVPT2, CIM, IAO-localization
   Andreas Hansen         : Spin unrestricted coupled pair/coupled cluster methods
   Ingolf Harden          : AUTO-CI MPn and infrastructure 
   Benjamin Helmich-Paris : MC-RPA, TRAH-(SCF,CASSCF), AVAS, COSX integrals, SCF dyn. polar.
   Lee Huntington         : MR-EOM, pCC
   Robert Izsak           : Overlap fitted RIJCOSX, COSX-SCS-MP3, EOM
   Riya Kayal             : Wick's Theorem for AUTO-CI, AUTO-CI UHF-CCSDT
   Emily Kempfer          : AUTO-CI, RHF CISDT and CCSDT
   Christian Kollmar      : KDIIS, OOCD, Brueckner-CCSD(T), CCSD density, CASPT2, CASPT2-K, improved NEVPT2
   Axel Koslowski         : Symmetry handling
   Simone Kossmann        : Meta GGA functionals, TD-DFT gradient, OOMP2, (MP2 Hessian; deprecated post 5.0)
   Lucas Lang             : DCDCAS
   Marvin Lechner         : AUTO-CI (C++ implementation), FIC-MRCC
   Spencer Leger          : CASSCF response
   Dagmar Lenk            : GEPOL surface, SMD, ORCA-2-JSON
   Dimitrios Liakos       : Extrapolation schemes; Compound Job, initial MDCI parallelization
   Dimitrios Manganas     : Further ROCIS development; embedding schemes. LFT, Crystal Embedding
   Dimitrios Pantazis     : SARC Basis sets
   Anastasios Papadopoulos: AUTO-CI, single reference methods and gradients
   Taras Petrenko         : pre 6.0 DFT Hessian and TD-DFT gradient, (ASA, deprecated), ECA, 1-Electron XAS/XES, NRVS
   Peter Pinski           : DLPNO-MP2, DLPNO-MP2 Gradient
   Christoph Reimann      : Effective Core Potentials
   Marius Retegan         : Local ZFS, SOC
   Christoph Riplinger    : Optimizer, TS searches, QM/MM, DLPNO-CCSD(T), (RO)-DLPNO pert. Triples
   Michael Roemelt        : Original ROCIS implementation
   Masaaki Saitow         : Open-shell DLPNO-CCSD energy and density
   Barbara Sandhoefer     : DKH picture change effects
   Kantharuban Sivalingam : CASSCF convergence/infrastructure, NEVPT2 and variants, FIC-MRCI
   Bernardo de Souza      : ESD, SOC TD-DFT
   Georgi Stoychev        : AutoAux, RI-MP2 NMR, DLPNO-MP2 response, X2C
   Van Anh Tran           : RI-MP2 g-tensors
   Willem Van den Heuvel  : Paramagnetic NMR
   Zikuan Wang            : NOTCH, Electric field optimization 
   Frank Wennmohs         : Technical directorship and infrastructure
   Hang Xu                : AUTO-CI-Response properties 


 We gratefully acknowledge several colleagues who have allowed us to
 interface, adapt or use parts of their codes:
   Stefan Grimme, W. Hujo, H. Kruse, P. Pracht,  : VdW corrections, initial TS optimization,
                  C. Bannwarth, S. Ehlert,         DFT functionals, gCP, sTDA/sTD-DF
                  L. Wittmann, M. Mueller
   Ed Valeev, F. Pavosevic, A. Kumar             : LibInt (2-el integral package), F12 methods
   Garnet Chan, S. Sharma, J. Yang, R. Olivares  : DMRG
   Ulf Ekstrom                                   : XCFun DFT Library
   Mihaly Kallay                                 : mrcc  (arbitrary order and MRCC methods)
   Frank Weinhold                                : gennbo (NPA and NBO analysis)
   Simon Mueller                                 : openCOSMO-RS
   Christopher J. Cramer and Donald G. Truhlar   : smd solvation model
   Lars Goerigk                                  : TD-DFT with DH, B97 family of functionals
   V. Asgeirsson, H. Jonsson                     : NEB implementation
   FAccTs GmbH                                   : IRC, NEB, NEB-TS, DLPNO-Multilevel, CI-OPT
                                                   MM, QMMM, 2- and 3-layer-ONIOM, Crystal-QMMM,
                                                   LR-CPCM, SF, NACMEs, symmetry and pop. for TD-DFT,
                                                   nearIR, NL-DFT gradient (VV10), updates on ESD,
                                                   ML-optimized integration grids, MBIS, APM,
                                                   GOAT, DOCKER, SOLVATOR, interface openCOSMO-RS
   S Lehtola, MJT Oliveira, MAL Marques          : LibXC Library
   Liviu Ungur et al                             : ANISO software


 Your calculation uses the libint2 library for the computation of 2-el integrals
 For citations please refer to: http://libint.valeyev.net

 Your ORCA version has been built with support for libXC version: 6.2.2
 For citations please refer to: https://libxc.gitlab.io

 This ORCA versions uses:
   CBLAS   interface :  Fast vector & matrix operations
   LAPACKE interface :  Fast linear algebra routines
   SCALAPACK package :  Parallel linear algebra routines
   Shared memory     :  Shared parallel matrices
   BLAS/LAPACK       :  OpenBLAS 0.3.27  USE64BITINT DYNAMIC_ARCH NO_AFFINITY SapphireRapids SINGLE_THREADED
        Core in use  :  SapphireRapids
   Copyright (c) 2011-2014, The OpenBLAS Project


Your calculation utilizes the geometrical counterpoise correction gCP
Please cite in your paper:
H.Kruse, S. Grimme J.Chem.Phys., 136, (2012), 154101 
   

Your calculation utilizes the atom-pairwise dispersion correction
based on EEQ partial charges (D4)


================================================================================

----- Orbital basis set information -----
Your calculation utilizes the basis: def2-mTZVPP
   Stefan Grimme, Andreas Hansen, Sebastian Ehlert, and Jan-Michael Mewes 
   J. Chem. Phys. 154, 064103 (2021). DOI: 10.1063/5.0040021

----- AuxJ basis set information -----
Your calculation utilizes the auxiliary basis: def2/J
   F. Weigend, Phys. Chem. Chem. Phys. 8, 1057 (2006).

================================================================================
                                        WARNINGS
                       Please study these warnings very carefully!
================================================================================

Using LibXC functional ID 497 : Re-regularized SCAN exchange by Furness et al
[ 1]  J. W. Furness, A. D. Kaplan, J. Ning, J. P. Perdew, and J. Sun.,  J. Phys. Chem. Lett. 11, 8208-8215 (2020)
[ 2]  J. W. Furness, A. D. Kaplan, J. Ning, J. P. Perdew, and J. Sun.,  J. Phys. Chem. Lett. 11, 9248-9248 (2020)
Using LibXC functional ID 498 : Re-regularized SCAN correlation by Furness et al
[ 1]  J. W. Furness, A. D. Kaplan, J. Ning, J. P. Perdew, and J. Sun.,  J. Phys. Chem. Lett. 11, 8208-8215 (2020)
[ 2]  J. W. Furness, A. D. Kaplan, J. Ning, J. P. Perdew, and J. Sun.,  J. Phys. Chem. Lett. 11, 9248-9248 (2020)
Using LibXC functional ID 497 : Re-regularized SCAN exchange by Furness et al
[ 1]  J. W. Furness, A. D. Kaplan, J. Ning, J. P. Perdew, and J. Sun.,  J. Phys. Chem. Lett. 11, 8208-8215 (2020)
[ 2]  J. W. Furness, A. D. Kaplan, J. Ning, J. P. Perdew, and J. Sun.,  J. Phys. Chem. Lett. 11, 9248-9248 (2020)
Using LibXC functional ID 498 : Re-regularized SCAN correlation by Furness et al
[ 1]  J. W. Furness, A. D. Kaplan, J. Ning, J. P. Perdew, and J. Sun.,  J. Phys. Chem. Lett. 11, 8208-8215 (2020)
[ 2]  J. W. Furness, A. D. Kaplan, J. Ning, J. P. Perdew, and J. Sun.,  J. Phys. Chem. Lett. 11, 9248-9248 (2020)

================================================================================
                                       INPUT FILE
================================================================================
NAME = sp_gas.inp
|  1> ! r2scan-3c def2/J RI DEFGRID2 scfconv6 printgap
|  2> %output
|  3>     printlevel normal
|  4> end
|  5> * xyz 0 1
|  6> C 5.3125073345 -2.0880376911 -1.3411688706
|  7> C 4.2831516383 -0.9797354859 -1.4351070367
|  8> O 3.2150339251 -1.2876553013 -0.5167991322
|  9> P 2.2256011781 -0.1707432699 0.0225076216
| 10> S 3.0806122406 1.4731643088 0.6712641752
| 11> O 1.3669323542 -0.9833506607 1.0726290426
| 12> C 1.6777752439 -0.9558833598 2.4841273397
| 13> C 2.9757738328 -1.6759128888 2.7799558821
| 14> S 0.8499867209 0.0694014595 -1.5669531816
| 15> C 0.1128561009 1.6079822895 -0.9479682492
| 16> S -0.8752469679 1.3652574821 0.5440774749
| 17> P -2.4415228379 0.2607679015 -0.4077153796
| 18> S -2.904881591 0.8301732985 -2.2172520921
| 19> O -3.6176800967 0.2878744914 0.6606631054
| 20> C -4.5993224386 1.3403794795 0.70776996
| 21> C -3.9989207887 2.6753376722 1.0970759489
| 22> O -1.9728043768 -1.2441282824 -0.3616455179
| 23> C -1.7216189309 -1.9618572652 0.8709642133
| 24> C -2.8980488983 -2.8521190149 1.2133814704
| 25> H 5.7293151833 -2.1295916739 -0.3389045833
| 26> H 4.8488779602 -3.0430798364 -1.5702756347
| 27> H 6.1089318082 -1.8947259859 -2.0522001085
| 28> H 3.8588589782 -0.9116931913 -2.4404658153
| 29> H 4.7111330591 -0.0093805438 -1.1609836411
| 30> H 1.7289976316 0.0888309624 2.8066466446
| 31> H 0.8240690174 -1.4477002768 2.9516063218
| 32> H 3.1334523901 -1.709696685 3.8533408361
| 33> H 2.9439494397 -2.6874007417 2.3840581594
| 34> H 3.8050838616 -1.142292561 2.3169863595
| 35> H -0.5235434855 1.989780001 -1.7464638486
| 36> H 0.9045207149 2.3128147948 -0.693337287
| 37> H -5.0791947335 1.4058253151 -0.2732912055
| 38> H -5.3173795884 0.990916123 1.4510335176
| 39> H -3.4180040689 2.5791997006 2.0110129647
| 40> H -3.3474266514 3.0379735436 0.3035973121
| 41> H -4.7971291212 3.3943640173 1.2508908093
| 42> H -0.8193127699 -2.5442562156 0.6725152581
| 43> H -1.524838041 -1.2382517152 1.6670538001
| 44> H -3.780876396 -2.2491304339 1.4084100345
| 45> H -3.1075664527 -3.5234028085 0.3851300394
| 46> H -2.6581983765 -3.4353955858 2.0968686922
| 47> *
| 48> 
| 49>                          ****END OF INPUT****
================================================================================

                       ****************************
                       * Single Point Calculation *
                       ****************************

---------------------------------
CARTESIAN COORDINATES (ANGSTROEM)
---------------------------------
  C      5.312507   -2.088038   -1.341169
  C      4.283152   -0.979735   -1.435107
  O      3.215034   -1.287655   -0.516799
  P      2.225601   -0.170743    0.022508
  S      3.080612    1.473164    0.671264
  O      1.366932   -0.983351    1.072629
  C      1.677775   -0.955883    2.484127
  C      2.975774   -1.675913    2.779956
  S      0.849987    0.069401   -1.566953
  C      0.112856    1.607982   -0.947968
  S     -0.875247    1.365257    0.544077
  P     -2.441523    0.260768   -0.407715
  S     -2.904882    0.830173   -2.217252
  O     -3.617680    0.287874    0.660663
  C     -4.599322    1.340379    0.707770
  C     -3.998921    2.675338    1.097076
  O     -1.972804   -1.244128   -0.361646
  C     -1.721619   -1.961857    0.870964
  C     -2.898049   -2.852119    1.213381
  H      5.729315   -2.129592   -0.338905
  H      4.848878   -3.043080   -1.570276
  H      6.108932   -1.894726   -2.052200
  H      3.858859   -0.911693   -2.440466
  H      4.711133   -0.009381   -1.160984
  H      1.728998    0.088831    2.806647
  H      0.824069   -1.447700    2.951606
  H      3.133452   -1.709697    3.853341
  H      2.943949   -2.687401    2.384058
  H      3.805084   -1.142293    2.316986
  H     -0.523543    1.989780   -1.746464
  H      0.904521    2.312815   -0.693337
  H     -5.079195    1.405825   -0.273291
  H     -5.317380    0.990916    1.451034
  H     -3.418004    2.579200    2.011013
  H     -3.347427    3.037974    0.303597
  H     -4.797129    3.394364    1.250891
  H     -0.819313   -2.544256    0.672515
  H     -1.524838   -1.238252    1.667054
  H     -3.780876   -2.249130    1.408410
  H     -3.107566   -3.523403    0.385130
  H     -2.658198   -3.435396    2.096869

----------------------------
CARTESIAN COORDINATES (A.U.)
----------------------------
  NO LB      ZA    FRAG     MASS         X           Y           Z
   0 C     6.0000    0    12.011   10.039184   -3.945819   -2.534442
   1 C     6.0000    0    12.011    8.093984   -1.851432   -2.711959
   2 O     8.0000    0    15.999    6.075534   -2.433316   -0.976609
   3 P    15.0000    0    30.974    4.205777   -0.322658    0.042533
   4 S    16.0000    0    32.060    5.821513    2.783877    1.268505
   5 O     8.0000    0    15.999    2.583128   -1.858263    2.026975
   6 C     6.0000    0    12.011    3.170536   -1.806358    4.694320
   7 C     6.0000    0    12.011    5.623398   -3.167016    5.253355
   8 S    16.0000    0    32.060    1.606242    0.131150   -2.961112
   9 C     6.0000    0    12.011    0.213267    3.038646   -1.791400
  10 S    16.0000    0    32.060   -1.653977    2.579963    1.028157
  11 P    15.0000    0    30.974   -4.613810    0.492780   -0.770470
  12 S    16.0000    0    32.060   -5.489431    1.568800   -4.189999
  13 O     8.0000    0    15.999   -6.836425    0.544004    1.248472
  14 C     6.0000    0    12.011   -8.691460    2.532950    1.337491
  15 C     6.0000    0    12.011   -7.556865    5.055656    2.073173
  16 O     8.0000    0    15.999   -3.728060   -2.351062   -0.683411
  17 C     6.0000    0    12.011   -3.253388   -3.707373    1.645884
  18 C     6.0000    0    12.011   -5.476519   -5.389724    2.292959
  19 H     1.0000    0     1.008   10.826837   -4.024345   -0.640437
  20 H     1.0000    0     1.008    9.163051   -5.750587   -2.967391
  21 H     1.0000    0     1.008   11.544208   -3.580513   -3.878096
  22 H     1.0000    0     1.008    7.292187   -1.722850   -4.611812
  23 H     1.0000    0     1.008    8.902751   -0.017727   -2.193941
  24 H     1.0000    0     1.008    3.267332    0.167866    5.303794
  25 H     1.0000    0     1.008    1.557265   -2.735757    5.577728
  26 H     1.0000    0     1.008    5.921367   -3.230859    7.281759
  27 H     1.0000    0     1.008    5.563258   -5.078451    4.505217
  28 H     1.0000    0     1.008    7.190566   -2.158620    4.378470
  29 H     1.0000    0     1.008   -0.989354    3.760139   -3.300338
  30 H     1.0000    0     1.008    1.709296    4.370587   -1.310218
  31 H     1.0000    0     1.008   -9.598287    2.656625   -0.516446
  32 H     1.0000    0     1.008  -10.048391    1.872560    2.742056
  33 H     1.0000    0     1.008   -6.459092    4.873981    3.800264
  34 H     1.0000    0     1.008   -6.325720    5.740938    0.573716
  35 H     1.0000    0     1.008   -9.065260    6.414418    2.363841
  36 H     1.0000    0     1.008   -1.548277   -4.807947    1.270870
  37 H     1.0000    0     1.008   -2.881526   -2.339957    3.150275
  38 H     1.0000    0     1.008   -7.144821   -4.250241    2.661509
  39 H     1.0000    0     1.008   -5.872450   -6.658266    0.727790
  40 H     1.0000    0     1.008   -5.023267   -6.491957    3.962508

--------------------------------
INTERNAL COORDINATES (ANGSTROEM)
--------------------------------
 C      0   0   0     0.000000000000     0.00000000     0.00000000
 C      1   0   0     1.515497049288     0.00000000     0.00000000
 O      2   1   0     1.441866661462   107.90887289     0.00000000
 P      3   2   1     1.586606889376   121.87833351   159.11181497
 S      4   3   2     1.963252686269   115.47961383   312.52789615
 O      4   3   2     1.581264658292   101.68973108   185.32524440
 C      6   4   3     1.445581266277   121.46066909    97.25119197
 C      7   6   4     1.513524821705   111.48258834   290.85341047
 S      4   3   2     2.115743432183   103.29734129    80.06868770
 C      9   4   3     1.814864972367    95.97404587   193.26538026
 S     10   9   4     1.805952227913   112.95857985   290.50484136
 P     11  10   9     2.139866110876    95.87569338   291.24603008
 S     12  11  10     1.952779289652   115.80693299   323.45985904
 O     12  11  10     1.589186349002   103.52612632   195.01694798
 C     14  12  11     1.440002601781   122.61435484    88.67751418
 C     15  14  12     1.514646714733   112.48124798   293.60388857
 O     12  11  10     1.576874107927   105.19025172    87.78804585
 C     17  12  11     1.448294089759   123.32350896    60.77934825
 C     18  17  12     1.514530629976   110.42629907   100.66903425
 H      1   2   3     1.086273086247   110.22981185   297.90719263
 H      1   2   3     1.086069797651   109.88042073    57.99620154
 H      1   2   3     1.085000819790   109.12632449   177.91834118
 H      2   1   3     1.093343628041   111.47486123   241.38908929
 H      2   1   3     1.095399674193   111.52712818   119.21674116
 H      7   6   4     1.094564045657   108.41555110    53.17353192
 H      7   6   4     1.090520426089   103.98479386   170.11385574
 H      8   7   6     1.085430390118   109.43131749   184.83814734
 H      8   7   6     1.086671742248   110.27283476   305.47737279
 H      8   7   6     1.089424874402   109.67912802    65.36115829
 H     10   9   4     1.090123455549   106.51135484   170.33421801
 H     10   9   4     1.090118639643   109.44116886    49.51507365
 H     15  14  12     1.094093957237   108.26307102    56.10272377
 H     15  14  12     1.090949780683   103.70039186   172.87683973
 H     16  15  14     1.087192537583   110.48341236   308.19205413
 H     16  15  14     1.088833198070   110.08494918    68.38935123
 H     16  15  14     1.085262382238   109.19697891   187.80523434
 H     18  17  12     1.092120384127   104.65015297   220.98450373
 H     18  17  12     1.093657323311   108.83419877   338.15198647
 H     19  18  17     1.086745490134   110.20811134   295.86691436
 H     19  18  17     1.086517358400   109.91396658    55.82585337
 H     19  18  17     1.085490443096   109.16174162   175.73703741

---------------------------
INTERNAL COORDINATES (A.U.)
---------------------------
 C      0   0   0     0.000000000000     0.00000000     0.00000000
 C      1   0   0     2.863874379920     0.00000000     0.00000000
 O      2   1   0     2.724733111794   107.90887289     0.00000000
 P      3   2   1     2.998252503114   121.87833351   159.11181497
 S      4   3   2     3.710009908734   115.47961383   312.52789615
 O      4   3   2     2.988157149421   101.68973108   185.32524440
 C      6   4   3     2.731752697591   121.46066909    97.25119197
 C      7   6   4     2.860147409914   111.48258834   290.85341047
 S      4   3   2     3.998175656468   103.29734129    80.06868770
 C      9   4   3     3.429597767819    95.97404587   193.26538026
 S     10   9   4     3.412755121701   112.95857985   290.50484136
 P     11  10   9     4.043760912815    95.87569338   291.24603008
 S     12  11  10     3.690218057435   115.80693299   323.45985904
 O     12  11  10     3.003126975380   103.52612632   195.01694798
 C     14  12  11     2.721210549501   122.61435484    88.67751418
 C     15  14  12     2.862267480490   112.48124798   293.60388857
 O     12  11  10     2.979860211653   105.19025172    87.78804585
 C     17  12  11     2.736879191022   123.32350896    60.77934825
 C     18  17  12     2.862048112090   110.42629907   100.66903425
 H      1   2   3     2.052758639656   110.22981185   297.90719263
 H      1   2   3     2.052374479883   109.88042073    57.99620154
 H      1   2   3     2.050354404483   109.12632449   177.91834118
 H      2   1   3     2.066120027265   111.47486123   241.38908929
 H      2   1   3     2.070005391412   111.52712818   119.21674116
 H      7   6   4     2.068426282328   108.41555110    53.17353192
 H      7   6   4     2.060784948755   103.98479386   170.11385574
 H      8   7   6     2.051166174758   109.43131749   184.83814734
 H      8   7   6     2.053511990319   110.27283476   305.47737279
 H      8   7   6     2.058714656102   109.67912802    65.36115829
 H     10   9   4     2.060034783151   106.51135484   170.33421801
 H     10   9   4     2.060025682409   109.44116886    49.51507365
 H     15  14  12     2.067537943956   108.26307102    56.10272377
 H     15  14  12     2.061596311352   103.70039186   172.87683973
 H     16  15  14     2.054496150875   110.48341236   308.19205413
 H     16  15  14     2.057596549875   110.08494918    68.38935123
 H     16  15  14     2.050848685876   109.19697891   187.80523434
 H     18  17  12     2.063808431273   104.65015297   220.98450373
 H     18  17  12     2.066712825415   108.83419877   338.15198647
 H     19  18  17     2.053651353627   110.20811134   295.86691436
 H     19  18  17     2.053220247128   109.91396658    55.82585337
 H     19  18  17     2.051279658440   109.16174162   175.73703741

---------------------
BASIS SET INFORMATION
---------------------
There are 5 groups of distinct atoms

 Group   1 Type C   : 11s6p1d contracted to 5s3p1d pattern {62111/411/1}
 Group   2 Type O   : 11s6p2d contracted to 5s3p2d pattern {62111/411/11}
 Group   3 Type P   : 14s9p2d contracted to 5s4p2d pattern {73211/6111/11}
 Group   4 Type S   : 14s9p2d contracted to 5s4p2d pattern {73211/6111/11}
 Group   5 Type H   : 4s1p contracted to 2s1p pattern {31/1}

Atom   0C    basis set group =>   1
Atom   1C    basis set group =>   1
Atom   2O    basis set group =>   2
Atom   3P    basis set group =>   3
Atom   4S    basis set group =>   4
Atom   5O    basis set group =>   2
Atom   6C    basis set group =>   1
Atom   7C    basis set group =>   1
Atom   8S    basis set group =>   4
Atom   9C    basis set group =>   1
Atom  10S    basis set group =>   4
Atom  11P    basis set group =>   3
Atom  12S    basis set group =>   4
Atom  13O    basis set group =>   2
Atom  14C    basis set group =>   1
Atom  15C    basis set group =>   1
Atom  16O    basis set group =>   2
Atom  17C    basis set group =>   1
Atom  18C    basis set group =>   1
Atom  19H    basis set group =>   5
Atom  20H    basis set group =>   5
Atom  21H    basis set group =>   5
Atom  22H    basis set group =>   5
Atom  23H    basis set group =>   5
Atom  24H    basis set group =>   5
Atom  25H    basis set group =>   5
Atom  26H    basis set group =>   5
Atom  27H    basis set group =>   5
Atom  28H    basis set group =>   5
Atom  29H    basis set group =>   5
Atom  30H    basis set group =>   5
Atom  31H    basis set group =>   5
Atom  32H    basis set group =>   5
Atom  33H    basis set group =>   5
Atom  34H    basis set group =>   5
Atom  35H    basis set group =>   5
Atom  36H    basis set group =>   5
Atom  37H    basis set group =>   5
Atom  38H    basis set group =>   5
Atom  39H    basis set group =>   5
Atom  40H    basis set group =>   5
---------------------------------
AUXILIARY/J BASIS SET INFORMATION
---------------------------------
There are 5 groups of distinct atoms

 Group   1 Type C   : 12s5p4d2f1g contracted to 6s4p3d1f1g pattern {711111/2111/211/2/1}
 Group   2 Type O   : 12s5p4d2f1g contracted to 6s4p3d1f1g pattern {711111/2111/211/2/1}
 Group   3 Type P   : 14s5p5d2f1g contracted to 8s4p3d1f1g pattern {71111111/2111/311/2/1}
 Group   4 Type S   : 14s5p5d2f1g contracted to 8s4p3d1f1g pattern {71111111/2111/311/2/1}
 Group   5 Type H   : 5s2p1d contracted to 3s1p1d pattern {311/2/1}

Atom   0C    basis set group =>   1
Atom   1C    basis set group =>   1
Atom   2O    basis set group =>   2
Atom   3P    basis set group =>   3
Atom   4S    basis set group =>   4
Atom   5O    basis set group =>   2
Atom   6C    basis set group =>   1
Atom   7C    basis set group =>   1
Atom   8S    basis set group =>   4
Atom   9C    basis set group =>   1
Atom  10S    basis set group =>   4
Atom  11P    basis set group =>   3
Atom  12S    basis set group =>   4
Atom  13O    basis set group =>   2
Atom  14C    basis set group =>   1
Atom  15C    basis set group =>   1
Atom  16O    basis set group =>   2
Atom  17C    basis set group =>   1
Atom  18C    basis set group =>   1
Atom  19H    basis set group =>   5
Atom  20H    basis set group =>   5
Atom  21H    basis set group =>   5
Atom  22H    basis set group =>   5
Atom  23H    basis set group =>   5
Atom  24H    basis set group =>   5
Atom  25H    basis set group =>   5
Atom  26H    basis set group =>   5
Atom  27H    basis set group =>   5
Atom  28H    basis set group =>   5
Atom  29H    basis set group =>   5
Atom  30H    basis set group =>   5
Atom  31H    basis set group =>   5
Atom  32H    basis set group =>   5
Atom  33H    basis set group =>   5
Atom  34H    basis set group =>   5
Atom  35H    basis set group =>   5
Atom  36H    basis set group =>   5
Atom  37H    basis set group =>   5
Atom  38H    basis set group =>   5
Atom  39H    basis set group =>   5
Atom  40H    basis set group =>   5

Checking for AutoStart:
The File: sp_gas.gbw exists
Trying to determine its content:
     ... Fine, the file contains calculation information
     ... Fine, the calculation information was read
     ... Fine, the file contains a basis set
     ... Fine, the basis set was read
     ... Fine, the file contains a geometry
     ... Fine, the geometry was read
     ... Fine, the file contains a set of orbitals
     ... Fine, the orbitals can be read
     => possible old guess file was deleted
     => GBW file was renamed to GES file
     => GES file is set as startup file
     => Guess is set to MORead
     ... now leaving AutoStart

------------------------------------------------------------------------------
                             ORCA STARTUP CALCULATIONS
                           -- RI-GTO INTEGRALS CHOSEN --
------------------------------------------------------------------------------
------------------------------------------------------------------------------
                   ___                                                        
                  /   \      - P O W E R E D   B Y -                         
                 /     \                                                     
                 |  |  |   _    _      __       _____    __    __             
                 |  |  |  | |  | |    /  \     |  _  \  |  |  /  |          
                  \  \/   | |  | |   /    \    | | | |  |  | /  /          
                 / \  \   | |__| |  /  /\  \   | |_| |  |  |/  /          
                |  |  |   |  __  | /  /__\  \  |    /   |      \           
                |  |  |   | |  | | |   __   |  |    \   |  |\   \          
                \     /   | |  | | |  |  |  |  | |\  \  |  | \   \       
                 \___/    |_|  |_| |__|  |__|  |_| \__\ |__|  \__/        
                                                                              
                      - O R C A' S   B I G   F R I E N D -                    
                                      &                                       
                       - I N T E G R A L  F E E D E R -                       
                                                                              
 v1 FN, 2020, v2 2021, v3 2022-2024                                           
------------------------------------------------------------------------------


----------------------
SHARK INTEGRAL PACKAGE
----------------------

Number of atoms                             ...     41
Number of basis functions                   ...    539
Number of shells                            ...    253
Maximum angular momentum                    ...      2
Integral batch strategy                     ... SHARK/LIBINT Hybrid
RI-J (if used) integral strategy            ... SPLIT-RIJ (Revised 2003 algorithm where possible)
Printlevel                                  ...      1
Contraction scheme used                     ... SEGMENTED contraction
Prescreening option                         ... SCHWARTZ
   Thresh                                   ... 1.000e-10
   Tcut                                     ... 1.000e-11
   Tpresel                                  ... 1.000e-11 
Coulomb Range Separation                    ... NOT USED
Exchange Range Separation                   ... NOT USED
Multipole approximations                    ... NOT USED
Finite Nucleus Model                        ... NOT USED
CABS basis                                  ... NOT available
Auxiliary Coulomb fitting basis             ... AVAILABLE
   # of basis functions in Aux-J            ...   1185
   # of shells in Aux-J                     ...    407
   Maximum angular momentum in Aux-J        ...      4
Auxiliary J/K fitting basis                 ... NOT available
Auxiliary Correlation fitting basis         ... NOT available
Auxiliary 'external' fitting basis          ... NOT available

Checking pre-screening integrals            ... done (  0.0 sec) Dimension = 253
Check shell pair data                       ... done (  0.0 sec)
Shell pair information
Shell pair cut-off parameter TPreSel        ...   1.0e-11
Total number of shell pairs                 ...     32131
Shell pairs after pre-screening             ...     20963
Total number of primitive shell pairs       ...    124843
Primitive shell pairs kept                  ...     49087
          la=0 lb=0:   5893 shell pairs
          la=1 lb=0:   7610 shell pairs
          la=1 lb=1:   2508 shell pairs
          la=2 lb=0:   2804 shell pairs
          la=2 lb=1:   1804 shell pairs
          la=2 lb=2:    344 shell pairs

Calculating one electron integrals          ... done (  0.1 sec)
Calculating RI/J V-Matrix + Cholesky decomp.... done (  0.1 sec)
Calculating Nuclear repulsion               ... done (  0.0 sec) ENN=   2750.421865202144 Eh

Diagonalization of the overlap matrix:
Smallest eigenvalue                        ... 2.675e-04
Time for diagonalization                   ...    0.029 sec
Threshold for overlap eigenvalues          ... 1.000e-07
Number of eigenvalues below threshold      ... 0
Time for construction of square roots      ...    0.053 sec
Total time needed                          ...    0.092 sec

-------------------
DFT GRID GENERATION
-------------------

General Integration Accuracy     IntAcc      ... 4.388
Radial Grid Type                 RadialGrid  ... OptM3 with GC (2021)
Angular Grid (max. ang.)         AngularGrid ... 4 (Lebedev-302)
Angular grid pruning method      GridPruning ... 4 (adaptive)
Weight generation scheme         WeightScheme... mBecke (2022)
Basis function cutoff            BFCut       ... 1.0000e-10
Integration weight cutoff        WCut        ... 1.0000e-14
Partially contracted basis set               ... off
Rotationally invariant grid construction     ... off
Angular grids for H and He will be reduced by one unit
Diffuse basis detected: some atoms will have their outermost
                        angular grid increased by 1.

Total number of grid points                  ...   192724
Total number of batches                      ...     3033
Average number of points per batch           ...       63
Average number of grid points per atom       ...     4701
Initializing property integral containers    ... done (  0.0 sec)

SHARK setup successfully completed in   2.9 seconds

Maximum memory used throughout the entire STARTUP-calculation: 101.4 MB
-------------------------------------------------------------------------------
                                 ORCA GUESS
                   Start orbitals & Density for SCF / CASSCF
-------------------------------------------------------------------------------

------------
SCF SETTINGS
------------
Hamiltonian:
 Density Functional     Method          .... DFT(GTOs)
  Functional kind                       .... Exchange
  Functional name                       .... Re-regularized SCAN exchange by Furness et al
  Functional family                     .... MGGA
  Functional refs                              
    [ 0] J. W. Furness, A. D. Kaplan, J. Ning, J. P. Perdew, and J. Sun.,  J. Phys. Chem. Lett. 11, 8208-8215 (2020), doi: 10.1021/acs.jpclett.0c02405
    [ 1] J. W. Furness, A. D. Kaplan, J. Ning, J. P. Perdew, and J. Sun.,  J. Phys. Chem. Lett. 11, 9248-9248 (2020), doi: 10.1021/acs.jpclett.0c03077
  Functional external parameters        .... 6
    Parameter  0 _c1        =  6.670000e-01 : c1 parameter        
    Parameter  1 _c2        =  8.000000e-01 : c2 parameter        
    Parameter  2 _d         =  1.240000e+00 : d parameter         
    Parameter  3 _k1        =  6.500000e-02 : k1 parameter        
    Parameter  4 _eta       =  1.000000e-03 : eta parameter       
    Parameter  5 _dp2       =  3.610000e-01 : dp2 parameter       
  Functional kind                       .... Correlation
  Functional name                       .... Re-regularized SCAN correlation by Furness et al
  Functional family                     .... MGGA
  Functional refs                              
    [ 0] J. W. Furness, A. D. Kaplan, J. Ning, J. P. Perdew, and J. Sun.,  J. Phys. Chem. Lett. 11, 8208-8215 (2020), doi: 10.1021/acs.jpclett.0c02405
    [ 1] J. W. Furness, A. D. Kaplan, J. Ning, J. P. Perdew, and J. Sun.,  J. Phys. Chem. Lett. 11, 9248-9248 (2020), doi: 10.1021/acs.jpclett.0c03077
  Functional external parameters        .... 1
    Parameter  0 _eta       =  1.000000e-03 : Regularization parameter
 Gradients option       PostSCFGGA      .... off
 RI-approximation to the Coulomb term is turned on
   Number of AuxJ basis functions       .... 1185


General Settings:
 Integral files         IntName         .... sp_gas
 Hartree-Fock type      HFTyp           .... RHF
 Total Charge           Charge          ....    0
 Multiplicity           Mult            ....    1
 Number of Electrons    NEL             ....  202
 Basis Dimension        Dim             ....  539
 Nuclear Repulsion      ENuc            ....   2750.4218652021 Eh

Convergence Acceleration:
 AO-DIIS                CNVDIIS         .... on
   Start iteration      DIISMaxIt       ....    12
   Startup error        DIISStart       ....  0.200000
   # of expansion vecs  DIISMaxEq       ....     5
   Bias factor          DIISBfac        ....   1.050
   Max. coefficient     DIISMaxC        ....  10.000
 MO-DIIS                CNVKDIIS        .... off
 Trust-Rad. Augm. Hess. CNVTRAH         .... auto
   Auto Start mean grad. ratio tolernc. ....  1.125000
   Auto Start start iteration           ....     1
   Auto Start num. interpolation iter.  ....    10
   Max. Number of Micro iterations      ....    24
   Max. Number of Macro iterations      .... Maxiter - #DIIS iter
   Number of Davidson start vectors     ....     2
   Converg. threshold    (grad. norm)   ....   3.330e-04
   Grad. Scal. Fac. for Micro threshold ....   0.100
   Minimum threshold for Micro iter.    ....   1.000e-02
   NR start threshold (gradient norm)   ....   1.000e-04
   Initial trust radius                 ....   0.400
   Minimum AH scaling param. (alpha)    ....   1.000
   Maximum AH scaling param. (alpha)    .... 1000.000
   Quad. conv. algorithm                .... NR
   White noise on init. David. guess    .... on
   Maximum white noise                  ....   0.010
   Pseudo random numbers                .... off
   Inactive MOs                         .... canonical
   Orbital update algorithm             .... Taylor
   Preconditioner                       .... Diag
   Full preconditioner red. dimension   ....   250
   COSX micro iterations for RIJONX calc.... off
 SOSCF                  CNVSOSCF        .... on
   Start iteration      SOSCFMaxIt      ....   150
   Startup grad/error   SOSCFStart      ....  0.003300
   Hessian update       SOSCFHessUp     .... L-BFGS
 Level Shifting         CNVShift        .... on
   Level shift para.    LevelShift      ....    0.2500
   Turn off err/grad.   ShiftErr        ....    0.0010
 Zerner damping         CNVZerner       .... off
 Static damping         CNVDamp         .... on
   Fraction old density DampFac         ....    0.7000
   Max. Damping (<1)    DampMax         ....    0.9800
   Min. Damping (>=0)   DampMin         ....    0.0000
   Turn off err/grad.   DampErr         ....    0.1000

SCF Procedure:
 Maximum # iterations   MaxIter         ....   125
 SCF integral mode      SCFMode         .... Direct
   Integral package                     .... SHARK and LIBINT hybrid scheme
 Reset frequency        DirectResetFreq ....    20
 Integral Threshold     Thresh          ....  1.000e-10 Eh
 Primitive CutOff       TCut            ....  1.000e-11 Eh

Convergence Tolerance:
 Convergence Check Mode ConvCheckMode   .... Total+1el-Energy
 Convergence forced     ConvForced      .... 0
 Energy Change          TolE            ....  1.000e-06 Eh
 1-El. energy change                    ....  1.000e-03 Eh
 Orbital Gradient       TolG            ....  3.330e-04
 Orbital Rotation angle TolX            ....  3.330e-04
 DIIS Error             TolErr          ....  1.000e-06

---------------------
INITIAL GUESS: MOREAD
---------------------
Guess MOs are being read from file: sp_gas.ges
Input Geometry matches current geometry (good)
Atom 0: N(Shells)= 9 and 6 - projection required
Input basis set needs projection
NBasis(read)= 334
NBasis(calc)= 539
Basis set overlap was calculated
Using GuessMode=FMatrix for the initial guess
C*T matrix was formed
Effective Fockian was calculated
Effective Fockian was diagonalized
Initial density was built
                      ------------------
                      INITIAL GUESS DONE (   0.2 sec)
                      ------------------
             **** ENERGY FILE WAS UPDATED (sp_gas.en.tmp) ****
Finished Guess after   0.5 sec
Maximum memory used throughout the entire GUESS-calculation: 58.3 MB

-------------------------------------------------------------------------------------------
                                      ORCA LEAN-SCF
                              memory conserving SCF solver
-------------------------------------------------------------------------------------------

----------------------------------------D-I-I-S--------------------------------------------
Iteration    Energy (Eh)           Delta-E    RMSDP     MaxDP     DIISErr   Damp  Time(sec)
-------------------------------------------------------------------------------------------
               ***  Starting incremental Fock matrix formation  ***
    1    -2932.0103949195663517     0.00e+00  2.16e-03  9.09e-02  6.34e-01  0.700   9.3
    2    -2932.1529341444465899    -1.43e-01  1.77e-03  7.39e-02  4.46e-01  0.700   7.6
    3    -2932.2536405754608495    -1.01e-01  1.30e-03  5.39e-02  3.13e-01  0.700   7.1
    4    -2932.3242965754425313    -7.07e-02  9.35e-04  3.85e-02  2.19e-01  0.700   6.9
                               ***Turning on AO-DIIS***
    5    -2932.3738323581737859    -4.95e-02  6.77e-04  2.78e-02  1.53e-01  0.700   6.7
    6    -2932.4085422341931917    -3.47e-02  4.79e-04  1.96e-02  1.07e-01  0.700   6.7
    7    -2932.4328689358426345    -2.43e-02  3.37e-04  1.38e-02  7.50e-02  0.700   6.4
    8    -2932.4499105190625414    -1.70e-02  7.91e-04  3.24e-02  5.26e-02  0.000   6.5
                              *** Initializing SOSCF ***
---------------------------------------S-O-S-C-F--------------------------------------
Iteration    Energy (Eh)           Delta-E    RMSDP     MaxDP     MaxGrad    Time(sec)
--------------------------------------------------------------------------------------
    9    -2932.4897169211863002    -3.98e-02  5.09e-06  1.99e-04  1.36e-04     7.1
               *** Restarting incremental Fock matrix formation ***
   10    -2932.4897172497876454    -3.29e-07  4.67e-06  1.75e-04  2.76e-05     8.8
                  *** Gradient check signals convergence ***

               *****************************************************
               *                     SUCCESS                       *
               *           SCF CONVERGED AFTER  10 CYCLES          *
               *****************************************************

             **** ENERGY FILE WAS UPDATED (sp_gas.en.tmp) ****

----------------
TOTAL SCF ENERGY
----------------

Total Energy       :      -2932.48971724978765 Eh          -79797.10201 eV

Components:
Nuclear Repulsion  :       2750.42186520214364 Eh           74842.78389 eV
Electronic Energy  :      -5682.91158245193219 Eh         -154639.88590 eV
One Electron Energy:      -9521.72796143654341 Eh         -259099.39019 eV
Two Electron Energy:       3838.81637898461167 Eh          104459.50429 eV

Virial components:
Potential Energy   :      -5856.16131553035484 Eh         -159354.25081 eV
Kinetic Energy     :       2923.67159828056765 Eh           79557.14880 eV
Virial Ratio       :          2.00301611130826

DFT components:
N(Alpha)           :      101.000053318467 electrons
N(Beta)            :      101.000053318467 electrons
N(Total)           :      202.000106636934 electrons
E(X)               :     -233.538304495678 Eh       
E(C)               :       -7.118132040226 Eh       
E(XC)              :     -240.656436535904 Eh       

---------------
SCF CONVERGENCE
---------------

  Last Energy change         ...    3.2860e-07  Tolerance :   1.0000e-06
  Last MAX-Density change    ...    1.7506e-04  Tolerance :   1.0000e-05
  Last RMS-Density change    ...    4.6739e-06  Tolerance :   1.0000e-06
  Last DIIS Error            ...    1.3567e-04  Tolerance :   1.0000e-06
  Last Orbital Gradient      ...    2.7624e-05  Tolerance :   3.3300e-04
  Last Orbital Rotation      ...    6.8552e-05  Tolerance :   3.3300e-04


----------------
ORBITAL ENERGIES
----------------

  NO   OCC          E(Eh)            E(eV) 
   0   2.0000     -88.572834     -2410.1894 
   1   2.0000     -88.571454     -2410.1518 
   2   2.0000     -88.522162     -2408.8105 
   3   2.0000     -88.519566     -2408.7399 
   4   2.0000     -76.914520     -2092.9505 
   5   2.0000     -76.912969     -2092.9083 
   6   2.0000     -18.995830      -516.9028 
   7   2.0000     -18.994941      -516.8786 
   8   2.0000     -18.993606      -516.8423 
   9   2.0000     -18.987251      -516.6694 
  10   2.0000     -10.101815      -274.8844 
  11   2.0000     -10.101629      -274.8793 
  12   2.0000     -10.100721      -274.8546 
  13   2.0000     -10.100570      -274.8505 
  14   2.0000     -10.099170      -274.8124 
  15   2.0000     -10.035079      -273.0684 
  16   2.0000     -10.032186      -272.9897 
  17   2.0000     -10.030314      -272.9387 
  18   2.0000     -10.029661      -272.9210 
  19   2.0000      -7.866933      -214.0701 
  20   2.0000      -7.865812      -214.0396 
  21   2.0000      -7.817000      -212.7114 
  22   2.0000      -7.814379      -212.6401 
  23   2.0000      -6.593251      -179.4115 
  24   2.0000      -6.591446      -179.3624 
  25   2.0000      -5.813803      -158.2016 
  26   2.0000      -5.812619      -158.1694 
  27   2.0000      -5.810849      -158.1212 
  28   2.0000      -5.809715      -158.0904 
  29   2.0000      -5.804042      -157.9360 
  30   2.0000      -5.802952      -157.9063 
  31   2.0000      -5.764532      -156.8609 
  32   2.0000      -5.762071      -156.7939 
  33   2.0000      -5.757287      -156.6637 
  34   2.0000      -5.757094      -156.6585 
  35   2.0000      -5.754569      -156.5898 
  36   2.0000      -5.754411      -156.5855 
  37   2.0000      -4.738640      -128.9450 
  38   2.0000      -4.738171      -128.9322 
  39   2.0000      -4.737349      -128.9098 
  40   2.0000      -4.737047      -128.9016 
  41   2.0000      -4.736279      -128.8807 
  42   2.0000      -4.734913      -128.8435 
  43   2.0000      -1.053031       -28.6544 
  44   2.0000      -1.051394       -28.6099 
  45   2.0000      -1.014284       -27.6001 
  46   2.0000      -1.009935       -27.4817 
  47   2.0000      -0.799937       -21.7674 
  48   2.0000      -0.760013       -20.6810 
  49   2.0000      -0.750843       -20.4315 
  50   2.0000      -0.735956       -20.0264 
  51   2.0000      -0.735206       -20.0060 
  52   2.0000      -0.710162       -19.3245 
  53   2.0000      -0.685406       -18.6508 
  54   2.0000      -0.668100       -18.1799 
  55   2.0000      -0.633119       -17.2280 
  56   2.0000      -0.625098       -17.0098 
  57   2.0000      -0.607314       -16.5258 
  58   2.0000      -0.602365       -16.3912 
  59   2.0000      -0.591223       -16.0880 
  60   2.0000      -0.532261       -14.4836 
  61   2.0000      -0.522933       -14.2297 
  62   2.0000      -0.499980       -13.6051 
  63   2.0000      -0.494532       -13.4569 
  64   2.0000      -0.476677       -12.9710 
  65   2.0000      -0.468559       -12.7501 
  66   2.0000      -0.458709       -12.4821 
  67   2.0000      -0.453994       -12.3538 
  68   2.0000      -0.444601       -12.0982 
  69   2.0000      -0.437350       -11.9009 
  70   2.0000      -0.426015       -11.5925 
  71   2.0000      -0.416391       -11.3306 
  72   2.0000      -0.409644       -11.1470 
  73   2.0000      -0.398249       -10.8369 
  74   2.0000      -0.394480       -10.7343 
  75   2.0000      -0.389076       -10.5873 
  76   2.0000      -0.383289       -10.4298 
  77   2.0000      -0.377028       -10.2595 
  78   2.0000      -0.375233       -10.2106 
  79   2.0000      -0.368911       -10.0386 
  80   2.0000      -0.364658        -9.9228 
  81   2.0000      -0.362176        -9.8553 
  82   2.0000      -0.359231        -9.7752 
  83   2.0000      -0.357149        -9.7185 
  84   2.0000      -0.349397        -9.5076 
  85   2.0000      -0.335782        -9.1371 
  86   2.0000      -0.325105        -8.8466 
  87   2.0000      -0.317355        -8.6357 
  88   2.0000      -0.312752        -8.5104 
  89   2.0000      -0.309063        -8.4100 
  90   2.0000      -0.303458        -8.2575 
  91   2.0000      -0.293969        -7.9993 
  92   2.0000      -0.283560        -7.7161 
  93   2.0000      -0.279030        -7.5928 
  94   2.0000      -0.272135        -7.4052 
  95   2.0000      -0.245136        -6.6705 
  96   2.0000      -0.230368        -6.2686 
  97   2.0000      -0.227048        -6.1783 
  98   2.0000      -0.218475        -5.9450 
  99   2.0000      -0.214400        -5.8341 
 100   2.0000      -0.212596        -5.7850 
 101   0.0000      -0.044830        -1.2199 
 102   0.0000      -0.022921        -0.6237 
 103   0.0000      -0.000338        -0.0092 
 104   0.0000       0.001529         0.0416 
 105   0.0000       0.015415         0.4195 
 106   0.0000       0.030157         0.8206 
 107   0.0000       0.033804         0.9199 
 108   0.0000       0.042243         1.1495 
 109   0.0000       0.047858         1.3023 
 110   0.0000       0.062184         1.6921 
 111   0.0000       0.075261         2.0480 
*Only the first 10 virtual orbitals were printed.

                    ********************************
                    * MULLIKEN POPULATION ANALYSIS *
                    ********************************

-----------------------
MULLIKEN ATOMIC CHARGES
-----------------------
   0 C :   -0.440672
   1 C :   -0.154158
   2 O :   -0.289614
   3 P :    0.690329
   4 S :   -0.494007
   5 O :   -0.256391
   6 C :   -0.154548
   7 C :   -0.441474
   8 S :   -0.124439
   9 C :   -0.238514
  10 S :   -0.160711
  11 P :    0.647570
  12 S :   -0.443773
  13 O :   -0.292490
  14 C :   -0.168169
  15 C :   -0.442941
  16 O :   -0.256080
  17 C :   -0.099461
  18 C :   -0.487335
  19 H :    0.154118
  20 H :    0.154887
  21 H :    0.147912
  22 H :    0.153748
  23 H :    0.170820
  24 H :    0.177489
  25 H :    0.146024
  26 H :    0.147864
  27 H :    0.155317
  28 H :    0.171050
  29 H :    0.215944
  30 H :    0.213882
  31 H :    0.175238
  32 H :    0.147452
  33 H :    0.153251
  34 H :    0.180462
  35 H :    0.147988
  36 H :    0.170220
  37 H :    0.154059
  38 H :    0.165031
  39 H :    0.160283
  40 H :    0.143837
Sum of atomic charges:   -0.0000000

--------------------------------
MULLIKEN REDUCED ORBITAL CHARGES
--------------------------------
  0 C s       :     3.312442  s :     3.312442
      pz      :     1.091441  p :     3.102430
      px      :     1.011111
      py      :     0.999878
      dz2     :     0.005586  d :     0.025800
      dxz     :     0.006381
      dyz     :     0.001981
      dx2y2   :     0.004591
      dxy     :     0.007262

  1 C s       :     3.300211  s :     3.300211
      pz      :     0.940046  p :     2.799634
      px      :     0.827180
      py      :     1.032408
      dz2     :     0.013281  d :     0.054313
      dxz     :     0.014300
      dyz     :     0.004922
      dx2y2   :     0.010057
      dxy     :     0.011753

  2 O s       :     3.742275  s :     3.742275
      pz      :     1.554601  p :     4.523230
      px      :     1.363452
      py      :     1.605177
      dz2     :     0.007562  d :     0.024109
      dxz     :    -0.000111
      dyz     :     0.005798
      dx2y2   :     0.000189
      dxy     :     0.010671

  3 P s       :     5.135493  s :     5.135493
      pz      :     2.810690  p :     8.447631
      px      :     2.808493
      py      :     2.828447
      dz2     :     0.118442  d :     0.726547
      dxz     :     0.133698
      dyz     :     0.156982
      dx2y2   :     0.169483
      dxy     :     0.147942

  4 S s       :     5.914726  s :     5.914726
      pz      :     3.628217  p :    10.510464
      px      :     3.571068
      py      :     3.311179
      dz2     :     0.009269  d :     0.068817
      dxz     :     0.007451
      dyz     :     0.016292
      dx2y2   :     0.016149
      dxy     :     0.019655

  5 O s       :     3.732366  s :     3.732366
      pz      :     1.149028  p :     4.509670
      px      :     1.666668
      py      :     1.693974
      dz2     :    -0.014551  d :     0.014355
      dxz     :     0.011229
      dyz     :    -0.000293
      dx2y2   :     0.007487
      dxy     :     0.010483

  6 C s       :     3.288227  s :     3.288227
      pz      :     0.704872  p :     2.812070
      px      :     1.009766
      py      :     1.097432
      dz2     :     0.016185  d :     0.054251
      dxz     :     0.012533
      dyz     :     0.009887
      dx2y2   :     0.008596
      dxy     :     0.007049

  7 C s       :     3.311112  s :     3.311112
      pz      :     1.085677  p :     3.104555
      px      :     0.969886
      py      :     1.048992
      dz2     :     0.006764  d :     0.025808
      dxz     :     0.003290
      dyz     :     0.002693
      dx2y2   :     0.006816
      dxy     :     0.006245

  8 S s       :     5.912271  s :     5.912271
      pz      :     3.427274  p :    10.106922
      px      :     3.392347
      py      :     3.287301
      dz2     :     0.017884  d :     0.105246
      dxz     :     0.029997
      dyz     :     0.018723
      dx2y2   :     0.020771
      dxy     :     0.017870

  9 C s       :     3.174576  s :     3.174576
      pz      :     1.015596  p :     3.027902
      px      :     1.064361
      py      :     0.947946
      dz2     :     0.006327  d :     0.036036
      dxz     :     0.009500
      dyz     :     0.006895
      dx2y2   :     0.004919
      dxy     :     0.008394

 10 S s       :     5.912249  s :     5.912249
      pz      :     3.276446  p :    10.144342
      px      :     3.212472
      py      :     3.655425
      dz2     :     0.021405  d :     0.104119
      dxz     :     0.034129
      dyz     :     0.017167
      dx2y2   :     0.012821
      dxy     :     0.018597

 11 P s       :     5.184739  s :     5.184739
      pz      :     2.808256  p :     8.442242
      px      :     2.810139
      py      :     2.823848
      dz2     :     0.141257  d :     0.725448
      dxz     :     0.173555
      dyz     :     0.147318
      dx2y2   :     0.137741
      dxy     :     0.125577

 12 S s       :     5.903084  s :     5.903084
      pz      :     3.188554  p :    10.475398
      px      :     3.636291
      py      :     3.650552
      dz2     :     0.026160  d :     0.065291
      dxz     :     0.017313
      dyz     :     0.015575
      dx2y2   :     0.003090
      dxy     :     0.003154

 13 O s       :     3.733457  s :     3.733457
      pz      :     1.638242  p :     4.535867
      px      :     1.330392
      py      :     1.567233
      dz2     :    -0.000912  d :     0.023166
      dxz     :     0.008389
      dyz     :     0.002493
      dx2y2   :     0.004757
      dxy     :     0.008439

 14 C s       :     3.297065  s :     3.297065
      pz      :     1.122466  p :     2.816211
      px      :     0.864218
      py      :     0.829526
      dz2     :     0.008213  d :     0.054893
      dxz     :     0.011164
      dyz     :     0.007573
      dx2y2   :     0.011705
      dxy     :     0.016237

 15 C s       :     3.306063  s :     3.306063
      pz      :     1.081151  p :     3.111146
      px      :     1.072891
      py      :     0.957104
      dz2     :     0.004676  d :     0.025732
      dxz     :     0.006655
      dyz     :     0.003803
      dx2y2   :     0.003330
      dxy     :     0.007268

 16 O s       :     3.736229  s :     3.736229
      pz      :     1.472492  p :     4.516594
      px      :     1.757323
      py      :     1.286779
      dz2     :     0.002835  d :     0.003257
      dxz     :     0.001689
      dyz     :    -0.010456
      dx2y2   :     0.006417
      dxy     :     0.002771

 17 C s       :     3.266854  s :     3.266854
      pz      :     0.815580  p :     2.778675
      px      :     1.006567
      py      :     0.956527
      dz2     :     0.012077  d :     0.053933
      dxz     :     0.008506
      dyz     :     0.015259
      dx2y2   :     0.006583
      dxy     :     0.011508

 18 C s       :     3.350323  s :     3.350323
      pz      :     1.083803  p :     3.111246
      px      :     0.991054
      py      :     1.036388
      dz2     :     0.004117  d :     0.025766
      dxz     :     0.003008
      dyz     :     0.006994
      dx2y2   :     0.003670
      dxy     :     0.007977

 19 H s       :     0.827671  s :     0.827671
      pz      :     0.010001  p :     0.018211
      px      :     0.004663
      py      :     0.003547

 20 H s       :     0.826879  s :     0.826879
      pz      :     0.003919  p :     0.018234
      px      :     0.004811
      py      :     0.009504

 21 H s       :     0.833639  s :     0.833639
      pz      :     0.006822  p :     0.018449
      px      :     0.007851
      py      :     0.003777

 22 H s       :     0.828800  s :     0.828800
      pz      :     0.010203  p :     0.017453
      px      :     0.003777
      py      :     0.003473

 23 H s       :     0.811077  s :     0.811077
      pz      :     0.003402  p :     0.018103
      px      :     0.004080
      py      :     0.010622

 24 H s       :     0.804620  s :     0.804620
      pz      :     0.002903  p :     0.017891
      px      :     0.003354
      py      :     0.011634

 25 H s       :     0.836520  s :     0.836520
      pz      :     0.003837  p :     0.017456
      px      :     0.008475
      py      :     0.005144

 26 H s       :     0.833643  s :     0.833643
      pz      :     0.010895  p :     0.018493
      px      :     0.003861
      py      :     0.003737

 27 H s       :     0.826537  s :     0.826537
      pz      :     0.004603  p :     0.018146
      px      :     0.003499
      py      :     0.010044

 28 H s       :     0.810516  s :     0.810516
      pz      :     0.004974  p :     0.018434
      px      :     0.008005
      py      :     0.005455

 29 H s       :     0.764581  s :     0.764581
      pz      :     0.008118  p :     0.019475
      px      :     0.007152
      py      :     0.004204

 30 H s       :     0.766677  s :     0.766677
      pz      :     0.003837  p :     0.019441
      px      :     0.008772
      py      :     0.006832

 31 H s       :     0.807066  s :     0.807066
      pz      :     0.010637  p :     0.017696
      px      :     0.004339
      py      :     0.002721

 32 H s       :     0.835155  s :     0.835155
      pz      :     0.007239  p :     0.017393
      px      :     0.006636
      py      :     0.003517

 33 H s       :     0.828570  s :     0.828570
      pz      :     0.008792  p :     0.018178
      px      :     0.005925
      py      :     0.003461

 34 H s       :     0.801035  s :     0.801035
      pz      :     0.007565  p :     0.018503
      px      :     0.006606
      py      :     0.004332

 35 H s       :     0.833495  s :     0.833495
      pz      :     0.003932  p :     0.018518
      px      :     0.007402
      py      :     0.007184

 36 H s       :     0.812319  s :     0.812319
      pz      :     0.002671  p :     0.017460
      px      :     0.009475
      py      :     0.005314

 37 H s       :     0.827943  s :     0.827943
      pz      :     0.007417  p :     0.017998
      px      :     0.003828
      py      :     0.006754

 38 H s       :     0.816691  s :     0.816691
      pz      :     0.003769  p :     0.018279
      px      :     0.008613
      py      :     0.005897

 39 H s       :     0.821515  s :     0.821515
      pz      :     0.007936  p :     0.018202
      px      :     0.003870
      py      :     0.006396

 40 H s       :     0.837720  s :     0.837720
      pz      :     0.008602  p :     0.018443
      px      :     0.003855
      py      :     0.005986


------------------------
MULLIKEN OVERLAP CHARGES
------------------------
B(  0-C ,  1-C ) :   0.5109 B(  0-C ,  2-O ) :  -0.1105 B(  0-C , 19-H ) :   0.8313 
B(  0-C , 20-H ) :   0.8252 B(  0-C , 21-H ) :   0.8084 B(  0-C , 23-H ) :  -0.0559 
B(  1-C ,  2-O ) :   0.2748 B(  1-C ,  3-P ) :  -0.1695 B(  1-C , 19-H ) :  -0.0700 
B(  1-C , 20-H ) :  -0.0590 B(  1-C , 21-H ) :  -0.0700 B(  1-C , 22-H ) :   0.7750 
B(  1-C , 23-H ) :   0.8464 B(  2-O ,  3-P ) :   0.5459 B(  2-O ,  4-S ) :  -0.0883 
B(  2-O ,  5-O ) :  -0.2091 B(  2-O ,  7-C ) :   0.0539 B(  2-O ,  8-S ) :  -0.1040 
B(  2-O , 22-H ) :  -0.0813 B(  2-O , 23-H ) :  -0.0866 B(  3-P ,  4-S ) :   1.2147 
B(  3-P ,  5-O ) :   0.5805 B(  3-P ,  6-C ) :  -0.1675 B(  3-P ,  8-S ) :   0.7379 
B(  3-P ,  9-C ) :  -0.1023 B(  4-S ,  5-O ) :  -0.0888 B(  4-S ,  8-S ) :  -0.1033 
B(  5-O ,  6-C ) :   0.2504 B(  5-O ,  7-C ) :  -0.1519 B(  5-O ,  8-S ) :  -0.1377 
B(  5-O , 17-C ) :   0.0561 B(  5-O , 24-H ) :  -0.0727 B(  5-O , 25-H ) :  -0.1030 
B(  6-C ,  7-C ) :   0.3782 B(  6-C , 24-H ) :   0.8705 B(  6-C , 25-H ) :   0.7993 
B(  6-C , 26-H ) :  -0.0657 B(  6-C , 27-H ) :  -0.0641 B(  6-C , 28-H ) :  -0.0696 
B(  7-C , 24-H ) :  -0.1007 B(  7-C , 26-H ) :   0.7935 B(  7-C , 27-H ) :   0.8118 
B(  7-C , 28-H ) :   0.8218 B(  8-S ,  9-C ) :   0.4130 B(  8-S , 10-S ) :  -0.1675 
B(  8-S , 29-H ) :  -0.0747 B(  8-S , 30-H ) :  -0.0574 B(  9-C , 10-S ) :   0.3872 
B(  9-C , 11-P ) :  -0.1026 B(  9-C , 29-H ) :   0.7941 B(  9-C , 30-H ) :   0.7883 
B( 10-S , 11-P ) :   0.6261 B( 10-S , 12-S ) :  -0.1066 B( 10-S , 13-O ) :  -0.0747 
B( 10-S , 16-O ) :  -0.1275 B( 10-S , 29-H ) :  -0.0626 B( 10-S , 30-H ) :  -0.0771 
B( 11-P , 12-S ) :   1.3279 B( 11-P , 13-O ) :   0.4067 B( 11-P , 14-C ) :  -0.1408 
B( 11-P , 16-O ) :   0.6483 B( 11-P , 17-C ) :  -0.2698 B( 12-S , 13-O ) :  -0.0916 
B( 12-S , 14-C ) :   0.0524 B( 12-S , 16-O ) :  -0.1261 B( 13-O , 14-C ) :   0.3382 
B( 13-O , 15-C ) :  -0.1637 B( 13-O , 16-O ) :  -0.2099 B( 13-O , 31-H ) :  -0.0832 
B( 13-O , 32-H ) :  -0.1105 B( 14-C , 15-C ) :   0.3921 B( 14-C , 31-H ) :   0.8864 
B( 14-C , 32-H ) :   0.8028 B( 14-C , 33-H ) :  -0.0620 B( 14-C , 34-H ) :  -0.0814 
B( 15-C , 31-H ) :  -0.1190 B( 15-C , 33-H ) :   0.7990 B( 15-C , 34-H ) :   0.8405 
B( 15-C , 35-H ) :   0.7684 B( 16-O , 17-C ) :   0.2291 B( 16-O , 18-C ) :  -0.0816 
B( 16-O , 36-H ) :  -0.0831 B( 16-O , 37-H ) :  -0.0801 B( 17-C , 18-C ) :   0.4862 
B( 17-C , 36-H ) :   0.8015 B( 17-C , 37-H ) :   0.8566 B( 17-C , 38-H ) :  -0.0785 
B( 17-C , 39-H ) :  -0.0640 B( 17-C , 40-H ) :  -0.0820 B( 18-C , 36-H ) :  -0.0622 
B( 18-C , 37-H ) :  -0.0937 B( 18-C , 38-H ) :   0.8360 B( 18-C , 39-H ) :   0.8276 
B( 18-C , 40-H ) :   0.8128 B( 22-H , 23-H ) :  -0.0664 B( 31-H , 32-H ) :  -0.0515 



                     *******************************
                     * LOEWDIN POPULATION ANALYSIS *
                     *******************************

----------------------
LOEWDIN ATOMIC CHARGES
----------------------
   0 C :   -0.385564
   1 C :    0.021267
   2 O :   -0.663740
   3 P :    0.373799
   4 S :   -0.138817
   5 O :   -0.676138
   6 C :    0.015777
   7 C :   -0.399475
   8 S :    0.178198
   9 C :   -0.424848
  10 S :    0.142934
  11 P :    0.382590
  12 S :   -0.101391
  13 O :   -0.672914
  14 C :    0.022403
  15 C :   -0.408622
  16 O :   -0.650893
  17 C :    0.019182
  18 C :   -0.392325
  19 H :    0.159708
  20 H :    0.160368
  21 H :    0.160510
  22 H :    0.172961
  23 H :    0.180872
  24 H :    0.182469
  25 H :    0.177259
  26 H :    0.159870
  27 H :    0.160493
  28 H :    0.166477
  29 H :    0.191888
  30 H :    0.191567
  31 H :    0.180900
  32 H :    0.179001
  33 H :    0.160051
  34 H :    0.166896
  35 H :    0.159529
  36 H :    0.187109
  37 H :    0.175151
  38 H :    0.164904
  39 H :    0.162915
  40 H :    0.157675

-------------------------------
LOEWDIN REDUCED ORBITAL CHARGES
-------------------------------
  0 C s       :     2.973453  s :     2.973453
      pz      :     1.153706  p :     3.351279
      px      :     1.093574
      py      :     1.104000
      dz2     :     0.013736  d :     0.060832
      dxz     :     0.015923
      dyz     :     0.004043
      dx2y2   :     0.010372
      dxy     :     0.016758

  1 C s       :     2.875726  s :     2.875726
      pz      :     0.982441  p :     2.981572
      px      :     0.920536
      py      :     1.078596
      dz2     :     0.031737  d :     0.121435
      dxz     :     0.031459
      dyz     :     0.009002
      dx2y2   :     0.020090
      dxy     :     0.029147

  2 O s       :     3.467024  s :     3.467024
      pz      :     1.593094  p :     4.729360
      px      :     1.494862
      py      :     1.641405
      dz2     :     0.093053  d :     0.467355
      dxz     :     0.101506
      dyz     :     0.068108
      dx2y2   :     0.089583
      dxy     :     0.115104

  3 P s       :     4.650421  s :     4.650421
      pz      :     2.787797  p :     8.394137
      px      :     2.776439
      py      :     2.829901
      dz2     :     0.245888  d :     1.581643
      dxz     :     0.351008
      dyz     :     0.326701
      dx2y2   :     0.304086
      dxy     :     0.353960

  4 S s       :     5.566877  s :     5.566877
      pz      :     3.574243  p :    10.431664
      px      :     3.526896
      py      :     3.330525
      dz2     :     0.018399  d :     0.140275
      dxz     :     0.015688
      dyz     :     0.032472
      dx2y2   :     0.029883
      dxy     :     0.043833

  5 O s       :     3.467158  s :     3.467158
      pz      :     1.371442  p :     4.727889
      px      :     1.665489
      py      :     1.690957
      dz2     :     0.141355  d :     0.481091
      dxz     :     0.124450
      dyz     :     0.118092
      dx2y2   :     0.037682
      dxy     :     0.059511

  6 C s       :     2.876549  s :     2.876549
      pz      :     0.809100  p :     2.986189
      px      :     1.068585
      py      :     1.108504
      dz2     :     0.036376  d :     0.121485
      dxz     :     0.028839
      dyz     :     0.022248
      dx2y2   :     0.018590
      dxy     :     0.015431

  7 C s       :     2.974696  s :     2.974696
      pz      :     1.142005  p :     3.363828
      px      :     1.084135
      py      :     1.137688
      dz2     :     0.017243  d :     0.060951
      dxz     :     0.007370
      dyz     :     0.006477
      dx2y2   :     0.015560
      dxy     :     0.014301

  8 S s       :     5.441514  s :     5.441514
      pz      :     3.417638  p :    10.083567
      px      :     3.360194
      py      :     3.305735
      dz2     :     0.042549  d :     0.296721
      dxz     :     0.081478
      dyz     :     0.052269
      dx2y2   :     0.058900
      dxy     :     0.061526

  9 C s       :     3.010946  s :     3.010946
      pz      :     1.113472  p :     3.329928
      px      :     1.134034
      py      :     1.082422
      dz2     :     0.015244  d :     0.083974
      dxz     :     0.023389
      dyz     :     0.015927
      dx2y2   :     0.009888
      dxy     :     0.019526

 10 S s       :     5.443575  s :     5.443575
      pz      :     3.318417  p :    10.110888
      px      :     3.208598
      py      :     3.583873
      dz2     :     0.063482  d :     0.302603
      dxz     :     0.099983
      dyz     :     0.049108
      dx2y2   :     0.033363
      dxy     :     0.056666

 11 P s       :     4.651751  s :     4.651751
      pz      :     2.866187  p :     8.387077
      px      :     2.763015
      py      :     2.757875
      dz2     :     0.336392  d :     1.578581
      dxz     :     0.370786
      dyz     :     0.289486
      dx2y2   :     0.290700
      dxy     :     0.291217

 12 S s       :     5.561023  s :     5.561023
      pz      :     3.241855  p :    10.405338
      px      :     3.572247
      py      :     3.591236
      dz2     :     0.061263  d :     0.135030
      dxz     :     0.031234
      dyz     :     0.029884
      dx2y2   :     0.005761
      dxy     :     0.006888

 13 O s       :     3.463752  s :     3.463752
      pz      :     1.670821  p :     4.740300
      px      :     1.493226
      py      :     1.576253
      dz2     :     0.076300  d :     0.468863
      dxz     :     0.116786
      dyz     :     0.059754
      dx2y2   :     0.112540
      dxy     :     0.103483

 14 C s       :     2.875564  s :     2.875564
      pz      :     1.112348  p :     2.979149
      px      :     0.936841
      py      :     0.929960
      dz2     :     0.018717  d :     0.122883
      dxz     :     0.027050
      dyz     :     0.014887
      dx2y2   :     0.025907
      dxy     :     0.036321

 15 C s       :     2.976532  s :     2.976532
      pz      :     1.153964  p :     3.371310
      px      :     1.152175
      py      :     1.065171
      dz2     :     0.011071  d :     0.060779
      dxz     :     0.016868
      dyz     :     0.007934
      dx2y2   :     0.006946
      dxy     :     0.017961

 16 O s       :     3.467462  s :     3.467462
      pz      :     1.525540  p :     4.719978
      px      :     1.701810
      py      :     1.492629
      dz2     :     0.103052  d :     0.463453
      dxz     :     0.067009
      dyz     :     0.124511
      dx2y2   :     0.079013
      dxy     :     0.089867

 17 C s       :     2.876039  s :     2.876039
      pz      :     0.891489  p :     2.983906
      px      :     1.073536
      py      :     1.018882
      dz2     :     0.028978  d :     0.120872
      dxz     :     0.016528
      dyz     :     0.036106
      dx2y2   :     0.011579
      dxy     :     0.027680

 18 C s       :     2.973502  s :     2.973502
      pz      :     1.139314  p :     3.357939
      px      :     1.102587
      py      :     1.116038
      dz2     :     0.010201  d :     0.060883
      dxz     :     0.006410
      dyz     :     0.017683
      dx2y2   :     0.007787
      dxy     :     0.018803

 19 H s       :     0.796891  s :     0.796891
      pz      :     0.025121  p :     0.043401
      px      :     0.010442
      py      :     0.007837

 20 H s       :     0.796234  s :     0.796234
      pz      :     0.008709  p :     0.043398
      px      :     0.011351
      py      :     0.023338

 21 H s       :     0.795567  s :     0.795567
      pz      :     0.016499  p :     0.043924
      px      :     0.018809
      py      :     0.008616

 22 H s       :     0.786062  s :     0.786062
      pz      :     0.023585  p :     0.040977
      px      :     0.009386
      py      :     0.008006

 23 H s       :     0.776229  s :     0.776229
      pz      :     0.008218  p :     0.042899
      px      :     0.009213
      py      :     0.025468

 24 H s       :     0.774721  s :     0.774721
      pz      :     0.006398  p :     0.042810
      px      :     0.007834
      py      :     0.028577

 25 H s       :     0.782819  s :     0.782819
      pz      :     0.007470  p :     0.039922
      px      :     0.020338
      py      :     0.012114

 26 H s       :     0.796060  s :     0.796060
      pz      :     0.027114  p :     0.044069
      px      :     0.008753
      py      :     0.008202

 27 H s       :     0.795931  s :     0.795931
      pz      :     0.010593  p :     0.043576
      px      :     0.007828
      py      :     0.025155

 28 H s       :     0.788995  s :     0.788995
      pz      :     0.011597  p :     0.044527
      px      :     0.019822
      py      :     0.013108

 29 H s       :     0.758992  s :     0.758992
      pz      :     0.021303  p :     0.049119
      px      :     0.017660
      py      :     0.010157

 30 H s       :     0.759484  s :     0.759484
      pz      :     0.009306  p :     0.048949
      px      :     0.022074
      py      :     0.017569

 31 H s       :     0.776812  s :     0.776812
      pz      :     0.025991  p :     0.042288
      px      :     0.009814
      py      :     0.006483

 32 H s       :     0.781174  s :     0.781174
      pz      :     0.017147  p :     0.039824
      px      :     0.014058
      py      :     0.008619

 33 H s       :     0.796382  s :     0.796382
      pz      :     0.022022  p :     0.043568
      px      :     0.013959
      py      :     0.007587

 34 H s       :     0.788138  s :     0.788138
      pz      :     0.019173  p :     0.044966
      px      :     0.015742
      py      :     0.010051

 35 H s       :     0.796328  s :     0.796328
      pz      :     0.008668  p :     0.044143
      px      :     0.018427
      py      :     0.017047

 36 H s       :     0.772454  s :     0.772454
      pz      :     0.006239  p :     0.040437
      px      :     0.022256
      py      :     0.011942

 37 H s       :     0.782923  s :     0.782923
      pz      :     0.016549  p :     0.041926
      px      :     0.008534
      py      :     0.016843

 38 H s       :     0.790864  s :     0.790864
      pz      :     0.008302  p :     0.044232
      px      :     0.021477
      py      :     0.014453

 39 H s       :     0.793552  s :     0.793552
      pz      :     0.019681  p :     0.043534
      px      :     0.008724
      py      :     0.015129

 40 H s       :     0.798400  s :     0.798400
      pz      :     0.020964  p :     0.043926
      px      :     0.008930
      py      :     0.014032


---------------------------------
LOEWDIN BOND ORDERS (THRESH 0.050000)
---------------------------------
B(  0-C ,  1-C ) :   1.0915 B(  0-C ,  2-O ) :   0.1734 B(  0-C , 19-H ) :   0.9229 
B(  0-C , 20-H ) :   0.9213 B(  0-C , 21-H ) :   0.9175 B(  1-C ,  2-O ) :   1.2812 
B(  1-C ,  3-P ) :   0.1012 B(  1-C , 21-H ) :   0.0501 B(  1-C , 22-H ) :   0.8348 
B(  1-C , 23-H ) :   0.8251 B(  2-O ,  3-P ) :   1.5698 B(  2-O ,  4-S ) :   0.1813 
B(  2-O ,  5-O ) :   0.2157 B(  2-O ,  8-S ) :   0.1501 B(  2-O , 22-H ) :   0.0968 
B(  2-O , 23-H ) :   0.0960 B(  3-P ,  4-S ) :   2.0037 B(  3-P ,  5-O ) :   1.5676 
B(  3-P ,  6-C ) :   0.0977 B(  3-P ,  8-S ) :   1.2437 B(  3-P ,  9-C ) :   0.0936 
B(  4-S ,  5-O ) :   0.1851 B(  4-S ,  6-C ) :   0.0502 B(  4-S ,  8-S ) :   0.1514 
B(  4-S ,  9-C ) :   0.0524 B(  5-O ,  6-C ) :   1.2836 B(  5-O ,  7-C ) :   0.1543 
B(  5-O ,  8-S ) :   0.1573 B(  5-O , 24-H ) :   0.0955 B(  5-O , 25-H ) :   0.0994 
B(  6-C ,  7-C ) :   1.0955 B(  6-C , 24-H ) :   0.8271 B(  6-C , 25-H ) :   0.8288 
B(  6-C , 26-H ) :   0.0510 B(  7-C , 26-H ) :   0.9157 B(  7-C , 27-H ) :   0.9222 
B(  7-C , 28-H ) :   0.9128 B(  8-S ,  9-C ) :   1.2909 B(  8-S , 10-S ) :   0.2131 
B(  8-S , 29-H ) :   0.0556 B(  8-S , 30-H ) :   0.0604 B(  9-C , 10-S ) :   1.3087 
B(  9-C , 11-P ) :   0.0911 B(  9-C , 12-S ) :   0.0544 B(  9-C , 29-H ) :   0.8355 
B(  9-C , 30-H ) :   0.8362 B( 10-S , 11-P ) :   1.1877 B( 10-S , 12-S ) :   0.1504 
B( 10-S , 13-O ) :   0.1410 B( 10-S , 16-O ) :   0.1615 B( 10-S , 29-H ) :   0.0619 
B( 10-S , 30-H ) :   0.0568 B( 11-P , 12-S ) :   2.0556 B( 11-P , 13-O ) :   1.5584 
B( 11-P , 14-C ) :   0.0936 B( 11-P , 16-O ) :   1.5819 B( 11-P , 17-C ) :   0.0970 
B( 12-S , 13-O ) :   0.1815 B( 12-S , 16-O ) :   0.1764 B( 13-O , 14-C ) :   1.2984 
B( 13-O , 15-C ) :   0.1537 B( 13-O , 16-O ) :   0.2162 B( 13-O , 31-H ) :   0.0970 
B( 13-O , 32-H ) :   0.1006 B( 14-C , 15-C ) :   1.0955 B( 14-C , 31-H ) :   0.8281 
B( 14-C , 32-H ) :   0.8285 B( 14-C , 35-H ) :   0.0518 B( 15-C , 33-H ) :   0.9204 
B( 15-C , 34-H ) :   0.9144 B( 15-C , 35-H ) :   0.9143 B( 16-O , 17-C ) :   1.2745 
B( 16-O , 18-C ) :   0.1597 B( 16-O , 36-H ) :   0.0963 B( 16-O , 37-H ) :   0.0938 
B( 17-C , 18-C ) :   1.0973 B( 17-C , 36-H ) :   0.8247 B( 17-C , 37-H ) :   0.8245 
B( 17-C , 40-H ) :   0.0513 B( 18-C , 38-H ) :   0.9160 B( 18-C , 39-H ) :   0.9191 
B( 18-C , 40-H ) :   0.9167 

------------------------------------------
LOEWDIN REDUCED ORBITAL POPULATIONS PER MO
-------------------------------------------
THRESHOLD FOR PRINTING IS 0.1%%
                      0         1         2         3         4         5   
                 -88.57283 -88.57145 -88.52216 -88.51957 -76.91452 -76.91297
                   2.00000   2.00000   2.00000   2.00000   2.00000   2.00000
                  --------  --------  --------  --------  --------  --------
 3 P  s               0.0       0.0       0.0       0.0     100.0       0.0
 4 S  s               0.0       0.0     100.0       0.0       0.0       0.0
 8 S  s             100.0       0.0       0.0       0.0       0.0       0.0
10 S  s               0.0     100.0       0.0       0.0       0.0       0.0
11 P  s               0.0       0.0       0.0       0.0       0.0     100.0
12 S  s               0.0       0.0       0.0     100.0       0.0       0.0

                      6         7         8         9        10        11   
                 -18.99583 -18.99494 -18.99361 -18.98725 -10.10182 -10.10163
                   2.00000   2.00000   2.00000   2.00000   2.00000   2.00000
                  --------  --------  --------  --------  --------  --------
 2 O  s               0.0      99.9       0.0       0.0       0.0       0.0
 5 O  s               0.0       0.0      99.9       0.0       0.0       0.0
 5 O  pz              0.0       0.0       0.0       0.0       0.1       0.0
 5 O  dz2             0.0       0.0       0.0       0.0       0.2       0.0
 6 C  s               0.0       0.0       0.0       0.0      99.4       0.0
13 O  s              99.9       0.0       0.0       0.0       0.0       0.0
13 O  dxy             0.0       0.0       0.0       0.0       0.0       0.2
14 C  s               0.0       0.0       0.0       0.0       0.0      99.4
16 O  s               0.0       0.0       0.0      99.9       0.0       0.0

                     12        13        14        15        16        17   
                 -10.10072 -10.10057 -10.09917 -10.03508 -10.03219 -10.03031
                   2.00000   2.00000   2.00000   2.00000   2.00000   2.00000
                  --------  --------  --------  --------  --------  --------
 0 C  s               0.0       0.0       0.0      99.7       0.0       0.0
 1 C  s               0.0      99.4       0.0       0.0       0.0       0.0
 2 O  dxz             0.0       0.2       0.0       0.0       0.0       0.0
 7 C  s               0.0       0.0       0.0       0.0      99.7       0.0
 9 C  s              99.6       0.0       0.0       0.0       0.0       0.0
16 O  dyz             0.0       0.0       0.1       0.0       0.0       0.0
17 C  s               0.0       0.0      99.4       0.0       0.0       0.0
[...]
37 H  s               0.2       0.0       0.0       0.3       0.0       0.0
37 H  py              0.3       0.0       0.0       0.6       0.0       0.0
40 H  pz              0.1       0.0       0.0       0.2       0.0       0.0

                    522       523       524       525       526       527   
                  18.87375  18.91331  19.06244  19.17947  21.90412  21.95779
                   0.00000   0.00000   0.00000   0.00000   0.00000   0.00000
                  --------  --------  --------  --------  --------  --------
 0 C  s               0.0       0.0       0.0       0.0      84.7       0.0
 1 C  s               0.0       0.0       0.0       0.0      11.0       0.0
 3 P  s               0.2       0.0       0.0       0.1       0.0       0.0
 3 P  py              0.2       0.0       0.0       0.0       0.0       0.0
 4 S  s              94.6       0.0       1.1       3.1       0.0       0.0
 4 S  py              0.1       0.0       0.0       0.0       0.0       0.0
 6 C  s               0.1       0.0       0.0       0.0       1.9       0.7
 7 C  s               0.0       0.0       0.0       0.0       1.7       0.0
 8 S  s               0.1       0.3      62.4      36.1       0.0       0.0
 9 C  s               0.0       0.0       0.0       1.0       0.2       0.0
10 S  s               4.1       2.2      35.6      57.1       0.0       0.0
11 P  s               0.0       0.1       0.0       0.1       0.0       0.0
11 P  pz              0.0       0.3       0.0       0.0       0.0       0.0
12 S  s               0.3      96.4       0.2       2.0       0.0       0.0
12 S  pz              0.0       0.1       0.0       0.0       0.0       0.0
14 C  s               0.0       0.0       0.0       0.0       0.0       0.8
15 C  s               0.0       0.0       0.0       0.0       0.0       2.0
17 C  s               0.0       0.1       0.0       0.0       0.0       0.5
18 C  s               0.0       0.0       0.0       0.0       0.0      95.6

                    528       529       530       531       532       533   
                  21.97067  21.98454  22.02726  22.04404  22.05654  22.07004
                   0.00000   0.00000   0.00000   0.00000   0.00000   0.00000
                  --------  --------  --------  --------  --------  --------
 0 C  s               0.6       0.0      13.4       0.1       0.5       0.1
 1 C  s               2.5       0.0      64.6       2.4      17.0       0.5
 6 C  s               0.4       0.1       9.3       0.3      17.7      17.2
 7 C  s              95.1       0.4       0.9       0.4       0.8       0.0
 9 C  s               0.6       0.0      11.2      20.7      42.7       6.1
14 C  s               0.0       1.2       0.1      53.4      14.7      27.6
15 C  s               0.3      95.6       0.1       1.0       0.5       0.2
17 C  s               0.0       0.0       0.1      20.4       5.6      47.7
18 C  s               0.1       2.2       0.1       0.9       0.0       0.1

                    534       535       536       537       538   
                  22.09349  43.80508  43.81820  43.86634  43.91033
                   0.00000   0.00000   0.00000   0.00000   0.00000
                  --------  --------  --------  --------  --------
 0 C  s               0.3       0.0       0.0       0.0       0.0
 1 C  s               1.5       0.0       0.0       0.0       0.0
 2 O  s               0.0       5.6      87.6       4.9       1.8
 5 O  s               0.0       0.0       6.7      52.5      40.7
 6 C  s              51.9       0.0       0.0       0.0       0.0
 7 C  s               0.4       0.0       0.0       0.0       0.0
 9 C  s              17.7       0.0       0.0       0.0       0.0
13 O  s               0.0      92.7       5.6       0.2       1.4
14 C  s               1.8       0.0       0.0       0.0       0.0
16 O  s               0.0       1.6       0.0      42.3      56.0
17 C  s              25.2       0.0       0.0       0.0       0.0
18 C  s               0.7       0.0       0.0       0.0       0.0


                      *****************************
                      * MAYER POPULATION ANALYSIS *
                      *****************************

  NA   - Mulliken gross atomic population
  ZA   - Total nuclear charge
  QA   - Mulliken gross atomic charge
  VA   - Mayer's total valence
  BVA  - Mayer's bonded valence
  FA   - Mayer's free valence

  ATOM       NA         ZA         QA         VA         BVA        FA
  0 C      6.4407     6.0000    -0.4407     3.8520     3.8520     0.0000
  1 C      6.1542     6.0000    -0.1542     3.6669     3.6669    -0.0000
  2 O      8.2896     8.0000    -0.2896     1.8422     1.8422    -0.0000
  3 P     14.3097    15.0000     0.6903     5.1450     5.1450     0.0000
  4 S     16.4940    16.0000    -0.4940     2.0178     2.0178     0.0000
  5 O      8.2564     8.0000    -0.2564     1.8358     1.8358     0.0000
  6 C      6.1545     6.0000    -0.1545     3.6561     3.6561    -0.0000
  7 C      6.4415     6.0000    -0.4415     3.7855     3.7855    -0.0000
  8 S     16.1244    16.0000    -0.1244     2.2070     2.2070    -0.0000
  9 C      6.2385     6.0000    -0.2385     3.7167     3.7167     0.0000
 10 S     16.1607    16.0000    -0.1607     2.1654     2.1654     0.0000
 11 P     14.3524    15.0000     0.6476     5.1295     5.1295     0.0000
 12 S     16.4438    16.0000    -0.4438     2.0713     2.0713    -0.0000
 13 O      8.2925     8.0000    -0.2925     1.7927     1.7927     0.0000
 14 C      6.1682     6.0000    -0.1682     3.7370     3.7370     0.0000
 15 C      6.4429     6.0000    -0.4429     3.7475     3.7475     0.0000
 16 O      8.2561     8.0000    -0.2561     1.7783     1.7783     0.0000
 17 C      6.0995     6.0000    -0.0995     3.6279     3.6279    -0.0000
 18 C      6.4873     6.0000    -0.4873     3.8314     3.8314    -0.0000
 19 H      0.8459     1.0000     0.1541     0.9613     0.9613    -0.0000
 20 H      0.8451     1.0000     0.1549     0.9609     0.9609    -0.0000
 21 H      0.8521     1.0000     0.1479     0.9637     0.9637     0.0000
 22 H      0.8463     1.0000     0.1537     0.9465     0.9465     0.0000
 23 H      0.8292     1.0000     0.1708     0.9521     0.9521    -0.0000
 24 H      0.8225     1.0000     0.1775     0.9534     0.9534    -0.0000
 25 H      0.8540     1.0000     0.1460     0.9523     0.9523     0.0000
 26 H      0.8521     1.0000     0.1479     0.9638     0.9638    -0.0000
 27 H      0.8447     1.0000     0.1553     0.9612     0.9612     0.0000
 28 H      0.8290     1.0000     0.1710     0.9606     0.9606    -0.0000
 29 H      0.7841     1.0000     0.2159     0.9483     0.9483     0.0000
 30 H      0.7861     1.0000     0.2139     0.9498     0.9498    -0.0000
 31 H      0.8248     1.0000     0.1752     0.9503     0.9503     0.0000
 32 H      0.8525     1.0000     0.1475     0.9496     0.9496     0.0000
 33 H      0.8467     1.0000     0.1533     0.9605     0.9605     0.0000
 34 H      0.8195     1.0000     0.1805     0.9564     0.9564    -0.0000
 35 H      0.8520     1.0000     0.1480     0.9640     0.9640    -0.0000
 36 H      0.8298     1.0000     0.1702     0.9464     0.9464     0.0000
 37 H      0.8459     1.0000     0.1541     0.9609     0.9609     0.0000
 38 H      0.8350     1.0000     0.1650     0.9600     0.9600    -0.0000
 39 H      0.8397     1.0000     0.1603     0.9599     0.9599    -0.0000
 40 H      0.8562     1.0000     0.1438     0.9633     0.9633    -0.0000

  Mayer bond orders larger than 0.100000
B(  0-C ,  1-C ) :   0.9572 B(  0-C , 19-H ) :   0.9713 B(  0-C , 20-H ) :   0.9716 
B(  0-C , 21-H ) :   0.9642 B(  1-C ,  2-O ) :   0.7772 B(  1-C , 22-H ) :   0.9458 
B(  1-C , 23-H ) :   0.9523 B(  2-O ,  3-P ) :   1.0947 B(  3-P ,  4-S ) :   1.7304 
B(  3-P ,  5-O ) :   1.1464 B(  3-P ,  8-S ) :   1.0848 B(  5-O ,  6-C ) :   0.7766 
B(  6-C ,  7-C ) :   0.9253 B(  6-C , 24-H ) :   0.9622 B(  6-C , 25-H ) :   0.9609 
B(  7-C , 26-H ) :   0.9623 B(  7-C , 27-H ) :   0.9716 B(  7-C , 28-H ) :   0.9592 
B(  8-S ,  9-C ) :   0.9169 B(  9-C , 10-S ) :   0.9083 B(  9-C , 29-H ) :   0.9063 
B(  9-C , 30-H ) :   0.9048 B( 10-S , 11-P ) :   1.0127 B( 11-P , 12-S ) :   1.8394 
B( 11-P , 13-O ) :   1.0330 B( 11-P , 16-O ) :   1.1411 B( 13-O , 14-C ) :   0.8180 
B( 14-C , 15-C ) :   0.9182 B( 14-C , 31-H ) :   0.9683 B( 14-C , 32-H ) :   0.9616 
B( 15-C , 33-H ) :   0.9672 B( 15-C , 34-H ) :   0.9632 B( 15-C , 35-H ) :   0.9563 
B( 16-O , 17-C ) :   0.7340 B( 17-C , 18-C ) :   0.9312 B( 17-C , 36-H ) :   0.9534 
B( 17-C , 37-H ) :   0.9697 B( 18-C , 38-H ) :   0.9712 B( 18-C , 39-H ) :   0.9738 
B( 18-C , 40-H ) :   0.9662 

-------
TIMINGS
-------

Total SCF time: 0 days 0 hours 1 min 14 sec 

Total time                  ....      74.258 sec
Sum of individual times     ....      73.711 sec  ( 99.3%)

SCF preparation             ....       0.381 sec  (  0.5%)
Fock matrix formation       ....      70.142 sec  ( 94.5%)
  Startup                   ....       0.165 sec  (  0.2% of F)
  Split-RI-J                ....      23.416 sec  ( 33.4% of F)
  XC integration            ....      45.019 sec  ( 64.2% of F)
    XC Preparation          ....       0.000 sec  (  0.0% of XC)
    Basis function eval.    ....       6.977 sec  ( 15.5% of XC)
    Density eval.           ....      16.547 sec  ( 36.8% of XC)
    XC-Functional eval.     ....       3.476 sec  (  7.7% of XC)
    XC-Potential eval.      ....      16.763 sec  ( 37.2% of XC)
Diagonalization             ....       0.000 sec  (  0.0%)
Density matrix formation    ....       0.840 sec  (  1.1%)
Total Energy calculation    ....       0.050 sec  (  0.1%)
Population analysis         ....       0.434 sec  (  0.6%)
Orbital Transformation      ....       0.246 sec  (  0.3%)
Orbital Orthonormalization  ....       0.000 sec  (  0.0%)
DIIS solution               ....       1.402 sec  (  1.9%)
  MO trafo                  ....       0.000 sec  (  0.0 % of DIIS)
  Orb grad                  ....       0.000 sec  (  0.0 % of DIIS)
  Energy W gradient         ....       0.000 sec  (  0.0 % of DIIS)
  DIIS error                ....       0.112 sec  (  8.0 % of DIIS)
  DIIS work                 ....       1.136 sec  ( 81.0 % of DIIS)
  Form Q                    ....       0.000 sec  (  0.0 % of DIIS)
  Form QpQm                 ....       0.000 sec  (  0.0 % of DIIS)
  Exp/Cayley                ....       0.000 sec  (  0.0 % of DIIS)
  Orb update                ....       0.000 sec  (  0.0 % of DIIS)
  Wake-sleep                ....       0.029 sec  (  2.0 % of DIIS)
SOSCF solution              ....       0.216 sec  (  0.3%)
  MO trafo                  ....       0.165 sec  ( 76.4 % of SOSCF)
  Orb grad                  ....       0.005 sec  (  2.2 % of SOSCF)
  Rot update                ....       0.000 sec  (  0.1 % of SOSCF)
  Step                      ....       0.046 sec  ( 21.1 % of SOSCF)
Finished LeanSCF after  74.4 sec

Maximum memory used throughout the entire LEANSCF-calculation: 72.7 MB


-------------------------------------------------------------------------------
                          DFT DISPERSION CORRECTION                            
                                                                               
                                DFTD4 V3.4.0                                   
-------------------------------------------------------------------------------
The R2SCAN3C composite method is recognized
Using three-body term ABC
Active option DFTDOPT                   ...         5   

-------------------------   ----------------
Dispersion correction           -0.021270680
-------------------------   ----------------

------------------   -----------------
gCP correction             0.046371242
------------------   -----------------

-------------------------   --------------------
FINAL SINGLE POINT ENERGY     -2932.464616688414
-------------------------   --------------------


------------------------------------------------------------------------------
                              ORCA PROPERTY CALCULATIONS
------------------------------------------------------------------------------

GBWName                                 ... sp_gas.gbw
Number of atoms                         ...     41
Number of basis functions               ...    539
Max core memory                         ...   1024 MB

Electric properties:
Dipole moment                           ... YES
Quadrupole moment                       ...  NO
Static polarizability (Dipole/Dipole)   ...  NO
Static polarizability (Dipole/Quad.)    ...  NO
Static polarizability (Quad./Quad.)     ...  NO
Static polarizability (Velocity)        ...  NO

Atomic electric properties:
Dipole moment                           ...  NO
Quadrupole moment                       ...  NO
Static polarizability                   ...  NO

Choice of electric origin               ... Center of mass
Position of electric origin             ...     0.000004     0.000000     0.000005

General magnetic properties:
Magnetizability                         ...  NO

EPR properties:
g-Tensor (aka g-matrix)                 ...  NO
Zero-Field splitting spin-orbit         ...  NO
Zero-field splitting spin-spin          ...  NO
Hyperfine couplings                     ...  NO (   0 nuclei)
Quadrupole couplings                    ...  NO (   0 nuclei)
Contact density                         ...  NO (   0 nuclei)

NMR properties:
Chemical shifts                         ...  NO (   0 nuclei)
Spin-rotation constants                 ...  NO (   0 nuclei)
Spin-spin couplings                     ...  NO (   0 nuclei,    0 pairs)

Choice of magnetic origin               ... GIAO
Position of magnetic origin             ...     0.000000     0.000000     0.000000

Properties with geometric perturbations:
SCF Hessian                             ...  NO
IR spectrum                             ...  NO
VCD spectrum                            ...  NO
X-ray spectroscopy properties:
SCF XES/XAS/RIXS spectra                ...  NO


-------------
DIPOLE MOMENT
-------------

Method             : SCF
Type of density    : Electron Density
Multiplicity       :   1
Irrep              :   0
Energy             : -2932.4897172497876454 Eh
Relativity type    : 
Basis              : AO
                                X                 Y                 Z
Electronic contribution:     -3.988632368      10.778148168     -13.426230314
Nuclear contribution   :      4.136210384     -11.650512212      14.769501250
                        -----------------------------------------
Total Dipole Moment    :      0.147578016      -0.872364043       1.343270936
                        -----------------------------------------
Magnitude (a.u.)       :      1.608469801
Magnitude (Debye)      :      4.088405324



--------------------
Rotational spectrum 
--------------------
 
Rotational constants in cm-1:             0.013174             0.004608             0.004399 
Rotational constants in MHz :           394.947222           138.143395           131.885026 

Dipole components along the rotational axes: 
x,y,z [a.u.] :     0.330472    -1.544843     0.302364 
x,y,z [Debye]:     0.839993    -3.926679     0.768548 

 

Dipole moment calculation done in   0.1 sec 

Maximum memory used throughout the entire PROP-calculation: 51.0 MB

--------------------------------
SUGGESTED CITATIONS FOR THIS RUN
--------------------------------

Below you find a list of papers that are relevant to this ORCA run
We neither can nor want to force you to cite these papers, but we appreciate if you do
You receive ORCA, which is the product of decades of hard work by many enthusiastic individuals, for free
The only thing we kindly ask in return is that you cite our papers,
We deeply appreciate it, if you show your appreciation for ORCA by not just citing the generic ORCA reference.

Please note that relegating all ORCA citations to the supporting information does *not* help us.
SI sections are not indexed - citations you put there will not count into any citation statistics
But we need these citations in order to attract the funding resources that allow us to do what we are doing

Therefore, if you are a happy ORCA user, please consider citing a few of the papers listed below in the main body of your paper

In addition to the list printed below, the program has created the file sp_gas.bibtex that contains the list in bibtex format
You can import this file easily into all common literature databanks and citation aid programs


List of essential papers. We consider these as the minimum necessary citations

  1. Neese,F.
     Software update: the ORCA program system, version 5.0
     WIRES Comput. Molec. Sci., 2022 12(1)e1606
     doi.org/10.1002/wcms.1606
  2. Grimme,S.; Hansen,A.; Ehlert,S.; Mewes,J.
     r2SCAN-3c: A 'Swiss army knife' composite electronic-structure method
     J. Chem. Phys., 2021 154 064103
     doi.org/10.1063/5.0040021

List of papers to cite with high priority. The work reported in these papers was absolutely
necessary for this run to complete.
Our perspective: the developers of density functionals and basis sets usually get cited in chemistry papers
Good! But without the algorithms to do something with them, the functionals or basis sets would not do anything.
Hence, in our opinion, the algorithm design and method developments papers are equally worthy of getting cited

  1. Neese,F.
     An improvement of the resolution of the identity approximation for the formation of the Coulomb matrix
     J. Comp. Chem., 2003 24(14)1740-1747
     doi.org/10.1002/jcc.10318
  2. Neese,F.
     The SHARK Integral Generation and Digestion System
     J. Comp. Chem., 2022  1-16
     doi.org/10.1002/jcc.26942
  3. Lehtola,S.; Steigemann,C.; Oliveira,M.; Marques,M.
     Recent developments in Libxc - A comprehensive library of functionals for density functional theory
     Software X, 2018 7 
     doi.org/10.1016/j.softx.2017.11.002
  4. Caldeweyher,E.; Bannwarth,C.; Grimme,S.
     Extension of the D3 dispersion coefficient model
     J. Chem. Phys., 2017 147 034112-XXXX
     doi.org/10.1063/1.4993215
  5. Caldeweyher,E.; Ehlert,S.; Hansen,A.; Neugebauer,H.; Spicher,S.; Bannwarth,C.; Grimme,S.
     A generally applicable atomic-charge dependent London dispersion correction
     J. Chem. Phys., 2019 150 154122-XXXX
     doi.org/10.1063/1.5090222
  6. Caldeweyher,E.; Mewes,J.; Ehlert,S.; Grimme,S.
     Extension and evaluation of the D4 London-dispersion model for periodic systems
     Phys. Chem. Chem. Phys., 2020 22(16)8499-8512
     doi.org/10.1039/D0CP00502A

List of suggested additional citations. These are papers that are important in the 'surrounding' of 
of this run, or papers that preceded the highly important papers. If you like your results we are grateful for a citation.

  1. Neese,F.
     The ORCA program system
     WIRES Comput. Molec. Sci., 2012 2(1)73-78
     doi.org/10.1002/wcms.81
  2. Neese,F.
     Software update: the ORCA program system, version 4.0
     WIRES Comput. Molec. Sci., 2018 8(1)1-6
     doi.org/10.1002/wcms.1327
  3. Neese,F.; Wennmohs,F.; Becker,U.; Riplinger,C.
     The ORCA quantum chemistry program package
     J. Chem. Phys., 2020 152 Art. No. L224108
     doi.org/10.1063/5.0004608

List of optional additional citations

  1. Neese,F.
     Approximate second-order SCF convergence for spin unrestricted wavefunctions
     Chem. Phys. Lett., 2000 325(1-3)93-98
     doi.org/10.1016/s0009-2614(00)00662-x

Timings for individual modules:

Sum of individual times          ...       78.130 sec (=   1.302 min)
Startup calculation              ...        2.936 sec (=   0.049 min)   3.8 %
SCF iterations                   ...       75.011 sec (=   1.250 min)  96.0 %
Property calculations            ...        0.183 sec (=   0.003 min)   0.2 %
                             ****ORCA TERMINATED NORMALLY****
TOTAL RUN TIME: 0 days 0 hours 1 minutes 18 seconds 824 msec
