      -----------------------------------------------------------      
     |                   =====================                   |     
     |                           x T B                           |     
     |                   =====================                   |     
     |                         S. Grimme                         |     
     |          Mulliken Center for Theoretical Chemistry        |     
     |                    University of Bonn                     |     
      -----------------------------------------------------------      

   * xtb version 6.7.1 (edcfbbe) compiled by 'albert@albert-system' on 2024-07-22

   xtb is free software: you can redistribute it and/or modify it under
   the terms of the GNU Lesser General Public License as published by
   the Free Software Foundation, either version 3 of the License, or
   (at your option) any later version.
   
   xtb is distributed in the hope that it will be useful,
   but WITHOUT ANY WARRANTY; without even the implied warranty of
   MERCHANTABILITY or FITNESS FOR A PARTICULAR PURPOSE.  See the
   GNU Lesser General Public License for more details.
   
   Cite this work as:
   * C. Bannwarth, E. Caldeweyher, S. Ehlert, A. Hansen, P. Pracht,
     J. Seibert, S. Spicher, S. Grimme, WIREs Comput. Mol. Sci., 2020, 11,
     e01493. DOI: 10.1002/wcms.1493
   
   for GFN2-xTB:
   * C. Bannwarth, S. Ehlert and S. Grimme., J. Chem. Theory Comput., 2019,
     15, 1652-1671. DOI: 10.1021/acs.jctc.8b01176
   for GFN1-xTB:
   * S. Grimme, C. Bannwarth, P. Shushkov, J. Chem. Theory Comput., 2017,
     13, 1989-2009. DOI: 10.1021/acs.jctc.7b00118
   for GFN0-xTB:
   * P. Pracht, E. Caldeweyher, S. Ehlert, S. Grimme, ChemRxiv, 2019, preprint.
     DOI: 10.26434/chemrxiv.8326202.v1
   for GFN-FF:
   * S. Spicher and S. Grimme, Angew. Chem. Int. Ed., 2020, 59, 15665-15673.
     DOI: 10.1002/anie.202004239
   
   for ALPB and GBSA implicit solvation:
   * S. Ehlert, M. Stahn, S. Spicher, S. Grimme, J. Chem. Theory Comput.,
     2021, 17, 4250-4261. DOI: 10.1021/acs.jctc.1c00471
   
   for ddCOSMO and CPCM-X implicit solvation:
   * M. Stahn, S. Ehlert, S. Grimme, J. Phys. Chem. A,
     2023, XX, XXXX-XXXX. DOI: 10.1021/acs.jpca.3c04382
   
   for DFT-D4:
   * E. Caldeweyher, C. Bannwarth and S. Grimme, J. Chem. Phys., 2017,
     147, 034112. DOI: 10.1063/1.4993215
   * E. Caldeweyher, S. Ehlert, A. Hansen, H. Neugebauer, S. Spicher,
     C. Bannwarth and S. Grimme, J. Chem. Phys., 2019, 150, 154122.
     DOI: 10.1063/1.5090222
   * E. Caldeweyher, J.-M. Mewes, S. Ehlert and S. Grimme, Phys. Chem. Chem. Phys.
     2020, 22, 8499-8512. DOI: 10.1039/D0CP00502A
   
   for sTDA-xTB:
   * S. Grimme and C. Bannwarth, J. Chem. Phys., 2016, 145, 054103.
     DOI: 10.1063/1.4959605
   
   in the mass-spec context:
   * V. Asgeirsson, C. Bauer and S. Grimme, Chem. Sci., 2017, 8, 4879.
     DOI: 10.1039/c7sc00601b
   * J. Koopman and S. Grimme, ACS Omega 2019, 4, 12, 15120-15133.
     DOI: 10.1021/acsomega.9b02011
   
   for metadynamics refer to:
   * S. Grimme, J. Chem. Theory Comput., 2019, 155, 2847-2862
     DOI: 10.1021/acs.jctc.9b00143
   
   for SPH calculations refer to:
   * S. Spicher and S. Grimme, J. Chem. Theory Comput., 2021, 17, 1701-1714
     DOI: 10.1021/acs.jctc.0c01306
   
   for ONIOM refer to:
   * C. Plett, A. Katbashev, S. Ehlert, S. Grimme, M. Bursch,
     Phys. Chem. Chem. Phys., 2023, 25, 17860-17868. DOI: 10.1039/D3CP02178E
   
   for DIPRO refer to:
   * J. Kohn, N. Gildemeister, S. Grimme, D. Fazzi, A. Hansen,
     J. Chem. Phys., 2023, just accepted.
   
   for PTB refer to:
   * S. Grimme, M. Mueller, A. Hansen, J. Chem. Phys., 2023, 158, 124111.
     DOI: 10.1063/5.0137838
   
   with help from (in alphabetical order)
   P. Atkinson, C. Bannwarth, F. Bohle, G. Brandenburg, E. Caldeweyher
   M. Checinski, S. Dohm, S. Ehlert, S. Ehrlich, I. Gerasimov, C. Hölzer
   A. Katbashev, J. Kohn, J. Koopman, C. Lavigne, S. Lehtola, F. März, M. Müller,
   F. Musil, H. Neugebauer, J. Pisarek, C. Plett, P. Pracht, F. Pultar,
   J. Seibert, P. Shushkov, S. Spicher, M. Stahn, M. Steiner, T. Strunk,
   J. Stückrath, T. Rose, and J. Unsleber
   
 * started run on 2025/04/09 at 05:21:08.790     
   ID    Z sym.   atoms
    1    6 C      1, 2, 7, 8, 10, 15, 16, 18, 19
    2    8 O      3, 6, 14, 17
    3   15 P      4, 12
    4   16 S      5, 9, 11, 13
    5    1 H      20-41

           -------------------------------------------------
          |                Calculation Setup                |
           -------------------------------------------------

          program call               : /srv/scratch/z5358697/.xtb/bin/xtb gas.coord --gfn2 --sp --chrg 0 --norestart --parallel 1
          hostname                   : k163
          coordinate file            : gas.coord
          omp threads                :                     1


           -------------------------------------------------
          |                 G F N 2 - x T B                 |
           -------------------------------------------------

        Reference                      10.1021/acs.jctc.8b01176
      * Hamiltonian:
        H0-scaling (s, p, d)           1.850000    2.230000    2.230000
        zeta-weighting                 0.500000
      * Dispersion:
        s8                             2.700000
        a1                             0.520000
        a2                             5.000000
        s9                             5.000000
      * Repulsion:
        kExp                           1.500000    1.000000
        rExp                           1.000000
      * Coulomb:
        alpha                          2.000000
        third order                    shell-resolved
        anisotropic                    true
        a3                             3.000000
        a5                             4.000000
        cn-shift                       1.200000
        cn-exp                         4.000000
        max-rad                        5.000000


          ...................................................
          :                      SETUP                      :
          :.................................................:
          :  # basis functions                 134          :
          :  # atomic orbitals                 128          :
          :  # shells                           66          :
          :  # electrons                       116          :
          :  max. iterations                   250          :
          :  Hamiltonian                  GFN2-xTB          :
          :  restarted?                      false          :
          :  GBSA solvation                  false          :
          :  PC potential                    false          :
          :  electronic temp.          300.0000000     K    :
          :  accuracy                    1.0000000          :
          :  -> integral cutoff          0.2500000E+02      :
          :  -> integral neglect         0.1000000E-07      :
          :  -> SCF convergence          0.1000000E-05 Eh   :
          :  -> wf. convergence          0.1000000E-03 e    :
          :  Broyden damping             0.4000000          :
          :  net charge                          0          :
          :  unpaired electrons                  0          :
          ...................................................

 iter      E             dE          RMSdq      gap      omega  full diag
   1    -65.3743215 -0.653743E+02  0.634E+00    3.88       0.0  T
   2    -65.5457892 -0.171468E+00  0.408E+00    2.77       1.0  T
   3    -65.5650221 -0.192328E-01  0.144E+00    2.66       1.0  T
   4    -65.5679627 -0.294061E-02  0.588E-01    2.38       1.0  T
   5    -65.5691945 -0.123180E-02  0.278E-01    2.52       1.0  T
   6    -65.5694743 -0.279879E-03  0.125E-01    2.49       1.0  T
   7    -65.5695268 -0.524168E-04  0.481E-02    2.50       1.0  T
   8    -65.5695349 -0.816147E-05  0.214E-02    2.50       1.0  T
   9    -65.5695361 -0.120737E-05  0.584E-03    2.50       2.7  T
  10    -65.5695362 -0.947437E-07  0.284E-03    2.50       5.5  T
  11    -65.5695362 -0.838678E-08  0.443E-04    2.50      35.3  T
  12    -65.5695362 -0.599471E-09  0.237E-04    2.50      66.0  T

   *** convergence criteria satisfied after 12 iterations ***

         #    Occupation            Energy/Eh            Energy/eV
      -------------------------------------------------------------
         1        2.0000           -0.7538708             -20.5139
       ...           ...                  ...                  ...
        52        2.0000           -0.4320509             -11.7567
        53        2.0000           -0.4095548             -11.1446
        54        2.0000           -0.3981007             -10.8329
        55        2.0000           -0.3693037             -10.0493
        56        2.0000           -0.3631647              -9.8822
        57        2.0000           -0.3607064              -9.8153
        58        2.0000           -0.3595548              -9.7840 (HOMO)
        59                         -0.2675464              -7.2803 (LUMO)
        60                         -0.2394026              -6.5145
        61                         -0.2086581              -5.6779
        62                         -0.1919093              -5.2221
        63                         -0.1574802              -4.2853
       ...                                ...                  ...
       128                          1.3632657              37.0963
      -------------------------------------------------------------
                  HL-Gap            0.0920084 Eh            2.5037 eV
             Fermi-level           -0.3135506 Eh           -8.5321 eV

 SCC (total)                   0 d,  0 h,  0 min,  0.060 sec
 SCC setup                      ...        0 min,  0.000 sec (  0.441%)
 Dispersion                     ...        0 min,  0.000 sec (  0.526%)
 classical contributions        ...        0 min,  0.000 sec (  0.103%)
 integral evaluation            ...        0 min,  0.013 sec ( 22.271%)
 iterations                     ...        0 min,  0.024 sec ( 40.011%)
 molecular gradient             ...        0 min,  0.022 sec ( 36.290%)
 printout                       ...        0 min,  0.000 sec (  0.331%)

         :::::::::::::::::::::::::::::::::::::::::::::::::::::
         ::                     SUMMARY                     ::
         :::::::::::::::::::::::::::::::::::::::::::::::::::::
         :: total energy             -65.008062646942 Eh    ::
         :: gradient norm              0.035077088921 Eh/a0 ::
         :: HOMO-LUMO gap              2.503675020671 eV    ::
         ::.................................................::
         :: SCC energy               -65.568412385958 Eh    ::
         :: -> isotropic ES            0.105948154411 Eh    ::
         :: -> anisotropic ES         -0.009141410464 Eh    ::
         :: -> anisotropic XC          0.030558119764 Eh    ::
         :: -> dispersion             -0.055637254004 Eh    ::
         :: repulsion energy           0.560349739015 Eh    ::
         :: add. restraining           0.000000000000 Eh    ::
         :: total charge               0.000000000000 e     ::
         :::::::::::::::::::::::::::::::::::::::::::::::::::::

           -------------------------------------------------
          |                Property Printout                |
           -------------------------------------------------

    * Orbital Energies and Occupations

         #    Occupation            Energy/Eh            Energy/eV
      -------------------------------------------------------------
         1        2.0000           -0.7538708             -20.5139
       ...           ...                  ...                  ...
        46        2.0000           -0.4633578             -12.6086
        47        2.0000           -0.4614097             -12.5556
        48        2.0000           -0.4577174             -12.4551
        49        2.0000           -0.4492138             -12.2237
        50        2.0000           -0.4468176             -12.1585
        51        2.0000           -0.4377131             -11.9108
        52        2.0000           -0.4320509             -11.7567
        53        2.0000           -0.4095548             -11.1446
        54        2.0000           -0.3981007             -10.8329
        55        2.0000           -0.3693037             -10.0493
        56        2.0000           -0.3631647              -9.8822
        57        2.0000           -0.3607064              -9.8153
        58        2.0000           -0.3595548              -9.7840 (HOMO)
        59                         -0.2675464              -7.2803 (LUMO)
        60                         -0.2394026              -6.5145
        61                         -0.2086581              -5.6779
        62                         -0.1919093              -5.2221
        63                         -0.1574802              -4.2853
        64                         -0.1513194              -4.1176
        65                         -0.1396451              -3.7999
        66                         -0.1285658              -3.4985
        67                         -0.1146417              -3.1196
        68                         -0.1144337              -3.1139
        69                         -0.0379419              -1.0325
       ...                                ...                  ...
       128                          1.3632657              37.0963
      -------------------------------------------------------------
                  HL-Gap            0.0920084 Eh            2.5037 eV
             Fermi-level           -0.3135506 Eh           -8.5321 eV

     #   Z          covCN         q      C6AA      α(0)
     1   6 C        3.752    -0.117    22.803     6.810
     2   6 C        3.823     0.084    19.168     6.230
     3   8 O        1.655    -0.254    18.222     5.762
     4  15 P        3.866     0.387   144.188    21.570
     5  16 S        0.928    -0.414   157.299    21.213
     6   8 O        1.655    -0.249    18.136     5.749
     7   6 C        3.868     0.084    19.145     6.222
     8   6 C        3.751    -0.115    22.758     6.803
     9  16 S        1.980    -0.137   146.805    20.393
    10   6 C        3.803     0.044    19.840     6.341
    11  16 S        2.028    -0.167   148.114    20.483
    12  15 P        3.816     0.378   144.537    21.596
    13  16 S        0.929    -0.362   154.841    21.047
    14   8 O        1.655    -0.242    18.023     5.731
    15   6 C        3.845     0.082    19.194     6.232
    16   6 C        3.751    -0.116    22.788     6.808
    17   8 O        1.654    -0.245    18.069     5.738
    18   6 C        3.841     0.082    19.193     6.232
    19   6 C        3.751    -0.117    22.797     6.809
    20   1 H        0.925     0.057     2.239     2.340
    21   1 H        0.924     0.073     2.051     2.239
    22   1 H        0.925     0.068     2.109     2.271
    23   1 H        0.924     0.064     2.147     2.291
    24   1 H        0.924     0.053     2.280     2.361
    25   1 H        0.924     0.063     2.168     2.303
    26   1 H        0.924     0.061     2.187     2.313
    27   1 H        0.925     0.065     2.137     2.286
    28   1 H        0.925     0.058     2.222     2.331
    29   1 H        0.925     0.059     2.205     2.322
    30   1 H        0.925     0.077     2.005     2.214
    31   1 H        0.925     0.073     2.057     2.243
    32   1 H        0.924     0.074     2.041     2.234
    33   1 H        0.924     0.061     2.187     2.313
    34   1 H        0.925     0.062     2.173     2.305
    35   1 H        0.925     0.055     2.260     2.351
    36   1 H        0.925     0.066     2.126     2.280
    37   1 H        0.924     0.061     2.193     2.316
    38   1 H        0.924     0.055     2.258     2.350
    39   1 H        0.925     0.066     2.126     2.280
    40   1 H        0.925     0.064     2.155     2.296
    41   1 H        0.925     0.057     2.235     2.338

 Mol. C6AA /au·bohr⁶  :      26557.354579
 Mol. C8AA /au·bohr⁸  :     863246.960010
 Mol. α(0) /au        :        258.348473


Wiberg/Mayer (AO) data.
largest (>0.10) Wiberg bond orders for each atom

 ---------------------------------------------------------------------------
     #   Z sym  total        # sym  WBO       # sym  WBO       # sym  WBO
 ---------------------------------------------------------------------------
     1   6 C    3.987 --     2 C    1.021    22 H    0.982    20 H    0.980
                            21 H    0.970
     2   6 C    3.912 --     1 C    1.021    24 H    0.970    23 H    0.969
                             3 O    0.904
     3   8 O    2.399 --     4 P    1.303     2 C    0.904
     4  15 P    5.248 --     5 S    1.511     6 O    1.312     3 O    1.303
                             9 S    0.972
     5  16 S    1.854 --     4 P    1.511     9 S    0.145
     6   8 O    2.402 --     4 P    1.312     7 C    0.898
     7   6 C    3.910 --     8 C    1.023    26 H    0.970    25 H    0.965
                             6 O    0.898
     8   6 C    3.991 --     7 C    1.023    29 H    0.984    28 H    0.980
                            27 H    0.976
     9  16 S    2.272 --    10 C    0.974     4 P    0.972     5 S    0.145
    10   6 C    3.965 --    11 S    0.995     9 S    0.974    30 H    0.969
                            31 H    0.966
    11  16 S    2.274 --    10 C    0.995    12 P    0.917    13 S    0.148
    12  15 P    5.282 --    13 S    1.588    17 O    1.331    14 O    1.328
                            11 S    0.917
    13  16 S    1.915 --    12 P    1.588    11 S    0.148
    14   8 O    2.422 --    12 P    1.328    15 C    0.898
    15   6 C    3.903 --    16 C    1.021    33 H    0.971    32 H    0.965
                            14 O    0.898
    16   6 C    3.989 --    15 C    1.021    35 H    0.985    34 H    0.980
                            36 H    0.977
    17   8 O    2.407 --    12 P    1.331    18 C    0.891
    18   6 C    3.914 --    19 C    1.021    37 H    0.972    38 H    0.967
                            17 O    0.891
    19   6 C    3.989 --    18 C    1.021    40 H    0.984    39 H    0.981
                            41 H    0.980
    20   1 H    0.996 --     1 C    0.980
    21   1 H    0.995 --     1 C    0.970
    22   1 H    0.995 --     1 C    0.982
    23   1 H    0.996 --     2 C    0.969
    24   1 H    0.997 --     2 C    0.970
    25   1 H    0.996 --     7 C    0.965
    26   1 H    0.996 --     7 C    0.970
    27   1 H    0.996 --     8 C    0.976
    28   1 H    0.996 --     8 C    0.980
    29   1 H    0.996 --     8 C    0.984
    30   1 H    0.994 --    10 C    0.969
    31   1 H    0.995 --    10 C    0.966
    32   1 H    0.994 --    15 C    0.965
    33   1 H    0.996 --    15 C    0.971
    34   1 H    0.995 --    16 C    0.980
    35   1 H    0.997 --    16 C    0.985
    36   1 H    0.996 --    16 C    0.977
    37   1 H    0.996 --    18 C    0.972
    38   1 H    0.997 --    18 C    0.967
    39   1 H    0.996 --    19 C    0.981
    40   1 H    0.996 --    19 C    0.984
    41   1 H    0.995 --    19 C    0.980
 ---------------------------------------------------------------------------

Topologies differ in total number of bonds
Writing topology from bond orders to xtbtopo.mol

molecular dipole:
                 x           y           z       tot (Debye)
 q only:       -0.423      -0.862       1.563
   full:       -0.532      -1.398       1.640       5.642
molecular quadrupole (traceless):
                xx          xy          yy          xz          yz          zz
 q only:       18.053       3.360      -8.733      -7.228       2.380      -9.320
  q+dip:       23.009       1.970      -7.707      -4.439       1.246     -15.302
   full:       22.720       2.696      -8.471      -4.908       1.775     -14.249


           -------------------------------------------------
          | TOTAL ENERGY              -65.008062646942 Eh   |
          | GRADIENT NORM               0.035077088921 Eh/α |
          | HOMO-LUMO GAP               2.503675020671 eV   |
           -------------------------------------------------

------------------------------------------------------------------------
 * finished run on 2025/04/09 at 05:21:08.884     
------------------------------------------------------------------------
 total:
 * wall-time:     0 d,  0 h,  0 min,  0.094 sec
 *  cpu-time:     0 d,  0 h,  0 min,  0.068 sec
 * ratio c/w:     0.719 speedup
 SCF:
 * wall-time:     0 d,  0 h,  0 min,  0.061 sec
 *  cpu-time:     0 d,  0 h,  0 min,  0.055 sec
 * ratio c/w:     0.906 speedup

