      -----------------------------------------------------------      
     |                   =====================                   |     
     |                           x T B                           |     
     |                   =====================                   |     
     |                         S. Grimme                         |     
     |          Mulliken Center for Theoretical Chemistry        |     
     |                    University of Bonn                     |     
      -----------------------------------------------------------      

   * xtb version 6.7.1 (edcfbbe) compiled by 'albert@albert-system' on 2024-07-22

   xtb is free software: you can redistribute it and/or modify it under
   the terms of the GNU Lesser General Public License as published by
   the Free Software Foundation, either version 3 of the License, or
   (at your option) any later version.
   
   xtb is distributed in the hope that it will be useful,
   but WITHOUT ANY WARRANTY; without even the implied warranty of
   MERCHANTABILITY or FITNESS FOR A PARTICULAR PURPOSE.  See the
   GNU Lesser General Public License for more details.
   
   Cite this work as:
   * C. Bannwarth, E. Caldeweyher, S. Ehlert, A. Hansen, P. Pracht,
     J. Seibert, S. Spicher, S. Grimme, WIREs Comput. Mol. Sci., 2020, 11,
     e01493. DOI: 10.1002/wcms.1493
   
   for GFN2-xTB:
   * C. Bannwarth, S. Ehlert and S. Grimme., J. Chem. Theory Comput., 2019,
     15, 1652-1671. DOI: 10.1021/acs.jctc.8b01176
   for GFN1-xTB:
   * S. Grimme, C. Bannwarth, P. Shushkov, J. Chem. Theory Comput., 2017,
     13, 1989-2009. DOI: 10.1021/acs.jctc.7b00118
   for GFN0-xTB:
   * P. Pracht, E. Caldeweyher, S. Ehlert, S. Grimme, ChemRxiv, 2019, preprint.
     DOI: 10.26434/chemrxiv.8326202.v1
   for GFN-FF:
   * S. Spicher and S. Grimme, Angew. Chem. Int. Ed., 2020, 59, 15665-15673.
     DOI: 10.1002/anie.202004239
   
   for ALPB and GBSA implicit solvation:
   * S. Ehlert, M. Stahn, S. Spicher, S. Grimme, J. Chem. Theory Comput.,
     2021, 17, 4250-4261. DOI: 10.1021/acs.jctc.1c00471
   
   for ddCOSMO and CPCM-X implicit solvation:
   * M. Stahn, S. Ehlert, S. Grimme, J. Phys. Chem. A,
     2023, XX, XXXX-XXXX. DOI: 10.1021/acs.jpca.3c04382
   
   for DFT-D4:
   * E. Caldeweyher, C. Bannwarth and S. Grimme, J. Chem. Phys., 2017,
     147, 034112. DOI: 10.1063/1.4993215
   * E. Caldeweyher, S. Ehlert, A. Hansen, H. Neugebauer, S. Spicher,
     C. Bannwarth and S. Grimme, J. Chem. Phys., 2019, 150, 154122.
     DOI: 10.1063/1.5090222
   * E. Caldeweyher, J.-M. Mewes, S. Ehlert and S. Grimme, Phys. Chem. Chem. Phys.
     2020, 22, 8499-8512. DOI: 10.1039/D0CP00502A
   
   for sTDA-xTB:
   * S. Grimme and C. Bannwarth, J. Chem. Phys., 2016, 145, 054103.
     DOI: 10.1063/1.4959605
   
   in the mass-spec context:
   * V. Asgeirsson, C. Bauer and S. Grimme, Chem. Sci., 2017, 8, 4879.
     DOI: 10.1039/c7sc00601b
   * J. Koopman and S. Grimme, ACS Omega 2019, 4, 12, 15120-15133.
     DOI: 10.1021/acsomega.9b02011
   
   for metadynamics refer to:
   * S. Grimme, J. Chem. Theory Comput., 2019, 155, 2847-2862
     DOI: 10.1021/acs.jctc.9b00143
   
   for SPH calculations refer to:
   * S. Spicher and S. Grimme, J. Chem. Theory Comput., 2021, 17, 1701-1714
     DOI: 10.1021/acs.jctc.0c01306
   
   for ONIOM refer to:
   * C. Plett, A. Katbashev, S. Ehlert, S. Grimme, M. Bursch,
     Phys. Chem. Chem. Phys., 2023, 25, 17860-17868. DOI: 10.1039/D3CP02178E
   
   for DIPRO refer to:
   * J. Kohn, N. Gildemeister, S. Grimme, D. Fazzi, A. Hansen,
     J. Chem. Phys., 2023, just accepted.
   
   for PTB refer to:
   * S. Grimme, M. Mueller, A. Hansen, J. Chem. Phys., 2023, 158, 124111.
     DOI: 10.1063/5.0137838
   
   with help from (in alphabetical order)
   P. Atkinson, C. Bannwarth, F. Bohle, G. Brandenburg, E. Caldeweyher
   M. Checinski, S. Dohm, S. Ehlert, S. Ehrlich, I. Gerasimov, C. Hölzer
   A. Katbashev, J. Kohn, J. Koopman, C. Lavigne, S. Lehtola, F. März, M. Müller,
   F. Musil, H. Neugebauer, J. Pisarek, C. Plett, P. Pracht, F. Pultar,
   J. Seibert, P. Shushkov, S. Spicher, M. Stahn, M. Steiner, T. Strunk,
   J. Stückrath, T. Rose, and J. Unsleber
   
 * started run on 2025/04/09 at 07:31:34.924     
   ID    Z sym.   atoms
    1    6 C      1, 2, 4, 6, 7, 9, 12, 13, 18, 20
    2    8 O      3, 5, 10, 11, 17, 19
    3    1 H      8, 21-38
    4   16 S      14, 16
    5   15 P      15

           -------------------------------------------------
          |                Calculation Setup                |
           -------------------------------------------------

          program call               : /software/projects/pawsey0265/mwang1/xtb/bin/xtb solv.coord --gfn2 --sp --chrg 0 --norestart --parallel 1 --alpb water reference -I xtb_sp-xcontrol-inp
          hostname                   : nid002043
          coordinate file            : solv.coord
          omp threads                :                     1


           -------------------------------------------------
          |                 G F N 2 - x T B                 |
           -------------------------------------------------

        Reference                      10.1021/acs.jctc.8b01176
      * Hamiltonian:
        H0-scaling (s, p, d)           1.850000    2.230000    2.230000
        zeta-weighting                 0.500000
      * Dispersion:
        s8                             2.700000
        a1                             0.520000
        a2                             5.000000
        s9                             5.000000
      * Repulsion:
        kExp                           1.500000    1.000000
        rExp                           1.000000
      * Coulomb:
        alpha                          2.000000
        third order                    shell-resolved
        anisotropic                    true
        a3                             3.000000
        a5                             4.000000
        cn-shift                       1.200000
        cn-exp                         4.000000
        max-rad                        5.000000

      * Solvation model:               ALPB
        Solvent                        water
        Parameter file                 internal GFN2-xTB/ALPB
        Dielectric constant                8.0200E+01
        Reference state                gsolv=reference [X=1]
        Free energy shift                  2.8945E-03 Eh       1.8164E+00 kcal/mol
        Temperature                        2.9815E+02 K
        Density                            1.0000E+00 kg/L
        Solvent mass                       1.8000E+01 g/mol
        Interaction kernel             P16
        Born radius scaling (c1)           1.4744E+00
        Born radii integrator          GBOBC
        Born offset                        0.0000E+00 a0       0.0000E+00 AA
        H-bond correction              true
        Ion screening                  false
        Surface tension                    1.0000E-05 Eh       1.5569E+01 dyn/cm
        Grid points                               974 per atom

          ...................................................
          :                      SETUP                      :
          :.................................................:
          :  # basis functions                 113          :
          :  # atomic orbitals                 110          :
          :  # shells                           60          :
          :  # electrons                       112          :
          :  max. iterations                   250          :
          :  Hamiltonian                  GFN2-xTB          :
          :  restarted?                      false          :
          :  GBSA solvation                   true          :
          :  PC potential                    false          :
          :  electronic temp.          300.0000000     K    :
          :  accuracy                    1.0000000          :
          :  -> integral cutoff          0.2500000E+02      :
          :  -> integral neglect         0.1000000E-07      :
          :  -> SCF convergence          0.1000000E-05 Eh   :
          :  -> wf. convergence          0.1000000E-03 e    :
          :  Broyden damping             0.4000000          :
          :  net charge                          0          :
          :  unpaired electrons                  0          :
          ...................................................

 iter      E             dE          RMSdq      gap      omega  full diag
   1    -65.0982881 -0.650983E+02  0.594E+00    4.39       0.0  T
   2    -65.2292976 -0.131010E+00  0.319E+00    3.38       1.0  T
   3    -65.2386143 -0.931670E-02  0.124E+00    3.32       1.0  T
   4    -65.2449417 -0.632739E-02  0.455E-01    3.20       1.0  T
   5    -65.2457386 -0.796909E-03  0.209E-01    3.30       1.0  T
   6    -65.2458555 -0.116946E-03  0.909E-02    3.30       1.0  T
   7    -65.2458747 -0.192150E-04  0.332E-02    3.32       1.0  T
   8    -65.2458766 -0.189549E-05  0.120E-02    3.32       1.4  T
   9    -65.2458772 -0.568746E-06  0.363E-03    3.32       4.5  T
  10    -65.2458772 -0.146214E-07  0.164E-03    3.32       9.9  T
  11    -65.2458772 -0.137616E-07  0.455E-04    3.32      35.7  T
  12    -65.2458772 -0.752578E-09  0.235E-04    3.32      68.9  T

   *** convergence criteria satisfied after 12 iterations ***

         #    Occupation            Energy/Eh            Energy/eV
      -------------------------------------------------------------
         1        2.0000           -0.7750576             -21.0904
       ...           ...                  ...                  ...
        50        2.0000           -0.4523676             -12.3095
        51        2.0000           -0.4492108             -12.2236
        52        2.0000           -0.4473989             -12.1743
        53        2.0000           -0.4373762             -11.9016
        54        2.0000           -0.4124069             -11.2222
        55        2.0000           -0.3969323             -10.8011
        56        2.0000           -0.3939415             -10.7197 (HOMO)
        57                         -0.2718512              -7.3974 (LUMO)
        58                         -0.2651085              -7.2140
        59                         -0.2473923              -6.7319
        60                         -0.1994794              -5.4281
        61                         -0.1782918              -4.8516
       ...                                ...                  ...
       110                          1.2779973              34.7761
      -------------------------------------------------------------
                  HL-Gap            0.1220903 Eh            3.3222 eV
             Fermi-level           -0.3328964 Eh           -9.0586 eV

 SCC (total)                   0 d,  0 h,  0 min,  0.089 sec
 SCC setup                      ...        0 min,  0.005 sec (  5.444%)
 Dispersion                     ...        0 min,  0.000 sec (  0.430%)
 classical contributions        ...        0 min,  0.000 sec (  0.095%)
 integral evaluation            ...        0 min,  0.039 sec ( 43.064%)
 iterations                     ...        0 min,  0.026 sec ( 28.691%)
 molecular gradient             ...        0 min,  0.020 sec ( 22.010%)
 printout                       ...        0 min,  0.000 sec (  0.239%)

         :::::::::::::::::::::::::::::::::::::::::::::::::::::
         ::                     SUMMARY                     ::
         :::::::::::::::::::::::::::::::::::::::::::::::::::::
         :: total energy             -64.672476122467 Eh    ::
         :: total w/o Gsasa/hb       -64.674598423305 Eh    ::
         :: gradient norm              0.000060808432 Eh/a0 ::
         :: HOMO-LUMO gap              3.322245392797 eV    ::
         ::.................................................::
         :: SCC energy               -65.245106274367 Eh    ::
         :: -> isotropic ES            0.170493131647 Eh    ::
         :: -> anisotropic ES         -0.019157407258 Eh    ::
         :: -> anisotropic XC          0.017259427237 Eh    ::
         :: -> dispersion             -0.042459340314 Eh    ::
         :: -> Gsolv                  -0.026476065560 Eh    ::
         ::    -> Gelec               -0.028598366397 Eh    ::
         ::    -> Gsasa                0.004322865597 Eh    ::
         ::    -> Ghb                 -0.005095113920 Eh    ::
         ::    -> Gshift               0.002894549160 Eh    ::
         :: repulsion energy           0.572630151899 Eh    ::
         :: add. restraining           0.000000000000 Eh    ::
         :: total charge              -0.000000000000 e     ::
         :::::::::::::::::::::::::::::::::::::::::::::::::::::

           -------------------------------------------------
          |                Property Printout                |
           -------------------------------------------------

    * Orbital Energies and Occupations

         #    Occupation            Energy/Eh            Energy/eV
      -------------------------------------------------------------
         1        2.0000           -0.7750576             -21.0904
       ...           ...                  ...                  ...
        44        2.0000           -0.4760841             -12.9549
        45        2.0000           -0.4697190             -12.7817
        46        2.0000           -0.4661213             -12.6838
        47        2.0000           -0.4624024             -12.5826
        48        2.0000           -0.4572845             -12.4433
        49        2.0000           -0.4557660             -12.4020
        50        2.0000           -0.4523676             -12.3095
        51        2.0000           -0.4492108             -12.2236
        52        2.0000           -0.4473989             -12.1743
        53        2.0000           -0.4373762             -11.9016
        54        2.0000           -0.4124069             -11.2222
        55        2.0000           -0.3969323             -10.8011
        56        2.0000           -0.3939415             -10.7197 (HOMO)
        57                         -0.2718512              -7.3974 (LUMO)
        58                         -0.2651085              -7.2140
        59                         -0.2473923              -6.7319
        60                         -0.1994794              -5.4281
        61                         -0.1782918              -4.8516
        62                         -0.1597192              -4.3462
        63                         -0.1223921              -3.3305
        64                         -0.0501086              -1.3635
        65                         -0.0455552              -1.2396
        66                         -0.0325616              -0.8860
        67                         -0.0176259              -0.4796
       ...                                ...                  ...
       110                          1.2779973              34.7761
      -------------------------------------------------------------
                  HL-Gap            0.1220903 Eh            3.3222 eV
             Fermi-level           -0.3328964 Eh           -9.0586 eV

     #   Z          covCN         q      C6AA      α(0)
     1   6 C        3.751    -0.127    22.991     6.838
     2   6 C        3.694     0.063    19.684     6.347
     3   8 O        1.703    -0.255    18.225     5.764
     4   6 C        2.713     0.372    20.700     7.447
     5   8 O        0.856    -0.461    22.936     6.421
     6   6 C        3.846    -0.098    22.326     6.721
     7   6 C        3.863     0.013    20.323     6.411
     8   1 H        0.924     0.098     1.799     2.097
     9   6 C        2.786     0.376    20.640     7.442
    10   8 O        0.867    -0.460    22.909     6.417
    11   8 O        1.703    -0.253    18.192     5.759
    12   6 C        3.699     0.075    19.484     6.313
    13   6 C        3.750    -0.124    22.942     6.831
    14  16 S        1.989    -0.114   145.844    20.326
    15  15 P        3.895     0.367   144.934    21.626
    16  16 S        0.927    -0.476   160.269    21.413
    17   8 O        1.656    -0.272    18.519     5.809
    18   6 C        3.824     0.013    20.335     6.417
    19   8 O        1.654    -0.253    18.213     5.761
    20   6 C        3.820     0.013    20.344     6.419
    21   1 H        0.925     0.063     2.165     2.301
    22   1 H        0.925     0.055     2.262     2.352
    23   1 H        0.925     0.078     2.002     2.213
    24   1 H        0.924     0.068     2.111     2.272
    25   1 H        0.925     0.092     1.856     2.131
    26   1 H        0.924     0.093     1.854     2.129
    27   1 H        0.924     0.124     1.585     1.969
    28   1 H        0.925     0.092     1.860     2.133
    29   1 H        0.924     0.062     2.175     2.306
    30   1 H        0.925     0.055     2.256     2.349
    31   1 H        0.925     0.066     2.127     2.281
    32   1 H        0.925     0.082     1.963     2.191
    33   1 H        0.924     0.076     2.017     2.221
    34   1 H        0.925     0.110     1.697     2.037
    35   1 H        0.925     0.090     1.881     2.145
    36   1 H        0.925     0.113     1.668     2.020
    37   1 H        0.925     0.091     1.867     2.137
    38   1 H        0.925     0.092     1.857     2.131

 Mol. C6AA /au·bohr⁶  :      18240.561688
 Mol. C8AA /au·bohr⁸  :     514312.766590
 Mol. α(0) /au        :        207.896204


Wiberg/Mayer (AO) data.
largest (>0.10) Wiberg bond orders for each atom

 ---------------------------------------------------------------------------
     #   Z sym  total        # sym  WBO       # sym  WBO       # sym  WBO
 ---------------------------------------------------------------------------
     1   6 C    3.988 --     2 C    1.014    21 H    0.985    22 H    0.984
                            23 H    0.979
     2   6 C    3.899 --     1 C    1.014    24 H    0.970    25 H    0.968
                             3 O    0.908
     3   8 O    2.340 --     4 C    1.194     2 C    0.908     5 O    0.180
     4   6 C    3.919 --     5 O    1.706     3 O    1.194     6 C    0.956
     5   8 O    1.995 --     4 C    1.706     3 O    0.180
     6   6 C    3.978 --    26 H    0.970     7 C    0.969     4 C    0.956
                            27 H    0.947
     7   6 C    3.970 --     6 C    0.969    14 S    0.957     9 C    0.952
                             8 H    0.950
     8   1 H    0.990 --     7 C    0.950
     9   6 C    3.915 --    10 O    1.667    11 O    1.212     7 C    0.952
    10   8 O    2.020 --     9 C    1.667    11 O    0.170
    11   8 O    2.350 --     9 C    1.212    12 C    0.898    10 O    0.170
    12   6 C    3.892 --    13 C    1.014    29 H    0.970    28 H    0.967
                            11 O    0.898
    13   6 C    3.986 --    12 C    1.014    30 H    0.985    31 H    0.982
                            32 H    0.978
    14  16 S    2.259 --    15 P    0.984     7 C    0.957    16 S    0.130
    15  15 P    5.311 --    16 S    1.528    19 O    1.335    17 O    1.290
                            14 S    0.984
    16  16 S    1.839 --    15 P    1.528    14 S    0.130
    17   8 O    2.378 --    15 P    1.290    18 C    0.911
    18   6 C    3.883 --    33 H    0.976    35 H    0.976    34 H    0.972
                            17 O    0.911
    19   8 O    2.400 --    15 P    1.335    20 C    0.886
    20   6 C    3.871 --    38 H    0.977    37 H    0.975    36 H    0.971
                            19 O    0.886
    21   1 H    0.996 --     1 C    0.985
    22   1 H    0.997 --     1 C    0.984
    23   1 H    0.993 --     1 C    0.979
    24   1 H    0.995 --     2 C    0.970
    25   1 H    0.991 --     2 C    0.968
    26   1 H    0.991 --     6 C    0.970
    27   1 H    0.984 --     6 C    0.947
    28   1 H    0.991 --    12 C    0.967
    29   1 H    0.996 --    12 C    0.970
    30   1 H    0.997 --    13 C    0.985
    31   1 H    0.996 --    13 C    0.982
    32   1 H    0.993 --    13 C    0.978
    33   1 H    0.994 --    18 C    0.976
    34   1 H    0.988 --    18 C    0.972
    35   1 H    0.992 --    18 C    0.976
    36   1 H    0.987 --    20 C    0.971
    37   1 H    0.992 --    20 C    0.975
    38   1 H    0.991 --    20 C    0.977
 ---------------------------------------------------------------------------

Topologies differ in total number of bonds
Writing topology from bond orders to xtbtopo.mol

molecular dipole:
                 x           y           z       tot (Debye)
 q only:        0.215      -1.199      -1.297
   full:        0.059      -1.051      -0.974       3.644
molecular quadrupole (traceless):
                xx          xy          yy          xz          yz          zz
 q only:       17.602      21.766     -22.261      -2.355       2.193       4.660
  q+dip:       17.643      16.600     -23.013      -5.086       3.429       5.371
   full:       17.708      16.681     -22.208      -5.005       3.640       4.499


           -------------------------------------------------
          | TOTAL ENERGY              -64.672476122467 Eh   |
          | GRADIENT NORM               0.000060808432 Eh/α |
          | HOMO-LUMO GAP               3.322245392797 eV   |
           -------------------------------------------------

------------------------------------------------------------------------
 * finished run on 2025/04/09 at 07:31:35.083     
------------------------------------------------------------------------
 total:
 * wall-time:     0 d,  0 h,  0 min,  0.158 sec
 *  cpu-time:     0 d,  0 h,  0 min,  0.084 sec
 * ratio c/w:     0.531 speedup
 SCF:
 * wall-time:     0 d,  0 h,  0 min,  0.090 sec
 *  cpu-time:     0 d,  0 h,  0 min,  0.066 sec
 * ratio c/w:     0.735 speedup

