41
 energy: -2932.483135526395 gnorm: 0.000874525080 xtb: 6.7.1 (edcfbbe)
C            5.73551075030137       -1.31484255679782       -1.25311690290670
C            4.38352401838684       -0.93878041969612       -1.80199796782651
O            3.35491565838493       -1.30631865516602       -0.81453240356297
P            2.35681721108558       -0.20988098088294       -0.19018182209041
S            3.13496709886323        1.48619724072986        0.37182522731281
O            1.62684279209259       -1.08143496319352        0.94209422743590
C            2.31274081003461       -1.36465299885631        2.21557741302428
C            1.28925451354902       -1.95011145501215        3.15336908819659
S            0.86703583141451       -0.09871859944280       -1.68962253528618
C            0.04917380546380        1.48683000708972       -1.25514544348941
S           -0.93387762878148        1.50203304847514        0.29187385977246
P           -2.64141259204124        0.38584073857117       -0.32514236350766
S           -3.28773801411591        0.76806529342197       -2.12006661926341
O           -3.61272941486885        0.59594043685400        0.93777796382242
C           -3.99800680952424        1.88969139564743        1.52408769396252
C           -4.85235074447879        2.72571976008353        0.60519553232095
O           -2.30826559866747       -1.17652623968645       -0.19441451092847
C           -1.79196617863020       -1.76545556384563        1.05505612213020
C           -2.85116043909368       -2.64293070820796        1.67195160411890
H            6.49713397555078       -1.11068800165895       -2.01230798690873
H            5.97148359553880       -0.73075520322942       -0.35895417999475
H            5.77380392916980       -2.37927975855905       -1.00492689776034
H            4.13609796696267       -1.49847923535777       -2.70761303991481
H            4.31839935021333        0.13241350191805       -2.01551944365688
H            3.12900606819758       -2.06374175878226        2.00797381261113
H            2.72506191122638       -0.42727712342040        2.60152740012578
H            0.48548484203346       -1.23464516744369        3.34935947674282
H            0.86040222397355       -2.87032249354892        2.74632248057840
H            1.77944616846498       -2.18835337327771        4.10233513169232
H           -0.59758760354250        1.73526281621347       -2.10237967579152
H            0.81004953524130        2.26286166853611       -1.13248645965074
H           -4.54538912562161        1.59663266546565        2.42207089445836
H           -3.08884153375576        2.41722490014414        1.82809938051664
H           -5.20495629851430        3.59518383417157        1.16973211566761
H           -4.28962041924522        3.08341461087975       -0.26033484012977
H           -5.72349619946085        2.16295646426084        0.25809309164991
H           -0.91305299878167       -2.33854131387757        0.75212955588470
H           -1.47630509076691       -0.96781604515788        1.73354752426665
H           -3.15985653935642       -3.42931228302285        0.97751299311456
H           -2.43727077649132       -3.11829149269911        2.56742264393446
H           -3.72769072932063       -2.05843439420881        1.96459871709896
41
 energy: -2932.483139190058 gnorm: 0.000622686714 xtb: 6.7.1 (edcfbbe)
C            5.73448366166970       -1.31531371513624       -1.25396944383310
C            4.38255029611902       -0.93814363028735       -1.80172030037584
O            3.35434729298650       -1.30593415007644       -0.81379680730804
P            2.35640243334947       -0.20938064582332       -0.18971601091598
S            3.13460857024893        1.48639669730110        0.37271470381453
O            1.62624530802900       -1.08089344705252        0.94271610319641
C            2.31241106975639       -1.36445279417332        2.21668744608344
C            1.29004628887330       -1.95184768133086        3.15369568750672
S            0.86787020943495       -0.09750500274085       -1.69022417788401
C            0.04908061640865        1.48776776692065       -1.25649572370690
S           -0.93572806478589        1.50553730059919        0.28909791678517
P           -2.64097533463983        0.38484436617595       -0.32527477286189
S           -3.28449174708404        0.76947088064760       -2.12056084016251
O           -3.61196568573647        0.59558686658094        0.93791393338491
C           -3.99750608195711        1.88994193932924        1.52346401870051
C           -4.85227101852628        2.72525218913686        0.60465122727181
O           -2.30672523428707       -1.17724080120592       -0.19354713535556
C           -1.79136846566888       -1.76582767735598        1.05644895789426
C           -2.85136359443165       -2.64279702354070        1.67266813832660
H            6.49650524606402       -1.10854964620043       -2.01231714988332
H            5.96984121609208       -0.73386301925385       -0.35784496209008
H            5.77286382708845       -2.38060984460933       -1.00901969727175
H            4.13437436956806       -1.49696877921822       -2.70759387937461
H            4.31786541153019        0.13318841297700       -2.01453036674771
H            3.12946912983577       -2.06243773476595        2.00880409073983
H            2.72379235276105       -0.42706101854880        2.60349674910865
H            0.48529006101335       -1.23760656557939        3.34969092885652
H            0.86256362204659       -2.87240628054290        2.74617293640536
H            1.77980024286131       -2.18992929353413        4.10301983658106
H           -0.59678331975372        1.73597934178142       -2.10446766402438
H            0.80975555264163        2.26402131322388       -1.13390396748638
H           -4.54476080367962        1.59725951554360        2.42161569054185
H           -3.08855645444675        2.41795352321963        1.82728320261576
H           -5.20494648861326        3.59520216107537        1.16846542521041
H           -4.28975113307245        3.08237726413733       -0.26126404736003
H           -5.72341921278404        2.16212077488120        0.25813730091695
H           -0.91262273134248       -2.33937684128725        0.75394107895000
H           -1.47588903017162       -0.96802114674050        1.73484149846633
H           -3.16041085312395       -3.42872794602792        0.97781001297753
H           -2.43742694097315       -3.11890581283290        2.56778593764578
H           -3.72762269428698       -2.05816934002430        1.96584469746740
41
 energy: -2932.483139190058 gnorm: 0.000622686714 xtb: 6.7.1 (edcfbbe)
C            5.73448366166970       -1.31531371513624       -1.25396944383310
C            4.38255029611902       -0.93814363028735       -1.80172030037584
O            3.35434729298650       -1.30593415007644       -0.81379680730804
P            2.35640243334947       -0.20938064582332       -0.18971601091598
S            3.13460857024893        1.48639669730110        0.37271470381453
O            1.62624530802900       -1.08089344705252        0.94271610319641
C            2.31241106975639       -1.36445279417332        2.21668744608344
C            1.29004628887330       -1.95184768133086        3.15369568750672
S            0.86787020943495       -0.09750500274085       -1.69022417788401
C            0.04908061640865        1.48776776692065       -1.25649572370690
S           -0.93572806478589        1.50553730059919        0.28909791678517
P           -2.64097533463983        0.38484436617595       -0.32527477286189
S           -3.28449174708404        0.76947088064760       -2.12056084016251
O           -3.61196568573647        0.59558686658094        0.93791393338491
C           -3.99750608195711        1.88994193932924        1.52346401870051
C           -4.85227101852628        2.72525218913686        0.60465122727181
O           -2.30672523428707       -1.17724080120592       -0.19354713535556
C           -1.79136846566888       -1.76582767735598        1.05644895789426
C           -2.85136359443165       -2.64279702354070        1.67266813832660
H            6.49650524606402       -1.10854964620043       -2.01231714988332
H            5.96984121609208       -0.73386301925385       -0.35784496209008
H            5.77286382708845       -2.38060984460933       -1.00901969727175
H            4.13437436956806       -1.49696877921822       -2.70759387937461
H            4.31786541153019        0.13318841297700       -2.01453036674771
H            3.12946912983577       -2.06243773476595        2.00880409073983
H            2.72379235276105       -0.42706101854880        2.60349674910865
H            0.48529006101335       -1.23760656557939        3.34969092885652
H            0.86256362204659       -2.87240628054290        2.74617293640536
H            1.77980024286131       -2.18992929353413        4.10301983658106
H           -0.59678331975372        1.73597934178142       -2.10446766402438
H            0.80975555264163        2.26402131322388       -1.13390396748638
H           -4.54476080367962        1.59725951554360        2.42161569054185
H           -3.08855645444675        2.41795352321963        1.82728320261576
H           -5.20494648861326        3.59520216107537        1.16846542521041
H           -4.28975113307245        3.08237726413733       -0.26126404736003
H           -5.72341921278404        2.16212077488120        0.25813730091695
H           -0.91262273134248       -2.33937684128725        0.75394107895000
H           -1.47588903017162       -0.96802114674050        1.73484149846633
H           -3.16041085312395       -3.42872794602792        0.97781001297753
H           -2.43742694097315       -3.11890581283290        2.56778593764578
H           -3.72762269428698       -2.05816934002430        1.96584469746740
