
                                 *****************
                                 * O   R   C   A *
                                 *****************

                                            #,                                       
                                            ###                                      
                                            ####                                     
                                            #####                                    
                                            ######                                   
                                           ########,                                 
                                     ,,################,,,,,                         
                               ,,#################################,,                 
                          ,,##########################################,,             
                       ,#########################################, ''#####,          
                    ,#############################################,,   '####,        
                  ,##################################################,,,,####,       
                ,###########''''           ''''###############################       
              ,#####''   ,,,,##########,,,,          '''####'''          '####       
            ,##' ,,,,###########################,,,                        '##       
           ' ,,###''''                  '''############,,,                           
         ,,##''                                '''############,,,,        ,,,,,,###''
      ,#''                                            '''#######################'''  
     '                                                          ''''####''''         
             ,#######,   #######,   ,#######,      ##                                
            ,#'     '#,  ##    ##  ,#'     '#,    #''#        ,####,   ,####,        
            ##       ##  ##   ,#'  ##            #'  '#       #'       #'  '#        
            ##       ##  #######   ##           ,######,      #####,   #    #        
            '#,     ,#'  ##    ##  '#,     ,#' ,#      #,     #,   #   #,  ,#        
             '#######'   ##     ##  '#######'  #'      '#     '####' # '####'        



                #########################################################
                #                        -***-                          #
                #          Department of theory and spectroscopy        #
                #                                                       #
                #                      Frank Neese                      #
                #                                                       #
                #     Directorship, Architecture, Infrastructure        #
                #                    SHARK, DRIVERS                     #
                #        Core code/Algorithms in most modules           #
                #                                                       #
                #        Max Planck Institute fuer Kohlenforschung      #
                #                Kaiser Wilhelm Platz 1                 #
                #                 D-45470 Muelheim/Ruhr                 #
                #                      Germany                          #
                #                                                       #
                #                  All rights reserved                  #
                #                        -***-                          #
                #########################################################


                         Program Version 6.0.0  -   RELEASE  -


 With contributions from (in alphabetic order):
   Daniel Aravena         : Magnetic Suceptibility
   Michael Atanasov       : Ab Initio Ligand Field Theory (pilot matlab implementation)
   Alexander A. Auer      : GIAO ZORA, VPT2 properties, NMR spectrum
   Ute Becker             : All parallelization in ORCA, NUMFREQ, NUMCALC
   Giovanni Bistoni       : ED, misc. LED, open-shell LED, HFLD
   Martin Brehm           : Molecular dynamics
   Dmytro Bykov           : pre 5.0 version of the SCF Hessian
   Marcos Casanova-Páez   : Triplet and SCS-CIS(D). UHF-(DLPNO)-IP/EA/STEOM-CCSD. UHF-CVS-IP/STEOM-CCSD
   Vijay G. Chilkuri      : MRCI spin determinant printing, contributions to CSF-ICE
   Pauline Colinet        : FMM embedding
   Dipayan Datta          : RHF DLPNO-CCSD density
   Achintya Kumar Dutta   : EOM-CC, STEOM-CC
   Nicolas Foglia         : Exact transition moments, OPA infrastructure, MCD improvements
   Dmitry Ganyushin       : Spin-Orbit,Spin-Spin,Magnetic field MRCI
   Miquel Garcia          : C-PCM and meta-GGA Hessian, CCSD/C-PCM, Gaussian charge scheme
   Tiago L. C. Gouveia    : GS-ROHF, GS-ROCIS
   Yang Guo               : DLPNO-NEVPT2, F12-NEVPT2, CIM, IAO-localization
   Andreas Hansen         : Spin unrestricted coupled pair/coupled cluster methods
   Ingolf Harden          : AUTO-CI MPn and infrastructure 
   Benjamin Helmich-Paris : MC-RPA, TRAH-(SCF,CASSCF), AVAS, COSX integrals, SCF dyn. polar.
   Lee Huntington         : MR-EOM, pCC
   Robert Izsak           : Overlap fitted RIJCOSX, COSX-SCS-MP3, EOM
   Riya Kayal             : Wick's Theorem for AUTO-CI, AUTO-CI UHF-CCSDT
   Emily Kempfer          : AUTO-CI, RHF CISDT and CCSDT
   Christian Kollmar      : KDIIS, OOCD, Brueckner-CCSD(T), CCSD density, CASPT2, CASPT2-K, improved NEVPT2
   Axel Koslowski         : Symmetry handling
   Simone Kossmann        : Meta GGA functionals, TD-DFT gradient, OOMP2, (MP2 Hessian; deprecated post 5.0)
   Lucas Lang             : DCDCAS
   Marvin Lechner         : AUTO-CI (C++ implementation), FIC-MRCC
   Spencer Leger          : CASSCF response
   Dagmar Lenk            : GEPOL surface, SMD, ORCA-2-JSON
   Dimitrios Liakos       : Extrapolation schemes; Compound Job, initial MDCI parallelization
   Dimitrios Manganas     : Further ROCIS development; embedding schemes. LFT, Crystal Embedding
   Dimitrios Pantazis     : SARC Basis sets
   Anastasios Papadopoulos: AUTO-CI, single reference methods and gradients
   Taras Petrenko         : pre 6.0 DFT Hessian and TD-DFT gradient, (ASA, deprecated), ECA, 1-Electron XAS/XES, NRVS
   Peter Pinski           : DLPNO-MP2, DLPNO-MP2 Gradient
   Christoph Reimann      : Effective Core Potentials
   Marius Retegan         : Local ZFS, SOC
   Christoph Riplinger    : Optimizer, TS searches, QM/MM, DLPNO-CCSD(T), (RO)-DLPNO pert. Triples
   Michael Roemelt        : Original ROCIS implementation
   Masaaki Saitow         : Open-shell DLPNO-CCSD energy and density
   Barbara Sandhoefer     : DKH picture change effects
   Kantharuban Sivalingam : CASSCF convergence/infrastructure, NEVPT2 and variants, FIC-MRCI
   Bernardo de Souza      : ESD, SOC TD-DFT
   Georgi Stoychev        : AutoAux, RI-MP2 NMR, DLPNO-MP2 response, X2C
   Van Anh Tran           : RI-MP2 g-tensors
   Willem Van den Heuvel  : Paramagnetic NMR
   Zikuan Wang            : NOTCH, Electric field optimization 
   Frank Wennmohs         : Technical directorship and infrastructure
   Hang Xu                : AUTO-CI-Response properties 


 We gratefully acknowledge several colleagues who have allowed us to
 interface, adapt or use parts of their codes:
   Stefan Grimme, W. Hujo, H. Kruse, P. Pracht,  : VdW corrections, initial TS optimization,
                  C. Bannwarth, S. Ehlert,         DFT functionals, gCP, sTDA/sTD-DF
                  L. Wittmann, M. Mueller
   Ed Valeev, F. Pavosevic, A. Kumar             : LibInt (2-el integral package), F12 methods
   Garnet Chan, S. Sharma, J. Yang, R. Olivares  : DMRG
   Ulf Ekstrom                                   : XCFun DFT Library
   Mihaly Kallay                                 : mrcc  (arbitrary order and MRCC methods)
   Frank Weinhold                                : gennbo (NPA and NBO analysis)
   Simon Mueller                                 : openCOSMO-RS
   Christopher J. Cramer and Donald G. Truhlar   : smd solvation model
   Lars Goerigk                                  : TD-DFT with DH, B97 family of functionals
   V. Asgeirsson, H. Jonsson                     : NEB implementation
   FAccTs GmbH                                   : IRC, NEB, NEB-TS, DLPNO-Multilevel, CI-OPT
                                                   MM, QMMM, 2- and 3-layer-ONIOM, Crystal-QMMM,
                                                   LR-CPCM, SF, NACMEs, symmetry and pop. for TD-DFT,
                                                   nearIR, NL-DFT gradient (VV10), updates on ESD,
                                                   ML-optimized integration grids, MBIS, APM,
                                                   GOAT, DOCKER, SOLVATOR, interface openCOSMO-RS
   S Lehtola, MJT Oliveira, MAL Marques          : LibXC Library
   Liviu Ungur et al                             : ANISO software


 Your calculation uses the libint2 library for the computation of 2-el integrals
 For citations please refer to: http://libint.valeyev.net

 Your ORCA version has been built with support for libXC version: 6.2.2
 For citations please refer to: https://libxc.gitlab.io

 This ORCA versions uses:
   CBLAS   interface :  Fast vector & matrix operations
   LAPACKE interface :  Fast linear algebra routines
   SCALAPACK package :  Parallel linear algebra routines
   Shared memory     :  Shared parallel matrices
   BLAS/LAPACK       :  OpenBLAS 0.3.27  USE64BITINT DYNAMIC_ARCH NO_AFFINITY SapphireRapids SINGLE_THREADED
        Core in use  :  SapphireRapids
   Copyright (c) 2011-2014, The OpenBLAS Project


Your calculation utilizes the geometrical counterpoise correction gCP
Please cite in your paper:
H.Kruse, S. Grimme J.Chem.Phys., 136, (2012), 154101 
   

Your calculation utilizes the atom-pairwise dispersion correction
based on EEQ partial charges (D4)


================================================================================

----- Orbital basis set information -----
Your calculation utilizes the basis: def2-SV(P)
   F. Weigend and R. Ahlrichs, Phys. Chem. Chem. Phys. 7, 3297 (2005).

----- AuxJ basis set information -----
Your calculation utilizes the auxiliary basis: def2/J
   F. Weigend, Phys. Chem. Chem. Phys. 8, 1057 (2006).

================================================================================
                                        WARNINGS
                       Please study these warnings very carefully!
================================================================================


================================================================================
                                       INPUT FILE
================================================================================
NAME = sp.inp
|  1> ! pbe def2-sv(p) def2/J RI DEFGRID1 loosescf d4 GCP(DFT/SV(P)) printgap
|  2> %output
|  3>     printlevel normal
|  4> end
|  5> * xyz 0 1
|  6> C -2.5873180681 0.5776040429 -0.0007506354
|  7> C -1.2286467239 -0.0621186701 -2.10182e-05
|  8> C -1.1360466907 -1.4487554992 8.41341e-05
|  9> C 0.0922835874 -2.082644531 0.00045182
| 10> C 1.2508843794 -1.3330883304 0.000201682
| 11> C 1.1739979607 0.0541596618 -7.13713e-05
| 12> C -0.0634584254 0.7070796388 0.0003661019
| 13> C -0.0912908175 2.2127241386 0.0009473085
| 14> O 2.3577069679 0.7359417014 -0.000758546
| 15> H -2.7217406661 1.2002771229 -0.8836374841
| 16> H -3.3595700106 -0.1866736539 -0.0023936395
| 17> H -2.7237657617 1.1983136971 0.8832297934
| 18> H -2.0402584466 -2.03930209 -8.77381e-05
| 19> H 0.1489897401 -3.1604983714 0.0007152122
| 20> H 2.2258877766 -1.7947502381 0.0001101836
| 21> H 0.4007473407 2.6050975598 -0.8896827347
| 22> H -1.1081919756 2.5857722861 0.0087511796
| 23> H 0.4139809485 2.6045660021 0.8843302434
| 24> H 2.1975218672 1.6910119132 -0.0036896804
| 25> *
| 26> 
| 27>                          ****END OF INPUT****
================================================================================

                       ****************************
                       * Single Point Calculation *
                       ****************************

---------------------------------
CARTESIAN COORDINATES (ANGSTROEM)
---------------------------------
  C     -2.587318    0.577604   -0.000751
  C     -1.228647   -0.062119   -0.000021
  C     -1.136047   -1.448755    0.000084
  C      0.092284   -2.082645    0.000452
  C      1.250884   -1.333088    0.000202
  C      1.173998    0.054160   -0.000071
  C     -0.063458    0.707080    0.000366
  C     -0.091291    2.212724    0.000947
  O      2.357707    0.735942   -0.000759
  H     -2.721741    1.200277   -0.883637
  H     -3.359570   -0.186674   -0.002394
  H     -2.723766    1.198314    0.883230
  H     -2.040258   -2.039302   -0.000088
  H      0.148990   -3.160498    0.000715
  H      2.225888   -1.794750    0.000110
  H      0.400747    2.605098   -0.889683
  H     -1.108192    2.585772    0.008751
  H      0.413981    2.604566    0.884330
  H      2.197522    1.691012   -0.003690

----------------------------
CARTESIAN COORDINATES (A.U.)
----------------------------
  NO LB      ZA    FRAG     MASS         X           Y           Z
   0 C     6.0000    0    12.011   -4.889323    1.091513   -0.001418
   1 C     6.0000    0    12.011   -2.321806   -0.117387   -0.000040
   2 C     6.0000    0    12.011   -2.146817   -2.737751    0.000159
   3 C     6.0000    0    12.011    0.174391   -3.935628    0.000854
   4 C     6.0000    0    12.011    2.363829   -2.519172    0.000381
   5 C     6.0000    0    12.011    2.218535    0.102347   -0.000135
   6 C     6.0000    0    12.011   -0.119919    1.336187    0.000692
   7 C     6.0000    0    12.011   -0.172515    4.181443    0.001790
   8 O     8.0000    0    15.999    4.455420    1.390728   -0.001433
   9 H     1.0000    0     1.008   -5.143344    2.268195   -1.669833
  10 H     1.0000    0     1.008   -6.348667   -0.352762   -0.004523
  11 H     1.0000    0     1.008   -5.147171    2.264485    1.669062
  12 H     1.0000    0     1.008   -3.855530   -3.853722   -0.000166
  13 H     1.0000    0     1.008    0.281550   -5.972476    0.001352
  14 H     1.0000    0     1.008    4.206318   -3.391586    0.000208
  15 H     1.0000    0     1.008    0.757303    4.922921   -1.681257
  16 H     1.0000    0     1.008   -2.094179    4.886401    0.016537
  17 H     1.0000    0     1.008    0.782311    4.921916    1.671142
  18 H     1.0000    0     1.008    4.152715    3.195549   -0.006972

--------------------------------
INTERNAL COORDINATES (ANGSTROEM)
--------------------------------
 C      0   0   0     0.000000000000     0.00000000     0.00000000
 C      1   0   0     1.501743487890     0.00000000     0.00000000
 C      2   1   0     1.389725322869   119.03369146     0.00000000
 C      3   2   1     1.382248426270   121.11689210   179.98575410
 C      4   3   2     1.379924039812   119.80283271   359.97516517
 C      5   4   3     1.389377050264   119.72852997     0.00000000
 C      2   1   3     1.396184070686   121.35609595   179.99114758
 C      7   2   1     1.505901835987   122.37176204     0.03902907
 O      6   5   4     1.366013995337   116.76839761   180.02107214
 H      1   2   3     1.088705831259   110.83876090   240.18302911
 H      1   2   3     1.086506401262   110.08423222   359.92841946
 H      1   2   3     1.088723953262   110.84613188   119.66785971
 H      3   2   1     1.079974168651   119.32825663     0.00000000
 H      4   3   2     1.079344504037   120.30790555   179.98857734
 H      5   4   3     1.078778638065   121.76172352   180.02279839
 H      8   7   2     1.090541298915   110.55346767   240.73782988
 H      8   7   2     1.083196097714   111.20406608     0.43897885
 H      8   7   2     1.090506768975   110.54902108   120.12585884
 H      9   6   5     0.968414667125   110.41961191   179.82375542

---------------------------
INTERNAL COORDINATES (A.U.)
---------------------------
 C      0   0   0     0.000000000000     0.00000000     0.00000000
 C      1   0   0     2.837883915512     0.00000000     0.00000000
 C      2   1   0     2.626200261597   119.03369146     0.00000000
 C      3   2   1     2.612070974694   121.11689210   179.98575410
 C      4   3   2     2.607678520858   119.80283271   359.97516517
 C      5   4   3     2.625542121755   119.72852997     0.00000000
 C      2   1   3     2.638405526140   121.35609595   179.99114758
 C      7   2   1     2.845742054585   122.37176204     0.03902907
 O      6   5   4     2.581392346291   116.76839761   180.02107214
 H      1   2   3     2.057355861482   110.83876090   240.18302911
 H      1   2   3     2.053199541138   110.08423222   359.92841946
 H      1   2   3     2.057390107106   110.84613188   119.66785971
 H      3   2   1     2.040855410460   119.32825663     0.00000000
 H      4   3   2     2.039665516783   120.30790555   179.98857734
 H      5   4   3     2.038596185067   121.76172352   180.02279839
 H      8   7   2     2.060824392680   110.55346767   240.73782988
 H      8   7   2     2.046943974011   111.20406608     0.43897885
 H      8   7   2     2.060759140550   110.54902108   120.12585884
 H      9   6   5     1.830038504939   110.41961191   179.82375542

---------------------
BASIS SET INFORMATION
---------------------
There are 3 groups of distinct atoms

 Group   1 Type C   : 7s4p1d contracted to 3s2p1d pattern {511/31/1}
 Group   2 Type O   : 7s4p1d contracted to 3s2p1d pattern {511/31/1}
 Group   3 Type H   : 4s contracted to 2s pattern {31}

Atom   0C    basis set group =>   1
Atom   1C    basis set group =>   1
Atom   2C    basis set group =>   1
Atom   3C    basis set group =>   1
Atom   4C    basis set group =>   1
Atom   5C    basis set group =>   1
Atom   6C    basis set group =>   1
Atom   7C    basis set group =>   1
Atom   8O    basis set group =>   2
Atom   9H    basis set group =>   3
Atom  10H    basis set group =>   3
Atom  11H    basis set group =>   3
Atom  12H    basis set group =>   3
Atom  13H    basis set group =>   3
Atom  14H    basis set group =>   3
Atom  15H    basis set group =>   3
Atom  16H    basis set group =>   3
Atom  17H    basis set group =>   3
Atom  18H    basis set group =>   3
---------------------------------
AUXILIARY/J BASIS SET INFORMATION
---------------------------------
There are 3 groups of distinct atoms

 Group   1 Type C   : 12s5p4d2f1g contracted to 6s4p3d1f1g pattern {711111/2111/211/2/1}
 Group   2 Type O   : 12s5p4d2f1g contracted to 6s4p3d1f1g pattern {711111/2111/211/2/1}
 Group   3 Type H   : 5s2p1d contracted to 3s1p1d pattern {311/2/1}

Atom   0C    basis set group =>   1
Atom   1C    basis set group =>   1
Atom   2C    basis set group =>   1
Atom   3C    basis set group =>   1
Atom   4C    basis set group =>   1
Atom   5C    basis set group =>   1
Atom   6C    basis set group =>   1
Atom   7C    basis set group =>   1
Atom   8O    basis set group =>   2
Atom   9H    basis set group =>   3
Atom  10H    basis set group =>   3
Atom  11H    basis set group =>   3
Atom  12H    basis set group =>   3
Atom  13H    basis set group =>   3
Atom  14H    basis set group =>   3
Atom  15H    basis set group =>   3
Atom  16H    basis set group =>   3
Atom  17H    basis set group =>   3
Atom  18H    basis set group =>   3
------------------------------------------------------------------------------
                             ORCA STARTUP CALCULATIONS
                           -- RI-GTO INTEGRALS CHOSEN --
------------------------------------------------------------------------------
------------------------------------------------------------------------------
                   ___                                                        
                  /   \      - P O W E R E D   B Y -                         
                 /     \                                                     
                 |  |  |   _    _      __       _____    __    __             
                 |  |  |  | |  | |    /  \     |  _  \  |  |  /  |          
                  \  \/   | |  | |   /    \    | | | |  |  | /  /          
                 / \  \   | |__| |  /  /\  \   | |_| |  |  |/  /          
                |  |  |   |  __  | /  /__\  \  |    /   |      \           
                |  |  |   | |  | | |   __   |  |    \   |  |\   \          
                \     /   | |  | | |  |  |  |  | |\  \  |  | \   \       
                 \___/    |_|  |_| |__|  |__|  |_| \__\ |__|  \__/        
                                                                              
                      - O R C A' S   B I G   F R I E N D -                    
                                      &                                       
                       - I N T E G R A L  F E E D E R -                       
                                                                              
 v1 FN, 2020, v2 2021, v3 2022-2024                                           
------------------------------------------------------------------------------


----------------------
SHARK INTEGRAL PACKAGE
----------------------

Number of atoms                             ...     19
Number of basis functions                   ...    146
Number of shells                            ...     74
Maximum angular momentum                    ...      2
Integral batch strategy                     ... SHARK/LIBINT Hybrid
RI-J (if used) integral strategy            ... SPLIT-RIJ (Revised 2003 algorithm where possible)
Printlevel                                  ...      1
Contraction scheme used                     ... SEGMENTED contraction
Prescreening option                         ... SCHWARTZ
   Thresh                                   ... 1.000e-09
   Tcut                                     ... 1.000e-10
   Tpresel                                  ... 1.000e-10 
Coulomb Range Separation                    ... NOT USED
Exchange Range Separation                   ... NOT USED
Multipole approximations                    ... NOT USED
Finite Nucleus Model                        ... NOT USED
CABS basis                                  ... NOT available
Auxiliary Coulomb fitting basis             ... AVAILABLE
   # of basis functions in Aux-J            ...    551
   # of shells in Aux-J                     ...    185
   Maximum angular momentum in Aux-J        ...      4
Auxiliary J/K fitting basis                 ... NOT available
Auxiliary Correlation fitting basis         ... NOT available
Auxiliary 'external' fitting basis          ... NOT available

Checking pre-screening integrals            ... done (  0.0 sec) Dimension = 74
Check shell pair data                       ... done (  0.0 sec)
Shell pair information
Shell pair cut-off parameter TPreSel        ...   1.0e-10
Total number of shell pairs                 ...      2775
Shell pairs after pre-screening             ...      2628
Total number of primitive shell pairs       ...     11173
Primitive shell pairs kept                  ...      7402
          la=0 lb=0:   1042 shell pairs
          la=1 lb=0:    818 shell pairs
          la=1 lb=1:    170 shell pairs
          la=2 lb=0:    394 shell pairs
          la=2 lb=1:    160 shell pairs
          la=2 lb=2:     44 shell pairs

Calculating one electron integrals          ... done (  0.0 sec)
Calculating RI/J V-Matrix + Cholesky decomp.... done (  0.1 sec)
Calculating Nuclear repulsion               ... done (  0.0 sec) ENN=    433.008415187789 Eh

Diagonalization of the overlap matrix:
Smallest eigenvalue                        ... 2.186e-04
Time for diagonalization                   ...    0.002 sec
Threshold for overlap eigenvalues          ... 1.000e-07
Number of eigenvalues below threshold      ... 0
Time for construction of square roots      ...    0.016 sec
Total time needed                          ...    0.025 sec

-------------------
DFT GRID GENERATION
-------------------

General Integration Accuracy     IntAcc      ... 4.159
Radial Grid Type                 RadialGrid  ... OptM3 with GC (2021)
Angular Grid (max. ang.)         AngularGrid ... 3 (Lebedev-194)
Angular grid pruning method      GridPruning ... 4 (adaptive)
Weight generation scheme         WeightScheme... mBecke (2022)
Basis function cutoff            BFCut       ... 1.0000e-10
Integration weight cutoff        WCut        ... 1.0000e-14
Partially contracted basis set               ... off
Rotationally invariant grid construction     ... off
Angular grids for H and He will be reduced by one unit

Total number of grid points                  ...    43307
Total number of batches                      ...      688
Average number of points per batch           ...       62
Average number of grid points per atom       ...     2279
Initializing property integral containers    ... done (  0.0 sec)

SHARK setup successfully completed in   0.6 seconds

Maximum memory used throughout the entire STARTUP-calculation: 21.4 MB
-------------------------------------------------------------------------------
                                 ORCA GUESS
                   Start orbitals & Density for SCF / CASSCF
-------------------------------------------------------------------------------

------------
SCF SETTINGS
------------
Hamiltonian:
 Density Functional     Method          .... DFT(GTOs)
 Exchange Functional    Exchange        .... PBE
   PBE kappa parameter   XKappa         ....  0.804000
   PBE mue parameter    XMuePBE         ....  0.219520
 Correlation Functional Correlation     .... PBE
   PBE beta parameter  CBetaPBE         ....  0.066725
 LDA part of GGA corr.  LDAOpt          .... PW91-LDA
 Gradients option       PostSCFGGA      .... off
   NL short-range parameter             ....  6.400000
 RI-approximation to the Coulomb term is turned on
   Number of AuxJ basis functions       .... 551


General Settings:
 Integral files         IntName         .... sp
 Hartree-Fock type      HFTyp           .... RHF
 Total Charge           Charge          ....    0
 Multiplicity           Mult            ....    1
 Number of Electrons    NEL             ....   66
 Basis Dimension        Dim             ....  146
 Nuclear Repulsion      ENuc            ....    433.0084151878 Eh

Convergence Acceleration:
 AO-DIIS                CNVDIIS         .... on
   Start iteration      DIISMaxIt       ....    12
   Startup error        DIISStart       ....  0.200000
   # of expansion vecs  DIISMaxEq       ....     5
   Bias factor          DIISBfac        ....   1.050
   Max. coefficient     DIISMaxC        ....  10.000
 MO-DIIS                CNVKDIIS        .... off
 Trust-Rad. Augm. Hess. CNVTRAH         .... auto
   Auto Start mean grad. ratio tolernc. ....  1.125000
   Auto Start start iteration           ....    50
   Auto Start num. interpolation iter.  ....    10
   Max. Number of Micro iterations      ....    24
   Max. Number of Macro iterations      .... Maxiter - #DIIS iter
   Number of Davidson start vectors     ....     2
   Converg. threshold    (grad. norm)   ....   1.000e-04
   Grad. Scal. Fac. for Micro threshold ....   0.100
   Minimum threshold for Micro iter.    ....   1.000e-02
   NR start threshold (gradient norm)   ....   1.000e-04
   Initial trust radius                 ....   0.400
   Minimum AH scaling param. (alpha)    ....   1.000
   Maximum AH scaling param. (alpha)    .... 1000.000
   Quad. conv. algorithm                .... NR
   White noise on init. David. guess    .... on
   Maximum white noise                  ....   0.010
   Pseudo random numbers                .... off
   Inactive MOs                         .... canonical
   Orbital update algorithm             .... Taylor
   Preconditioner                       .... Diag
   Full preconditioner red. dimension   ....   250
 SOSCF                  CNVSOSCF        .... on
   Start iteration      SOSCFMaxIt      ....   150
   Startup grad/error   SOSCFStart      ....  0.003300
   Hessian update       SOSCFHessUp     .... L-BFGS
 Level Shifting         CNVShift        .... on
   Level shift para.    LevelShift      ....    0.2500
   Turn off err/grad.   ShiftErr        ....    0.0010
 Zerner damping         CNVZerner       .... off
 Static damping         CNVDamp         .... on
   Fraction old density DampFac         ....    0.7000
   Max. Damping (<1)    DampMax         ....    0.9800
   Min. Damping (>=0)   DampMin         ....    0.0000
   Turn off err/grad.   DampErr         ....    0.1000

SCF Procedure:
 Maximum # iterations   MaxIter         ....   125
 SCF integral mode      SCFMode         .... Direct
   Integral package                     .... SHARK and LIBINT hybrid scheme
 Reset frequency        DirectResetFreq ....    20
 Integral Threshold     Thresh          ....  1.000e-09 Eh
 Primitive CutOff       TCut            ....  1.000e-10 Eh

Convergence Tolerance:
 Convergence Check Mode ConvCheckMode   .... Total+1el-Energy
 Convergence forced     ConvForced      .... 0
 Energy Change          TolE            ....  1.000e-05 Eh
 1-El. energy change                    ....  1.000e-02 Eh
 Orbital Gradient       TolG            ....  1.000e-04
 Orbital Rotation angle TolX            ....  1.000e-04
 DIIS Error             TolErr          ....  5.000e-04

------------------------------
INITIAL GUESS: MODEL POTENTIAL
------------------------------
Loading Hartree-Fock densities                     ... done
Calculating cut-offs                               ... done
Initializing the effective Hamiltonian             ... done
Setting up the integral package (SHARK)            ... done
Starting the Coulomb interaction                   ... done (   0.1 sec)
Making the grid                                    ... done (   0.2 sec)
Mapping shells                                     ... done
Starting the XC term evaluation                    ... done (   0.1 sec)
  promolecular density results
     # of electrons  =     65.990546297
     EX              =    -52.058300748
     EC              =     -2.187767904
     EX+EC           =    -54.246068652
Transforming the Hamiltonian                       ... done (   0.0 sec)
Diagonalizing the Hamiltonian                      ... done (   0.0 sec)
Back transforming the eigenvectors                 ... done (   0.0 sec)
Now organizing SCF variables                       ... done
                      ------------------
                      INITIAL GUESS DONE (   0.4 sec)
                      ------------------
             **** ENERGY FILE WAS UPDATED (sp.en.tmp) ****
Finished Guess after   0.6 sec
Maximum memory used throughout the entire GUESS-calculation: 16.6 MB

-------------------------------------------------------------------------------------------
                                      ORCA LEAN-SCF
                              memory conserving SCF solver
-------------------------------------------------------------------------------------------

----------------------------------------D-I-I-S--------------------------------------------
Iteration    Energy (Eh)           Delta-E    RMSDP     MaxDP     DIISErr   Damp  Time(sec)
-------------------------------------------------------------------------------------------
               ***  Starting incremental Fock matrix formation  ***
    1    -385.0863033386390839     0.00e+00  4.30e-03  7.80e-02  2.05e-01  0.700   0.7
    2    -385.1886541985919052    -1.02e-01  3.10e-03  4.58e-02  9.10e-02  0.700   0.7
                               ***Turning on AO-DIIS***
    3    -385.2266039227216083    -3.79e-02  1.23e-03  1.47e-02  2.61e-02  0.700   0.7
    4    -385.2484823346696317    -2.19e-02  1.93e-03  2.58e-02  1.18e-02  0.000   0.7
    5    -385.2971214985938673    -4.86e-02  5.41e-04  1.09e-02  1.10e-02  0.000   0.6
                              *** Initializing SOSCF ***
---------------------------------------S-O-S-C-F--------------------------------------
Iteration    Energy (Eh)           Delta-E    RMSDP     MaxDP     MaxGrad    Time(sec)
--------------------------------------------------------------------------------------
    6    -385.2975348194776757    -4.13e-04  1.86e-04  2.30e-03  1.98e-03     0.6
               *** Restarting incremental Fock matrix formation ***
    7    -385.2975713137790876    -3.65e-05  1.12e-04  2.08e-03  2.57e-04     0.7
    8    -385.2975679293916187     3.38e-06  5.29e-05  1.10e-03  7.47e-04     0.6
                 **** Energy Check signals convergence ****

               *****************************************************
               *                     SUCCESS                       *
               *           SCF CONVERGED AFTER   8 CYCLES          *
               *****************************************************

             **** ENERGY FILE WAS UPDATED (sp.en.tmp) ****

----------------
TOTAL SCF ENERGY
----------------

Total Energy       :       -385.29756792939162 Eh          -10484.47984 eV

Components:
Nuclear Repulsion  :        433.00841518778913 Eh           11782.75800 eV
Electronic Energy  :       -818.30598311718074 Eh          -22267.23785 eV
One Electron Energy:      -1379.49045369687224 Eh          -37537.84363 eV
Two Electron Energy:        561.18447057969149 Eh           15270.60579 eV

Virial components:
Potential Energy   :       -767.33079871788925 Eh          -20880.13256 eV
Kinetic Energy     :        382.03323078849763 Eh           10395.65271 eV
Virial Ratio       :          2.00854464187358

DFT components:
N(Alpha)           :       33.000153905036 electrons
N(Beta)            :       33.000153905036 electrons
N(Total)           :       66.000307810072 electrons
E(X)               :      -53.051723601082 Eh       
E(C)               :       -2.202404558032 Eh       
E(XC)              :      -55.254128159115 Eh       

---------------
SCF CONVERGENCE
---------------

  Last Energy change         ...   -3.3844e-06  Tolerance :   1.0000e-05
  Last MAX-Density change    ...    1.1045e-03  Tolerance :   1.0000e-03
  Last RMS-Density change    ...    5.2915e-05  Tolerance :   1.0000e-04
  Last DIIS Error            ...    1.9835e-03  Tolerance :   5.0000e-04
  Last Orbital Gradient      ...    7.4740e-04  Tolerance :   1.0000e-04
  Last Orbital Rotation      ...    1.5010e-03  Tolerance :   1.0000e-04


----------------
ORBITAL ENERGIES
----------------

  NO   OCC          E(Eh)            E(eV) 
   0   2.0000     -18.776885      -510.9450 
   1   2.0000      -9.942714      -270.5550 
   2   2.0000      -9.897982      -269.3378 
   3   2.0000      -9.896164      -269.2883 
   4   2.0000      -9.895216      -269.2625 
   5   2.0000      -9.883634      -268.9474 
   6   2.0000      -9.883562      -268.9454 
   7   2.0000      -9.876912      -268.7645 
   8   2.0000      -9.876386      -268.7501 
   9   2.0000      -0.957448       -26.0535 
  10   2.0000      -0.771903       -21.0046 
  11   2.0000      -0.702191       -19.1076 
  12   2.0000      -0.679077       -18.4786 
  13   2.0000      -0.630018       -17.1437 
  14   2.0000      -0.604161       -16.4401 
  15   2.0000      -0.543301       -14.7840 
  16   2.0000      -0.515339       -14.0231 
  17   2.0000      -0.482987       -13.1427 
  18   2.0000      -0.440803       -11.9949 
  19   2.0000      -0.413071       -11.2402 
  20   2.0000      -0.399091       -10.8598 
  21   2.0000      -0.371051       -10.0968 
  22   2.0000      -0.369942       -10.0666 
  23   2.0000      -0.358681        -9.7602 
  24   2.0000      -0.355729        -9.6799 
  25   2.0000      -0.353406        -9.6167 
  26   2.0000      -0.342958        -9.3324 
  27   2.0000      -0.320672        -8.7259 
  28   2.0000      -0.303665        -8.2631 
  29   2.0000      -0.284631        -7.7452 
  30   2.0000      -0.284113        -7.7311 
  31   2.0000      -0.211253        -5.7485 
  32   2.0000      -0.187459        -5.1010 
  33   0.0000      -0.026447        -0.7197 
  34   0.0000      -0.011335        -0.3085 
  35   0.0000       0.018670         0.5080 
  36   0.0000       0.054335         1.4785 
  37   0.0000       0.064748         1.7619 
  38   0.0000       0.085785         2.3343 
  39   0.0000       0.090416         2.4603 
  40   0.0000       0.103416         2.8141 
  41   0.0000       0.111945         3.0462 
  42   0.0000       0.119541         3.2529 
  43   0.0000       0.131327         3.5736 
*Only the first 10 virtual orbitals were printed.

                    ********************************
                    * MULLIKEN POPULATION ANALYSIS *
                    ********************************

-----------------------
MULLIKEN ATOMIC CHARGES
-----------------------
   0 C :   -0.242648
   1 C :   -0.017382
   2 C :   -0.134700
   3 C :   -0.037205
   4 C :   -0.128491
   5 C :    0.141255
   6 C :   -0.050556
   7 C :   -0.299024
   8 O :   -0.336944
   9 H :    0.116783
  10 H :    0.101877
  11 H :    0.116997
  12 H :    0.027006
  13 H :    0.047293
  14 H :    0.038566
  15 H :    0.119294
  16 H :    0.109912
  17 H :    0.119008
  18 H :    0.308960
Sum of atomic charges:    0.0000000

--------------------------------
MULLIKEN REDUCED ORBITAL CHARGES
--------------------------------
  0 C s       :     3.022429  s :     3.022429
      pz      :     1.059460  p :     3.191182
      px      :     1.060412
      py      :     1.071311
      dz2     :     0.005092  d :     0.029036
      dxz     :     0.003265
      dyz     :     0.008508
      dx2y2   :     0.004200
      dxy     :     0.007971

  1 C s       :     3.058617  s :     3.058617
      pz      :     0.981263  p :     2.916702
      px      :     1.031436
      py      :     0.904003
      dz2     :     0.002707  d :     0.042063
      dxz     :     0.006303
      dyz     :     0.007441
      dx2y2   :     0.012631
      dxy     :     0.012981

  2 C s       :     3.257247  s :     3.257247
      pz      :     1.047910  p :     2.842949
      px      :     0.817279
      py      :     0.977759
      dz2     :     0.003174  d :     0.034504
      dxz     :     0.003292
      dyz     :     0.005048
      dx2y2   :     0.010031
      dxy     :     0.012959

  3 C s       :     3.187177  s :     3.187177
      pz      :     0.992097  p :     2.813929
      px      :     0.981156
      py      :     0.840676
      dz2     :     0.003108  d :     0.036100
      dxz     :     0.007767
      dyz     :     0.001976
      dx2y2   :     0.014047
      dxy     :     0.009202

  4 C s       :     3.293955  s :     3.293955
      pz      :     1.050576  p :     2.801956
      px      :     0.766912
      py      :     0.984467
      dz2     :     0.003223  d :     0.032580
      dxz     :     0.003018
      dyz     :     0.005378
      dx2y2   :     0.011895
      dxy     :     0.009066

  5 C s       :     2.979636  s :     2.979636
      pz      :     0.986745  p :     2.807815
      px      :     0.894246
      py      :     0.926824
      dz2     :     0.004987  d :     0.071295
      dxz     :     0.014013
      dyz     :     0.009605
      dx2y2   :     0.020848
      dxy     :     0.021841

  6 C s       :     3.062256  s :     3.062256
      pz      :     1.070767  p :     2.949490
      px      :     0.951259
      py      :     0.927464
      dz2     :     0.002821  d :     0.038809
      dxz     :     0.006034
      dyz     :     0.006021
      dx2y2   :     0.011541
      dxy     :     0.012391

  7 C s       :     3.051411  s :     3.051411
      pz      :     1.052423  p :     3.218357
      px      :     1.096100
      py      :     1.069834
      dz2     :     0.004962  d :     0.029256
      dxz     :     0.004971
      dyz     :     0.007548
      dx2y2   :     0.005943
      dxy     :     0.005832

  8 O s       :     3.747237  s :     3.747237
      pz      :     1.823539  p :     4.573461
      px      :     1.508994
      py      :     1.240928
      dz2     :     0.002750  d :     0.016246
      dxz     :     0.002549
      dyz     :     0.000530
      dx2y2   :     0.007050
      dxy     :     0.003367

  9 H s       :     0.883217  s :     0.883217

 10 H s       :     0.898123  s :     0.898123

 11 H s       :     0.883003  s :     0.883003

 12 H s       :     0.972994  s :     0.972994

 13 H s       :     0.952707  s :     0.952707

 14 H s       :     0.961434  s :     0.961434

 15 H s       :     0.880706  s :     0.880706

 16 H s       :     0.890088  s :     0.890088

 17 H s       :     0.880992  s :     0.880992

 18 H s       :     0.691040  s :     0.691040


------------------------
MULLIKEN OVERLAP CHARGES
------------------------
B(  0-C ,  1-C ) :   0.8508 B(  0-C ,  2-C ) :  -0.2033 B(  0-C ,  6-C ) :  -0.2019 
B(  0-C ,  7-C ) :  -0.0572 B(  0-C ,  9-H ) :   0.6965 B(  0-C , 10-H ) :   0.7055 
B(  0-C , 11-H ) :   0.6964 B(  0-C , 12-H ) :  -0.0524 B(  1-C ,  2-C ) :   0.4757 
B(  1-C ,  3-C ) :   0.3463 B(  1-C ,  4-C ) :  -0.3525 B(  1-C ,  5-C ) :   0.3358 
B(  1-C ,  6-C ) :   0.4661 B(  1-C ,  7-C ) :  -0.1388 B(  1-C , 12-H ) :  -0.1619 
B(  2-C ,  3-C ) :   0.2457 B(  2-C ,  4-C ) :   0.3608 B(  2-C ,  5-C ) :  -0.4115 
B(  2-C ,  6-C ) :   0.2295 B(  2-C , 12-H ) :   0.8687 B(  2-C , 13-H ) :  -0.1856 
B(  3-C ,  4-C ) :   0.2388 B(  3-C ,  5-C ) :   0.4083 B(  3-C ,  6-C ) :  -0.3721 
B(  3-C , 12-H ) :  -0.1921 B(  3-C , 13-H ) :   0.9055 B(  3-C , 14-H ) :  -0.1988 
B(  4-C ,  5-C ) :   0.4188 B(  4-C ,  6-C ) :   0.0650 B(  4-C ,  8-O ) :  -0.1634 
B(  4-C , 13-H ) :  -0.2000 B(  4-C , 14-H ) :   0.8415 B(  5-C ,  6-C ) :   0.0770 
B(  5-C ,  7-C ) :  -0.1733 B(  5-C ,  8-O ) :   0.9092 B(  5-C , 14-H ) :  -0.1555 
B(  5-C , 18-H ) :  -0.0523 B(  6-C ,  7-C ) :   0.7388 B(  6-C ,  8-O ) :  -0.2319 
B(  6-C , 14-H ) :   0.0566 B(  6-C , 15-H ) :  -0.0512 B(  6-C , 17-H ) :  -0.0521 
B(  6-C , 18-H ) :  -0.0525 B(  7-C , 15-H ) :   0.7115 B(  7-C , 16-H ) :   0.6839 
B(  7-C , 17-H ) :   0.7113 B(  8-O , 18-H ) :   0.5442 B(  9-H , 11-H ) :  -0.0582 
B( 15-H , 17-H ) :  -0.0791 


                     *******************************
                     * LOEWDIN POPULATION ANALYSIS *
                     *******************************

----------------------
LOEWDIN ATOMIC CHARGES
----------------------
   0 C :   -0.324443
   1 C :   -0.044133
   2 C :   -0.151486
   3 C :   -0.119643
   4 C :   -0.153501
   5 C :    0.028276
   6 C :   -0.094862
   7 C :   -0.339034
   8 O :   -0.237218
   9 H :    0.129456
  10 H :    0.125929
  11 H :    0.129490
  12 H :    0.117981
  13 H :    0.122995
  14 H :    0.128396
  15 H :    0.127818
  16 H :    0.133522
  17 H :    0.127625
  18 H :    0.292831

-------------------------------
LOEWDIN REDUCED ORBITAL CHARGES
-------------------------------
  0 C s       :     2.935886  s :     2.935886
      pz      :     1.120625  p :     3.317597
      px      :     1.079286
      py      :     1.117686
      dz2     :     0.013125  d :     0.070960
      dxz     :     0.006511
      dyz     :     0.020785
      dx2y2   :     0.010063
      dxy     :     0.020476

  1 C s       :     2.848774  s :     2.848774
      pz      :     0.964993  p :     3.084714
      px      :     1.042477
      py      :     1.077244
      dz2     :     0.007076  d :     0.110644
      dxz     :     0.012488
      dyz     :     0.015476
      dx2y2   :     0.037516
      dxy     :     0.038089

  2 C s       :     2.887072  s :     2.887072
      pz      :     1.040081  p :     3.172756
      px      :     1.066528
      py      :     1.066148
      dz2     :     0.007145  d :     0.091657
      dxz     :     0.006501
      dyz     :     0.010925
      dx2y2   :     0.030431
      dxy     :     0.036655

  3 C s       :     2.887076  s :     2.887076
      pz      :     0.982891  p :     3.137807
      px      :     1.092848
      py      :     1.062068
      dz2     :     0.007072  d :     0.094760
      dxz     :     0.017412
      dyz     :     0.003252
      dx2y2   :     0.038479
      dxy     :     0.028546

  4 C s       :     2.891425  s :     2.891425
      pz      :     1.039611  p :     3.174302
      px      :     1.071095
      py      :     1.063596
      dz2     :     0.007337  d :     0.087774
      dxz     :     0.005588
      dyz     :     0.011543
      dx2y2   :     0.034758
      dxy     :     0.028548

  5 C s       :     2.839532  s :     2.839532
      pz      :     0.976840  p :     2.961169
      px      :     0.941974
      py      :     1.042354
      dz2     :     0.011318  d :     0.171023
      dxz     :     0.028785
      dyz     :     0.019512
      dx2y2   :     0.054655
      dxy     :     0.056754

  6 C s       :     2.849561  s :     2.849561
      pz      :     1.043765  p :     3.140437
      px      :     1.065137
      py      :     1.031536
      dz2     :     0.007541  d :     0.104864
      dxz     :     0.012696
      dyz     :     0.010871
      dx2y2   :     0.037237
      dxy     :     0.036519

  7 C s       :     2.934269  s :     2.934269
      pz      :     1.116807  p :     3.333244
      px      :     1.137369
      py      :     1.079067
      dz2     :     0.012859  d :     0.071521
      dxz     :     0.011916
      dyz     :     0.016970
      dx2y2   :     0.016320
      dxy     :     0.013456

  8 O s       :     3.507413  s :     3.507413
      pz      :     1.816921  p :     4.701352
      px      :     1.565057
      py      :     1.319374
      dz2     :     0.004370  d :     0.028453
      dxz     :     0.003316
      dyz     :     0.001077
      dx2y2   :     0.012961
      dxy     :     0.006729

  9 H s       :     0.870544  s :     0.870544

 10 H s       :     0.874071  s :     0.874071

 11 H s       :     0.870510  s :     0.870510

 12 H s       :     0.882019  s :     0.882019

 13 H s       :     0.877005  s :     0.877005

 14 H s       :     0.871604  s :     0.871604

 15 H s       :     0.872182  s :     0.872182

 16 H s       :     0.866478  s :     0.866478

 17 H s       :     0.872375  s :     0.872375

 18 H s       :     0.707169  s :     0.707169


---------------------------------
LOEWDIN BOND ORDERS (THRESH 0.050000)
---------------------------------
B(  0-C ,  1-C ) :   1.0908 B(  0-C ,  2-C ) :   0.0769 B(  0-C ,  6-C ) :   0.0685 
B(  0-C ,  9-H ) :   0.9238 B(  0-C , 10-H ) :   0.9279 B(  0-C , 11-H ) :   0.9237 
B(  1-C ,  2-C ) :   1.4403 B(  1-C ,  3-C ) :   0.0869 B(  1-C ,  4-C ) :   0.1074 
B(  1-C ,  5-C ) :   0.0899 B(  1-C ,  6-C ) :   1.3932 B(  1-C ,  7-C ) :   0.0672 
B(  2-C ,  3-C ) :   1.4920 B(  2-C ,  4-C ) :   0.0915 B(  2-C ,  5-C ) :   0.0994 
B(  2-C ,  6-C ) :   0.0852 B(  2-C , 12-H ) :   0.8824 B(  3-C ,  4-C ) :   1.5161 
B(  3-C ,  5-C ) :   0.0909 B(  3-C ,  6-C ) :   0.1051 B(  3-C , 13-H ) :   0.8871 
B(  4-C ,  5-C ) :   1.4100 B(  4-C ,  6-C ) :   0.0853 B(  4-C ,  8-O ) :   0.1045 
B(  4-C , 14-H ) :   0.8814 B(  5-C ,  6-C ) :   1.3638 B(  5-C ,  7-C ) :   0.0721 
B(  5-C ,  8-O ) :   1.3222 B(  6-C ,  7-C ) :   1.0855 B(  6-C ,  8-O ) :   0.1076 
B(  7-C , 15-H ) :   0.9208 B(  7-C , 16-H ) :   0.9188 B(  7-C , 17-H ) :   0.9207 
B(  8-O , 18-H ) :   0.8674 

------------------------------------------
LOEWDIN REDUCED ORBITAL POPULATIONS PER MO
-------------------------------------------
THRESHOLD FOR PRINTING IS 0.1%%
                      0         1         2         3         4         5   
                 -18.77688  -9.94271  -9.89798  -9.89616  -9.89522  -9.88363
                   2.00000   2.00000   2.00000   2.00000   2.00000   2.00000
                  --------  --------  --------  --------  --------  --------
 0 C  s               0.0       0.0       0.0       0.0       0.0       6.5
 1 C  s               0.0       0.0      99.4       0.0       0.1       0.0
 2 C  px              0.0       0.0       0.0       0.0       0.0       0.1
 2 C  py              0.0       0.0       0.1       0.0       0.0       0.0
 3 C  s               0.0       0.0       0.0       0.0       0.0      93.0
 4 C  px              0.0       0.0       0.0       0.0       0.0       0.1
 4 C  py              0.0       0.1       0.0       0.0       0.0       0.0
 5 C  s               0.0      99.5       0.0       0.0       0.0       0.0
 5 C  px              0.0       0.0       0.0       0.0       0.1       0.0
 6 C  s               0.0       0.0       0.1       0.0      99.4       0.0
 6 C  px              0.0       0.1       0.1       0.0       0.0       0.0
 6 C  py              0.0       0.0       0.0       0.1       0.0       0.0
 7 C  s               0.0       0.0       0.0      99.7       0.0       0.0
 7 C  py              0.0       0.0       0.0       0.0       0.1       0.0
 8 O  s              99.9       0.0       0.0       0.0       0.0       0.0
 8 O  px              0.0       0.1       0.0       0.0       0.0       0.0

                      6         7         8         9        10        11   
                  -9.88356  -9.87691  -9.87639  -0.95745  -0.77190  -0.70219
                   2.00000   2.00000   2.00000   2.00000   2.00000   2.00000
                  --------  --------  --------  --------  --------  --------
 0 C  s              93.2       0.0       0.0       0.0       3.5       5.5
 0 C  px              0.0       0.0       0.0       0.0       1.4       0.6
 0 C  py              0.0       0.0       0.0       0.0       0.3       0.0
 1 C  s               0.0       0.0       0.0       0.1      16.0       4.0
 1 C  px              0.1       0.0       0.0       0.1       1.1       0.2
 1 C  py              0.0       0.0       0.1       0.0       0.1       4.2
 1 C  dz2             0.0       0.0       0.0       0.0       0.2       0.0
 2 C  s               0.0       0.0      99.5       0.0      11.1       1.7
 2 C  px              0.0       0.0       0.0       0.0       1.1       2.6
 2 C  py              0.0       0.0       0.0       0.0       1.4       2.2
 2 C  dz2             0.0       0.0       0.0       0.0       0.1       0.0
 3 C  s               6.5       0.1       0.1       0.1       8.7      12.4
 3 C  px              0.0       0.1       0.1       0.0       0.1       0.6
 3 C  py              0.0       0.0       0.0       0.1       2.2       0.7
 3 C  dz2             0.0       0.0       0.0       0.0       0.1       0.1
 4 C  s               0.0      99.5       0.0       0.8       7.5      12.7
 4 C  px              0.0       0.0       0.0       0.0       2.0       1.0
 4 C  py              0.0       0.0       0.0       1.3       0.3       0.2
 4 C  dz2             0.0       0.0       0.0       0.0       0.1       0.1
 5 C  s               0.0       0.0       0.0      10.7       6.3       1.0
 5 C  px              0.0       0.0       0.0       6.2       4.9       1.0
 5 C  py              0.0       0.1       0.0       3.0       0.9       6.7
 5 C  dz2             0.0       0.0       0.0       0.4       0.1       0.0
 5 C  dx2y2           0.0       0.0       0.0       0.1       0.0       0.1
 5 C  dxy             0.0       0.0       0.0       0.6       0.1       0.0
 6 C  s               0.0       0.0       0.0       1.0      14.3       7.1
 6 C  px              0.0       0.0       0.0       1.4       0.3       1.4
 6 C  py              0.0       0.0       0.0       0.0       1.3       3.4
 6 C  dz2             0.0       0.0       0.0       0.0       0.2       0.1
 7 C  s               0.0       0.0       0.0       0.1       3.1      12.2
 7 C  py              0.0       0.0       0.0       0.1       1.4       0.7
 8 O  s               0.0       0.0       0.0      57.9       1.8       0.0
 8 O  px              0.0       0.0       0.0       3.2       0.2       0.0
 8 O  py              0.0       0.0       0.0       0.3       0.6       0.8
 9 H  s               0.1       0.0       0.0       0.0       0.6       1.2
10 H  s               0.1       0.0       0.0       0.0       0.6       0.9
11 H  s               0.1       0.0       0.0       0.0       0.6       1.2
12 H  s               0.0       0.0       0.1       0.0       1.5       0.2
13 H  s               0.0       0.0       0.0       0.0       1.1       2.1
14 H  s               0.0       0.1       0.0       0.2       0.9       2.2
15 H  s               0.0       0.0       0.0       0.0       0.5       2.5
16 H  s               0.0       0.0       0.0       0.0       0.7       3.0
17 H  s               0.0       0.0       0.0       0.1       0.5       2.5
18 H  s               0.0       0.0       0.0      11.6       0.5       0.3

                     12        13        14        15        16        17   
                  -0.67908  -0.63002  -0.60416  -0.54330  -0.51534  -0.48299
                   2.00000   2.00000   2.00000   2.00000   2.00000   2.00000
                  --------  --------  --------  --------  --------  --------
 0 C  s              12.3       8.1      12.0       0.1       4.0       0.4
 0 C  px              0.3       0.0       0.9       0.1       5.0       3.2
 0 C  py              0.5       0.0       0.5       0.6       0.8       1.0
 1 C  s               7.7       0.4       2.8       0.1       6.5       0.9
 1 C  px              6.0       1.1       7.8       2.3       0.2       1.2
 1 C  py              1.7       3.5       1.7       7.1       0.2       9.0
 1 C  dx2y2           0.0       0.2       0.0       0.2       0.1       0.0
 1 C  dxy             0.1       0.0       0.1       0.0       0.0       0.0
 2 C  s               8.4       8.3       1.8       8.0       0.1       0.6
 2 C  px              0.4       1.1       0.2       3.1       0.8       1.6
 2 C  py              0.8       2.0       2.3       0.2       8.8       1.9
 2 C  dx2y2           0.0       0.0       0.1       0.0       0.1       0.0
 3 C  s               0.4       7.9       4.3       1.5       3.2       3.8
 3 C  px              3.1       3.6       4.1       6.7       3.4       0.2
 3 C  py              0.0       0.1       0.3       0.0       1.9       6.7
 3 C  dxy             0.1       0.1       0.1       0.1       0.0       0.0
 4 C  s               2.9       2.1       7.6       1.0       4.7       1.3
 4 C  px              0.1       2.1       0.0       2.3       3.2       0.2
 4 C  py              1.5       5.3       2.2       4.5       0.0       2.9
 4 C  dx2y2           0.1       0.2       0.0       0.1       0.0       0.0
 4 C  dxy             0.0       0.0       0.1       0.0       0.0       0.2
 5 C  s               6.7       7.8       0.6       2.3       2.3       0.6
 5 C  px              1.7       0.1       3.1       7.4       4.0       7.0
 5 C  py              0.1       1.8       2.7       0.0       9.3       2.2
 5 C  dx2y2           0.0       0.0       0.2       0.0       0.0       0.5
 5 C  dxy             0.2       0.0       0.0       0.0       0.0       0.1
 6 C  s               5.5       0.1       4.1       2.8       1.2       1.4
 6 C  px              4.9       0.3       0.0       1.2      13.9       9.7
 6 C  py              1.9       4.3       6.5       1.2       0.0       0.8
 6 C  dx2y2           0.0       0.2       0.1       0.0       0.1       0.1
 6 C  dxy             0.1       0.0       0.0       0.0       0.2       0.1
 7 C  s               9.6       9.1       7.5       2.8       1.2       0.3
 7 C  px              0.2       0.1       0.1       0.0       1.4       3.8
 7 C  py              0.4       0.4       1.6       1.9       1.9       2.9
 8 O  s               2.2       0.6       0.0       0.2       1.2       0.8
 8 O  px              0.9       1.2       0.1       3.9       3.7       1.1
 8 O  py              1.5       6.3       0.0      21.4       0.0      15.9
 8 O  dx2y2           0.0       0.0       0.0       0.1       0.1       0.1
 8 O  dxy             0.0       0.1       0.0       0.2       0.0       0.1
 9 H  s               2.3       2.0       4.0       0.1       2.1       0.0
10 H  s               3.1       1.9       3.3       0.1       2.5       2.0
11 H  s               2.3       2.0       4.0       0.1       2.1       0.0
12 H  s               2.1       1.9       0.2       5.0       0.3       0.5
13 H  s               0.1       2.1       1.6       0.6       2.5       5.9
14 H  s               0.5       0.6       2.7       0.1       3.9       0.0
15 H  s               2.2       2.9       2.4       1.2       0.4       1.5
16 H  s               1.5       2.0       3.5       1.0       1.6       0.1
17 H  s               2.2       2.9       2.4       1.2       0.4       1.5
18 H  s               1.0       2.7       0.0       7.0       0.1       5.4

                     18        19        20        21        22        23   
                  -0.44080  -0.41307  -0.39909  -0.37105  -0.36994  -0.35868
                   2.00000   2.00000   2.00000   2.00000   2.00000   2.00000
                  --------  --------  --------  --------  --------  --------
 0 C  s               0.3       0.0       0.0       0.0       0.0       0.1
 0 C  pz              0.0       0.0       9.1       0.0      40.8       0.0
 0 C  px              0.9       0.0       0.0       6.2       0.0       8.7
 0 C  py              6.9       2.5       0.0       1.3       0.0       0.2
 0 C  dyz             0.0       0.0       0.1       0.0       0.5       0.0
 1 C  s               0.7       1.7       0.0       1.1       0.0       0.2
 1 C  pz              0.0       0.0       6.4       0.0       6.4       0.0
 1 C  px              4.4       0.4       0.0       1.9       0.0       9.8
 1 C  py              0.6       3.6       0.0       2.0       0.0       0.2
 1 C  dxz             0.0       0.0       0.0       0.0       0.2       0.0
 1 C  dx2y2           0.0       0.0       0.0       0.3       0.0       0.0
 1 C  dxy             0.1       0.2       0.0       0.0       0.0       0.0
 2 C  s               0.1       1.9       0.0       1.6       0.0       0.0
 2 C  pz              0.0       0.0       1.3       0.0       1.2       0.0
 2 C  px             12.9       4.3       0.0       2.4       0.0       3.0
 2 C  py              0.3      16.0       0.0       0.7       0.0       0.1
 2 C  dx2y2           0.1       0.1       0.0       0.1       0.0       0.2
 2 C  dxy             0.0       0.1       0.0       0.0       0.0       0.0
 3 C  s               0.1       1.3       0.0       0.3       0.0       0.1
 3 C  pz              0.0       0.0       0.7       0.0       0.1       0.0
 3 C  px              5.8       6.4       0.0       0.0       0.0       3.7
 3 C  py              6.7       0.7       0.0      19.0       0.0       4.1
 3 C  dx2y2           0.0       0.1       0.0       0.5       0.0       0.0
 3 C  dxy             0.0       0.0       0.0       0.0       0.0       0.3
 4 C  s               1.7       1.0       0.0       0.6       0.0       0.3
 4 C  pz              0.0       0.0       1.4       0.0       0.0       0.0
 4 C  px              5.9       8.5       0.0       0.4       0.0      11.8
 4 C  py              9.3       4.5       0.0       5.8       0.0       0.1
 4 C  dx2y2           0.0       0.0       0.0       0.7       0.0       0.0
 4 C  dxy             0.0       0.3       0.0       0.0       0.0       0.1
 5 C  s               0.0       0.2       0.0       2.8       0.0       0.6
 5 C  pz              0.0       0.0       6.7       0.0       0.5       0.0
 5 C  px              0.0       0.6       0.0       1.4       0.0       0.1
 5 C  py              4.3       6.0       0.0       2.2       0.0       0.2
 5 C  dx2y2           0.0       0.2       0.0       0.0       0.0       0.3
 5 C  dxy             0.2       0.4       0.0       0.0       0.0       0.2
 6 C  s               0.9       1.6       0.0       0.8       0.0       0.4
 6 C  pz              0.0       0.0      13.0       0.0       0.3       0.0
 6 C  px              2.2       0.8       0.0       0.1       0.0       0.9
 6 C  py              2.5       0.8       0.0       9.6       0.0       3.7
 6 C  dx2y2           0.0       0.0       0.0       0.2       0.0       0.0
 6 C  dxy             0.0       0.1       0.0       0.1       0.0       0.5
 7 C  s               0.2       0.1       0.0       0.0       0.0       0.0
 7 C  pz              0.0       0.0      31.7       0.0      12.3       0.0
 7 C  px              4.2       2.9       0.0       0.0       0.0      16.6
 7 C  py              4.2       4.1       0.0      14.6       0.0       1.9
 7 C  dz2             0.0       0.1       0.0       0.0       0.0       0.2
 7 C  dxz             0.0       0.0       0.3       0.0       0.2       0.0
 7 C  dx2y2           0.1       0.0       0.0       0.2       0.0       0.0
 7 C  dxy             0.0       0.0       0.0       0.0       0.0       0.2
 8 O  s               1.0       0.0       0.0       0.1       0.0       0.3
 8 O  pz              0.0       0.0       3.8       0.0       0.8       0.0
 8 O  px              1.8       5.7       0.0       0.1       0.0       4.2
 8 O  py              0.5       3.0       0.0       1.0       0.0       1.4
 9 H  s               1.7       0.3       2.8       0.6      13.4       0.3
10 H  s               0.2       0.2       0.0       0.6       0.0       1.9
11 H  s               1.7       0.3       2.8       0.6      13.3       0.3
12 H  s               3.0      11.5       0.0       0.2       0.0       1.5
13 H  s               2.3       0.1       0.0      13.2       0.0       1.9
14 H  s               7.7       3.1       0.0       2.8       0.0       5.1
15 H  s               0.0       1.3      10.0       1.0       4.9       3.4
16 H  s               3.8       0.2       0.0       1.1       0.0       6.9
17 H  s               0.0       1.3       9.8       1.0       4.9       3.4
18 H  s               0.1       1.2       0.0       0.5       0.0       0.3

                     24        25        26        27        28        29   
                  -0.35573  -0.35341  -0.34296  -0.32067  -0.30366  -0.28463
                   2.00000   2.00000   2.00000   2.00000   2.00000   2.00000
                  --------  --------  --------  --------  --------  --------
 0 C  s               0.2       0.1       0.0       0.0       0.0       0.4
 0 C  pz              0.0       0.0       1.6       0.0       0.0       0.0
 0 C  px              4.1      13.9       0.0       0.5       1.9       6.2
 0 C  py              6.8      17.4       0.0      12.0       1.1       3.9
 0 C  dz2             0.1       0.2       0.0       0.1       0.0       0.0
 0 C  dx2y2           0.1       0.0       0.0       0.1       0.1       0.0
 0 C  dxy             0.0       0.4       0.0       0.1       0.2       0.0
 1 C  s               0.1       0.5       0.0       0.1       0.0       0.0
 1 C  pz              0.0       0.0       0.5       0.0       0.0       0.1
 1 C  px              5.3       0.8       0.0       0.1       4.9       4.2
 1 C  py              4.5       0.8       0.0       0.5      10.4       3.5
 1 C  dx2y2           0.0       0.1       0.0       0.1       0.2       0.6
 1 C  dxy             0.0       0.4       0.0       0.0       0.5       0.3
 2 C  s               0.3       0.5       0.0       0.1       0.2       0.0
 2 C  pz              0.0       0.0       1.6       0.0       0.0       0.3
 2 C  px              1.2       1.0       0.0      10.1       3.9       3.3
 2 C  py              1.9       0.2       0.0       0.2       9.3       4.8
 2 C  dx2y2           0.1       0.0       0.0       0.0       0.3       0.2
 2 C  dxy             0.2       0.0       0.0       0.4       0.8       0.1
 3 C  s               0.4       0.1       0.0       0.1       0.1       0.1
 3 C  pz              0.0       0.0       3.7       0.0       0.0       0.3
 3 C  px              1.1       1.5       0.0       9.1       2.4       2.7
 3 C  py              1.6       0.9       0.0       0.0       3.8       4.3
 3 C  dx2y2           0.0       0.1       0.0       0.0       0.4       0.6
 3 C  dxy             0.0       0.0       0.0       0.2       0.3       0.0
 4 C  s               0.1       0.2       0.0       0.0       0.3       0.2
 4 C  pz              0.0       0.0       9.9       0.0       0.0       0.1
 4 C  px              3.5       1.9       0.0       5.8       2.8       1.8
 4 C  py              5.8       0.1       0.0       1.5       2.2       5.5
 4 C  dyz             0.0       0.0       0.1       0.0       0.0       0.0
 4 C  dx2y2           0.0       0.1       0.0       0.0       0.0       0.5
 4 C  dxy             0.1       0.0       0.0       0.1       0.1       0.3
 5 C  s               0.1       0.1       0.0       0.1       0.3       0.0
 5 C  pz              0.0       0.0      25.4       0.0       0.0       0.0
 5 C  px              0.8       0.6       0.0       1.5       1.1       5.2
 5 C  py              5.2       0.5       0.0       0.1       0.5       6.1
 5 C  dxz             0.0       0.0       0.2       0.0       0.0       0.0
 5 C  dx2y2           0.2       0.2       0.0       0.4       0.1       0.5
 5 C  dxy             0.0       0.0       0.0       0.0       0.7       0.3
 6 C  s               0.0       1.3       0.0       0.2       0.1       0.1
 6 C  pz              0.0       0.0       1.6       0.0       0.0       0.0
 6 C  px              0.8       0.1       0.0       1.1       7.9       6.0
 6 C  py              6.7       0.0       0.0       0.2       5.0       3.2
 6 C  dxz             0.0       0.0       0.1       0.0       0.0       0.0
 6 C  dyz             0.0       0.0       0.2       0.0       0.0       0.0
 6 C  dx2y2           0.1       0.2       0.0       0.0       0.3       0.5
 6 C  dxy             0.0       0.1       0.0       0.0       0.2       0.2
 7 C  s               0.1       0.3       0.0       0.0       0.2       0.1
 7 C  pz              0.0       0.0      10.6       0.0       0.0       0.0
 7 C  px             15.0       7.5       0.0       3.1       1.3       0.5
 7 C  py              6.2       0.7       0.0       0.0       5.4       5.2
 7 C  dyz             0.0       0.0       0.1       0.0       0.0       0.0
 7 C  dx2y2           0.2       0.0       0.0       0.0       0.0       0.0
 7 C  dxy             0.2       0.0       0.0       0.0       0.2       0.1
 8 O  s               0.2       3.1       0.0       4.2       0.3       1.5
 8 O  pz              0.0       0.0      34.7       0.0       0.0       0.4
 8 O  px              3.2      12.3       0.0      18.5       8.9       8.8
 8 O  py              0.6       2.6       0.0       7.7       0.0       2.2
 8 O  dxz             0.0       0.0       0.1       0.0       0.0       0.0
 9 H  s               1.7       2.1       0.7       2.2       0.3       1.2
10 H  s               0.1      17.5       0.0       5.6       3.1       0.0
11 H  s               1.7       2.2       0.7       2.2       0.3       0.6
12 H  s               0.3       0.2       0.0       5.3      10.3       0.2
13 H  s               0.4       1.0       0.0       0.0       4.1       4.7
14 H  s               4.3       1.5       0.0       2.0       0.4       5.5
15 H  s               0.6       0.9       4.0       0.4       1.1       0.0
16 H  s              13.0       2.2       0.0       1.4       0.5       1.0
17 H  s               0.6       1.0       3.9       0.4       1.2       0.0
18 H  s               0.2       0.9       0.0       2.2       0.0       1.3

                     30        31        32        33        34        35   
                  -0.28411  -0.21125  -0.18746  -0.02645  -0.01134   0.01867
                   2.00000   2.00000   2.00000   0.00000   0.00000   0.00000
                  --------  --------  --------  --------  --------  --------
 0 C  s               0.0       0.0       0.0       0.0       0.0       2.5
 0 C  pz              3.0       1.5       0.1       0.3       0.0       0.0
 0 C  px              0.1       0.0       0.0       0.0       0.0       0.1
 0 C  py              0.1       0.0       0.0       0.0       0.0       0.4
 0 C  dxz             0.1       0.2       0.0       0.3       0.3       0.0
 0 C  dyz             0.2       0.2       0.1       0.5       0.1       0.0
 1 C  pz              9.3      22.6       3.0      18.8      11.4       0.0
 1 C  dxz             0.1       0.2       0.1       0.5       0.0       0.0
 1 C  dyz             0.2       0.0       0.5       0.2       1.0       0.0
 2 C  pz             22.2       0.2      25.2       0.2      28.5       0.0
 2 C  dxz             0.1       0.2       0.0       0.5       0.2       0.0
 2 C  dyz             0.0       0.5       0.0       1.1       0.2       0.0
 3 C  s               0.0       0.0       0.0       0.0       0.0       0.3
 3 C  pz             21.5      20.1       2.8      24.4       6.0       0.0
 3 C  dxz             0.0       0.2       0.6       0.3       1.2       0.0
 3 C  dyz             0.1       0.0       0.0       0.3       0.0       0.0
 4 C  pz              6.7      20.4      13.5      19.6       7.5       0.0
 4 C  py              0.1       0.0       0.0       0.0       0.0       0.1
 4 C  dxz             0.1       0.1       0.0       0.5       0.0       0.0
 4 C  dyz             0.1       0.1       0.2       0.2       1.2       0.0
 4 C  dxy             0.0       0.0       0.0       0.0       0.0       0.2
 5 C  s               0.0       0.0       0.0       0.0       0.0       0.3
 5 C  pz              0.4       0.1      15.7       0.3      28.8       0.0
 5 C  px              0.1       0.0       0.0       0.0       0.0       1.1
 5 C  py              0.1       0.0       0.0       0.0       0.0       0.2
 5 C  dz2             0.0       0.0       0.0       0.0       0.0       0.2
 5 C  dxz             0.4       0.3       0.6       0.4       0.0       0.0
 5 C  dyz             0.2       0.5       0.3       1.1       0.0       0.0
 5 C  dxy             0.0       0.0       0.0       0.0       0.0       0.4
 6 C  s               0.0       0.0       0.0       0.0       0.0       0.1
 6 C  pz              2.5      24.0      10.8      21.9       3.0       0.0
 6 C  py              0.0       0.0       0.0       0.0       0.0       0.1
 6 C  dz2             0.0       0.0       0.0       0.0       0.0       0.1
 6 C  dxz             0.1       0.1       0.3       0.2       1.6       0.0
 6 C  dyz             0.0       0.1       0.0       0.2       0.0       0.0
 6 C  dx2y2           0.0       0.0       0.0       0.0       0.0       0.2
 7 C  s               0.0       0.0       0.0       0.0       0.0      12.9
 7 C  pz              0.1       1.0       0.2       0.2       0.3       0.0
 7 C  px              0.0       0.0       0.0       0.0       0.0       0.7
 7 C  py              0.1       0.0       0.0       0.0       0.0       1.5
 7 C  dyz             0.0       0.4       0.2       0.8       0.1       0.0
 8 O  s               0.0       0.0       0.0       0.0       0.0       5.7
 8 O  pz             27.1       0.0      23.9       0.2       6.2       0.0
 8 O  px              0.1       0.0       0.0       0.0       0.0       1.0
 8 O  py              0.0       0.0       0.0       0.0       0.0       5.2
 8 O  dxz             0.0       0.0       0.0       0.0       0.2       0.0
 9 H  s               1.6       1.8       0.3       1.8       0.4       2.3
10 H  s               0.0       0.0       0.0       0.0       0.0       1.0
11 H  s               2.2       1.8       0.3       1.9       0.4       2.3
13 H  s               0.1       0.0       0.0       0.0       0.0       0.4
14 H  s               0.1       0.0       0.0       0.0       0.0       0.2
15 H  s               0.2       1.6       0.7       1.7       0.6      10.8
16 H  s               0.0       0.0       0.0       0.0       0.0       5.8
17 H  s               0.1       1.6       0.7       1.7       0.6      10.8
18 H  s               0.0       0.0       0.0       0.0       0.0      32.2

                     36        37        38        39        40        41   
                   0.05433   0.06475   0.08579   0.09042   0.10342   0.11194
                   0.00000   0.00000   0.00000   0.00000   0.00000   0.00000
                  --------  --------  --------  --------  --------  --------
 0 C  s               7.3       9.7       0.2       0.0       0.1       0.0
 0 C  pz              0.0       0.0       0.0       4.8       0.0      16.4
 0 C  px              5.0       0.3       1.4       0.0       1.3       0.0
 0 C  py              0.1       2.6       2.3       0.0       7.3       0.0
 0 C  dz2             0.0       0.0       0.1       0.0       0.1       0.0
 0 C  dyz             0.0       0.0       0.0       0.4       0.0       0.8
 0 C  dxy             0.1       0.1       0.1       0.0       0.2       0.0
 1 C  s               0.3       0.5       0.9       0.0       0.2       0.0
 1 C  pz              0.0       0.0       0.0       2.7       0.0       0.2
 1 C  px              0.7       0.3       0.7       0.0       0.0       0.0
 1 C  py              0.0       0.2       0.2       0.0       0.9       0.0
 1 C  dz2             0.0       0.3       0.0       0.0       0.0       0.0
 1 C  dxz             0.0       0.0       0.0       0.2       0.0       0.6
 1 C  dyz             0.0       0.0       0.0       0.2       0.0       0.0
 1 C  dx2y2           0.0       0.0       0.0       0.0       0.5       0.0
 1 C  dxy             0.4       0.6       0.3       0.0       0.3       0.0
 2 C  s               3.3       0.4       0.3       0.0       0.1       0.0
 2 C  pz              0.0       0.0       0.0       7.7       0.0       0.1
 2 C  px              3.5       0.7       0.8       0.0       1.3       0.0
 2 C  py              1.5       0.9       0.4       0.0       1.7       0.0
 2 C  dxz             0.0       0.0       0.0       0.2       0.0       0.0
 2 C  dx2y2           0.2       0.1       0.0       0.0       0.0       0.0
 2 C  dxy             0.2       0.6       0.0       0.0       0.0       0.0
 3 C  s               1.8       2.0       1.4       0.0       0.3       0.0
 3 C  pz              0.0       0.0       0.0       9.3       0.0       0.6
 3 C  px              0.1       0.0       0.3       0.0       0.2       0.0
 3 C  py              3.0       3.1       1.1       0.0       0.6       0.0
 3 C  dyz             0.0       0.0       0.0       0.3       0.0       0.0
 3 C  dx2y2           0.8       0.5       0.0       0.0       0.0       0.0
 4 C  s               0.6       1.9       0.8       0.0       1.0       0.0
 4 C  pz              0.0       0.0       0.0       7.7       0.0       0.8
 4 C  px              0.6       1.6       2.0       0.0       2.9       0.0
 4 C  py              0.7       0.2       0.5       0.0       0.4       0.0
 4 C  dxz             0.0       0.0       0.0       0.3       0.0       0.0
 4 C  dx2y2           0.3       0.1       0.0       0.0       0.0       0.0
 4 C  dxy             0.3       0.1       0.5       0.0       0.0       0.0
 5 C  s               0.5       0.0       0.1       0.0       0.5       0.0
 5 C  pz              0.0       0.0       0.0       3.8       0.0       1.7
 5 C  px              0.4       0.1       1.3       0.0       0.0       0.0
 5 C  py              0.0       0.0       0.2       0.0       0.4       0.0
 5 C  dz2             0.1       0.0       0.0       0.0       0.1       0.0
 5 C  dyz             0.0       0.0       0.0       0.2       0.0       0.0
 5 C  dx2y2           0.0       0.1       0.0       0.0       0.1       0.0
 5 C  dxy             0.3       0.1       0.9       0.0       0.1       0.0
 6 C  s               0.7       0.5       0.3       0.0       0.2       0.0
 6 C  pz              0.0       0.0       0.0       0.8       0.0       0.6
 6 C  px              0.2       0.0       0.6       0.0       0.2       0.0
 6 C  py              0.1       0.1       0.5       0.0       0.3       0.0
 6 C  dz2             0.0       0.2       0.2       0.0       0.0       0.0
 6 C  dyz             0.0       0.0       0.0       0.7       0.0       0.2
 6 C  dx2y2           0.1       0.1       0.0       0.0       0.1       0.0
 6 C  dxy             0.0       0.0       0.8       0.0       0.4       0.0
 7 C  s               0.0       0.6       4.0       0.0       1.7       0.0
 7 C  pz              0.0       0.0       0.0      13.0       0.0      12.0
 7 C  px              1.9       2.1       5.7       0.0       7.2       0.0
 7 C  py              0.6       0.3       1.3       0.0       0.0       0.0
 7 C  dz2             0.0       0.0       0.8       0.0       0.5       0.0
 7 C  dxz             0.0       0.0       0.0       0.9       0.0       0.1
 7 C  dyz             0.0       0.0       0.0       0.4       0.0       0.0
 7 C  dx2y2           0.1       0.1       0.3       0.0       0.3       0.0
 7 C  dxy             0.0       0.0       0.3       0.0       0.2       0.0
 8 O  s               0.7       1.3       2.3       0.0       0.5       0.0
 8 O  pz              0.0       0.0       0.0       1.1       0.0       0.0
 8 O  px              0.3       0.1       1.0       0.0       0.2       0.0
 8 O  py              0.2       2.6       1.0       0.0       1.9       0.0
 9 H  s               5.3      12.4       0.7       6.5       3.7      20.3
10 H  s              13.3       0.6       8.8       0.0      11.9       0.0
11 H  s               5.3      12.5       0.6       6.3       4.4      19.1
12 H  s              18.0       4.2       4.1       0.0       6.1       0.0
13 H  s              10.3      11.7       5.5       0.0       2.0       0.0
14 H  s               4.6       7.5       7.3       0.0       9.5       0.0
15 H  s               0.1       0.0      13.3      15.8       8.6      12.4
16 H  s               2.9       3.9       2.9       0.0       6.8       0.0
17 H  s               0.1       0.0      12.7      16.4       7.5      13.7
18 H  s               3.0      11.6       8.1       0.0       4.9       0.0

                     42        43        44        45        46        47   
                   0.11954   0.13133   0.14112   0.15409   0.16556   0.21694
                   0.00000   0.00000   0.00000   0.00000   0.00000   0.00000
                  --------  --------  --------  --------  --------  --------
 0 C  s               4.1       0.5       2.9       0.0       0.2       0.6
 0 C  pz              0.0       0.0       0.0       5.8       0.0       0.0
 0 C  px              1.2       0.1       3.7       0.0       5.3      15.5
 0 C  py              1.4       7.8       2.2       0.0       0.4       8.1
 0 C  dz2             0.0       1.3       0.4       0.0       0.0       2.3
 0 C  dxz             0.0       0.0       0.0       0.5       0.0       0.0
 0 C  dx2y2           0.0       0.0       0.9       0.0       0.1       1.8
 0 C  dxy             0.0       0.4       0.2       0.0       1.0       2.9
 1 C  s               0.1       0.4       1.6       0.0       1.7      14.5
 1 C  pz              0.0       0.0       0.0      11.8       0.0       0.0
 1 C  px              0.5       0.1       1.5       0.0       0.3       4.9
 1 C  py              0.1       0.5       2.6       0.0       0.4       0.1
 1 C  dz2             0.0       0.1       0.2       0.0       0.4       1.6
 1 C  dx2y2           0.2       0.8       2.0       0.0       0.0       0.0
 1 C  dxy             0.1       0.0       0.3       0.0       0.2       0.0
 2 C  s               0.7       1.6       3.1       0.0       4.0       1.8
 2 C  pz              0.0       0.0       0.0       7.7       0.0       0.0
 2 C  px              1.1       1.4       0.7       0.0       1.3       0.7
 2 C  py              0.5       0.3       0.5       0.0       1.7       1.7
 2 C  dz2             0.0       0.0       0.4       0.0       0.1       0.2
 2 C  dxz             0.0       0.0       0.0       0.3       0.0       0.0
 2 C  dyz             0.0       0.0       0.0       0.3       0.0       0.0
 2 C  dx2y2           0.1       0.1       0.1       0.0       0.0       1.9
 2 C  dxy             0.3       0.0       0.0       0.0       0.1       0.3
 3 C  s               2.2       0.5       2.6       0.0       2.4       0.8
 3 C  pz              0.0       0.0       0.0       7.0       0.0       0.0
[...]
 0 C  dxy             0.1       1.7       0.0       1.5       2.5       0.0
 1 C  s               0.5       2.2       0.0       0.1       0.0       0.3
 1 C  px              1.5       0.2       0.0       0.0       0.1       0.5
 1 C  py              0.1       0.9       0.0       0.1       1.8       0.2
 1 C  dz2             0.0       2.2       0.0       0.0       0.1       0.2
 1 C  dxz             0.0       0.0       0.2       0.0       0.0       0.0
 1 C  dx2y2           3.3       1.0       0.0       6.6      18.7       0.0
 1 C  dxy             7.2      13.8       0.0       1.2       1.7       8.0
 2 C  s               2.3       0.3       0.0       0.2       0.1       0.2
 2 C  px              1.8       0.1       0.0       0.5       0.6       0.1
 2 C  py              0.0       0.6       0.0       1.1       2.5       0.2
 2 C  dz2             0.7       0.8       0.0       0.2       0.0       0.1
 2 C  dx2y2           1.9      12.4       0.0       1.6       8.3       0.1
 2 C  dxy             0.1       1.9       0.0       3.6       0.7       4.6
 3 C  s               0.2       0.1       0.0       0.9       0.4       0.0
 3 C  px              3.9       1.5       0.0       0.4       0.7       0.8
 3 C  py              0.2       0.0       0.0       0.3       0.1       0.0
 3 C  dz2             0.0       0.7       0.0       0.4       0.1       0.1
 3 C  dx2y2           1.1       7.5       0.0       4.6       0.4       1.4
 3 C  dxy            25.6       4.1       0.0       1.0       4.1       0.9
 4 C  s               0.6       2.5       0.0       0.3       0.0       0.3
 4 C  px              1.6       0.8       0.0       0.0       0.1       0.0
 4 C  py              2.0       0.1       0.0       0.5       0.2       1.1
 4 C  dz2             0.0       2.0       0.0       0.0       0.1       0.2
 4 C  dxz             0.0       0.0       0.6       0.0       0.0       0.0
 4 C  dyz             0.0       0.0       0.2       0.0       0.0       0.0
 4 C  dx2y2          17.2       4.5       0.0       0.5       1.6       4.3
 4 C  dxy             3.8       3.8       0.0       1.7       0.1       1.4
 5 C  s               2.7       0.4       0.0       0.2       0.1       0.8
 5 C  pz              0.0       0.0       0.4       0.0       0.0       0.0
 5 C  px              0.5       0.2       0.0       0.4       0.4       1.1
 5 C  py              0.8       1.1       0.0       0.5       0.4       0.2
 5 C  dz2             0.8       0.8       0.0       1.2       0.8       0.3
 5 C  dxz             0.0       0.0      14.1       0.0       0.0       0.0
 5 C  dyz             0.0       0.0       4.1       0.0       0.0       0.0
 5 C  dx2y2           0.1       2.3       0.0       2.7       0.1      15.8
 5 C  dxy             0.0       0.0       0.0       0.2       0.1       3.3
 6 C  s               0.2       0.3       0.0       0.1       0.8       0.1
 6 C  px              1.3       0.1       0.0       0.3       0.6       1.7
 6 C  py              0.4       1.0       0.0       0.1       0.4       0.0
 6 C  dz2             0.0       1.2       0.0       0.0       0.5       0.1
 6 C  dxz             0.0       0.0       0.2       0.0       0.0       0.0
 6 C  dyz             0.0       0.0       1.6       0.0       0.0       0.0
 6 C  dx2y2           0.0      10.9       0.0       4.0       2.6       2.4
 6 C  dxy            13.6       1.1       0.0       0.5       6.0       8.9
 7 C  s               0.0       0.5       0.0       0.1       0.1       0.1
 7 C  py              0.0       1.0       0.0       0.2       0.1       0.1
 7 C  dz2             0.0       1.3       0.0       0.1       0.2       0.0
 7 C  dyz             0.0       0.0       0.3       0.0       0.0       0.0
 7 C  dx2y2           0.2       3.7       0.0       0.5       0.2       0.1
 7 C  dxy             1.6       0.6       0.0       0.2       0.8       0.6
 8 O  s               0.0       0.0       0.0       1.7       1.0       0.3
 8 O  pz              0.0       0.0       0.9       0.0       0.0       0.0
 8 O  px              0.0       0.0       0.0       0.6       0.1       0.6
 8 O  py              0.0       0.1       0.0       1.9       0.6       0.1
 8 O  dz2             0.0       0.3       0.2      41.4      18.4       0.9
 8 O  dxz             0.0       0.0      59.5       0.2       0.0       0.0
 8 O  dyz             0.0       0.0      17.2       0.1       0.0       0.0
 8 O  dx2y2           0.0       0.8       0.0       0.0      16.4      35.6
 8 O  dxy             0.0       1.2       0.0      11.0       0.1       0.0
12 H  s               0.0       0.0       0.0       0.1       0.0       0.1
13 H  s               0.0       0.3       0.0       0.2       0.0       0.0
14 H  s               0.1       0.3       0.0       0.1       0.0       0.0
18 H  s               0.0       0.0       0.0       3.4       3.2       0.8

                    144       145   
                   3.20499   3.46640
                   0.00000   0.00000
                  --------  --------
 0 C  px              0.1       0.1
 0 C  dx2y2           0.1       0.1
 0 C  dxy             0.4       0.3
 1 C  s               0.3       0.2
 1 C  py              0.4       0.0
 1 C  dz2             0.3       0.0
 1 C  dx2y2           4.7       2.9
 1 C  dxy             2.4       3.7
 2 C  s               0.6       0.6
 2 C  py              0.2       0.0
 2 C  dz2             0.4       0.3
 2 C  dx2y2           2.8       0.7
 2 C  dxy             5.6       3.9
 3 C  s               1.2       0.4
 3 C  px              0.2       0.0
 3 C  py              0.1       0.0
 3 C  dz2             0.6       0.2
 3 C  dx2y2           6.9       5.4
 3 C  dxy             1.0       0.0
 4 C  s               0.6       0.5
 4 C  px              0.2       0.0
 4 C  py              0.5       0.1
 4 C  dz2             0.5       0.2
 4 C  dx2y2           0.2       2.7
 4 C  dxy             6.2       4.9
 5 C  s               3.3       0.4
 5 C  px              0.6       1.7
 5 C  py              0.8       0.6
 5 C  dz2             2.5       0.2
 5 C  dx2y2           5.4       4.5
 5 C  dxy             1.9      14.8
 6 C  s               0.5       0.2
 6 C  px              0.3       0.0
 6 C  py              0.2       0.0
 6 C  dz2             0.4       0.0
 6 C  dx2y2           3.1       9.6
 6 C  dxy             2.8       0.2
 7 C  py              0.0       0.2
 7 C  dx2y2           0.1       0.6
 7 C  dxy             0.5       0.1
 8 O  s               2.8       1.8
 8 O  px              0.8       1.5
 8 O  py              1.2       1.4
 8 O  dz2             9.5       4.2
 8 O  dx2y2           0.2       9.4
 8 O  dxy            25.4      19.8
12 H  s               0.3       0.2
13 H  s               0.3       0.2
14 H  s               0.2       0.3
18 H  s               0.1       0.5


                      *****************************
                      * MAYER POPULATION ANALYSIS *
                      *****************************

  NA   - Mulliken gross atomic population
  ZA   - Total nuclear charge
  QA   - Mulliken gross atomic charge
  VA   - Mayer's total valence
  BVA  - Mayer's bonded valence
  FA   - Mayer's free valence

  ATOM       NA         ZA         QA         VA         BVA        FA
  0 C      6.2426     6.0000    -0.2426     3.9415     3.9415     0.0000
  1 C      6.0174     6.0000    -0.0174     4.1259     4.1259    -0.0000
  2 C      6.1347     6.0000    -0.1347     3.8138     3.8138     0.0000
  3 C      6.0372     6.0000    -0.0372     3.7704     3.7704     0.0000
  4 C      6.1285     6.0000    -0.1285     3.7956     3.7956    -0.0000
  5 C      5.8587     6.0000     0.1413     4.0774     4.0774     0.0000
  6 C      6.0506     6.0000    -0.0506     3.9501     3.9501    -0.0000
  7 C      6.2990     6.0000    -0.2990     3.9429     3.9429    -0.0000
  8 O      8.3369     8.0000    -0.3369     2.1637     2.1637     0.0000
  9 H      0.8832     1.0000     0.1168     0.9479     0.9479    -0.0000
 10 H      0.8981     1.0000     0.1019     0.9682     0.9682    -0.0000
 11 H      0.8830     1.0000     0.1170     0.9478     0.9478    -0.0000
 12 H      0.9730     1.0000     0.0270     0.9608     0.9608     0.0000
 13 H      0.9527     1.0000     0.0473     0.9496     0.9496     0.0000
 14 H      0.9614     1.0000     0.0386     0.9677     0.9677     0.0000
 15 H      0.8807     1.0000     0.1193     0.9475     0.9475     0.0000
 16 H      0.8901     1.0000     0.1099     0.9850     0.9850     0.0000
 17 H      0.8810     1.0000     0.1190     0.9478     0.9478    -0.0000
 18 H      0.6910     1.0000     0.3090     0.9010     0.9010     0.0000

  Mayer bond orders larger than 0.100000
B(  0-C ,  1-C ) :   1.1143 B(  0-C ,  9-H ) :   0.9273 B(  0-C , 10-H ) :   0.9371 
B(  0-C , 11-H ) :   0.9271 B(  1-C ,  2-C ) :   1.3903 B(  1-C ,  6-C ) :   1.4273 
B(  2-C ,  3-C ) :   1.3422 B(  2-C , 12-H ) :   0.9594 B(  3-C ,  4-C ) :   1.3574 
B(  3-C , 13-H ) :   0.9661 B(  4-C ,  5-C ) :   1.3699 B(  4-C , 14-H ) :   0.9650 
B(  5-C ,  6-C ) :   1.3072 B(  5-C ,  8-O ) :   1.2220 B(  6-C ,  7-C ) :   1.1075 
B(  7-C , 15-H ) :   0.9292 B(  7-C , 16-H ) :   0.9159 B(  7-C , 17-H ) :   0.9291 
B(  8-O , 18-H ) :   0.8310 

-------
TIMINGS
-------

Total SCF time: 0 days 0 hours 0 min 5 sec 

Total time                  ....       5.571 sec
Sum of individual times     ....       5.208 sec  ( 93.5%)

SCF preparation             ....       0.173 sec  (  3.1%)
Fock matrix formation       ....       4.388 sec  ( 78.8%)
  Startup                   ....       0.048 sec  (  1.1% of F)
  Split-RI-J                ....       1.558 sec  ( 35.5% of F)
  XC integration            ....       2.364 sec  ( 53.9% of F)
    Basis function eval.    ....       0.734 sec  ( 31.1% of XC)
    Density eval.           ....       0.324 sec  ( 13.7% of XC)
    XC-Functional eval.     ....       0.178 sec  (  7.5% of XC)
    XC-Potential eval.      ....       0.492 sec  ( 20.8% of XC)
Diagonalization             ....       0.000 sec  (  0.0%)
Density matrix formation    ....       0.153 sec  (  2.7%)
Total Energy calculation    ....       0.028 sec  (  0.5%)
Population analysis         ....       0.069 sec  (  1.2%)
Orbital Transformation      ....       0.039 sec  (  0.7%)
Orbital Orthonormalization  ....       0.000 sec  (  0.0%)
DIIS solution               ....       0.287 sec  (  5.2%)
  MO trafo                  ....       0.000 sec  (  0.0 % of DIIS)
  Orb grad                  ....       0.000 sec  (  0.0 % of DIIS)
  Energy W gradient         ....       0.000 sec  (  0.0 % of DIIS)
  DIIS error                ....       0.003 sec  (  0.9 % of DIIS)
  DIIS work                 ....       0.251 sec  ( 87.5 % of DIIS)
  Form Q                    ....       0.000 sec  (  0.0 % of DIIS)
  Form QpQm                 ....       0.000 sec  (  0.0 % of DIIS)
  Exp/Cayley                ....       0.000 sec  (  0.0 % of DIIS)
  Orb update                ....       0.000 sec  (  0.0 % of DIIS)
  Wake-sleep                ....       0.013 sec  (  4.7 % of DIIS)
SOSCF solution              ....       0.071 sec  (  1.3%)
  MO trafo                  ....       0.039 sec  ( 55.8 % of SOSCF)
  Orb grad                  ....       0.001 sec  (  1.5 % of SOSCF)
  Rot update                ....       0.013 sec  ( 18.2 % of SOSCF)
  Step                      ....       0.017 sec  ( 24.5 % of SOSCF)
Finished LeanSCF after   6.2 sec

Maximum memory used throughout the entire LEANSCF-calculation: 13.8 MB


-------------------------------------------------------------------------------
                          DFT DISPERSION CORRECTION                            
                                                                               
                                DFTD4 V3.4.0                                   
-------------------------------------------------------------------------------
The PBE functional is recognized
Active option DFTDOPT                   ...         5   

-------------------------   ----------------
Dispersion correction           -0.019523975
-------------------------   ----------------

------------------   -----------------
gCP correction             0.078736040
------------------   -----------------

-------------------------   --------------------
FINAL SINGLE POINT ENERGY      -385.238355864365
-------------------------   --------------------


------------------------------------------------------------------------------
                              ORCA PROPERTY CALCULATIONS
------------------------------------------------------------------------------

GBWName                                 ... sp.gbw
Number of atoms                         ...     19
Number of basis functions               ...    146
Max core memory                         ...   1024 MB

Electric properties:
Dipole moment                           ... YES
Quadrupole moment                       ...  NO
Static polarizability (Dipole/Dipole)   ...  NO
Static polarizability (Dipole/Quad.)    ...  NO
Static polarizability (Quad./Quad.)     ...  NO
Static polarizability (Velocity)        ...  NO

Atomic electric properties:
Dipole moment                           ...  NO
Quadrupole moment                       ...  NO
Static polarizability                   ...  NO

Choice of electric origin               ... Center of mass
Position of electric origin             ...    -0.000025     0.000003     0.000000

General magnetic properties:
Magnetizability                         ...  NO

EPR properties:
g-Tensor (aka g-matrix)                 ...  NO
Zero-Field splitting spin-orbit         ...  NO
Zero-field splitting spin-spin          ...  NO
Hyperfine couplings                     ...  NO (   0 nuclei)
Quadrupole couplings                    ...  NO (   0 nuclei)
Contact density                         ...  NO (   0 nuclei)

NMR properties:
Chemical shifts                         ...  NO (   0 nuclei)
Spin-rotation constants                 ...  NO (   0 nuclei)
Spin-spin couplings                     ...  NO (   0 nuclei,    0 pairs)

Choice of magnetic origin               ... GIAO
Position of magnetic origin             ...     0.000000     0.000000     0.000000

Properties with geometric perturbations:
SCF Hessian                             ...  NO
IR spectrum                             ...  NO
VCD spectrum                            ...  NO
X-ray spectroscopy properties:
SCF XES/XAS/RIXS spectra                ...  NO


-------------
DIPOLE MOMENT
-------------

Method             : SCF
Type of density    : Electron Density
Multiplicity       :   1
Irrep              :   0
Energy             :  -385.2975679293916187 Eh
Relativity type    : 
Basis              : AO
                                X                 Y                 Z
Electronic contribution:      5.796543011      -3.714998769       0.000384246
Nuclear contribution   :     -6.125448984       4.423878099      -0.002220314
                        -----------------------------------------
Total Dipole Moment    :     -0.328905973       0.708879329      -0.001836068
                        -----------------------------------------
Magnitude (a.u.)       :      0.781468114
Magnitude (Debye)      :      1.986334090



--------------------
Rotational spectrum 
--------------------
 
Rotational constants in cm-1:             0.075594             0.059394             0.033681 
Rotational constants in MHz :          2266.260923          1780.598922          1009.733817 

Dipole components along the rotational axes: 
x,y,z [a.u.] :    -0.297141    -0.722770    -0.001829 
x,y,z [Debye]:    -0.755273    -1.837135    -0.004650 

 

Dipole moment calculation done in   0.0 sec 

Maximum memory used throughout the entire PROP-calculation: 8.8 MB

--------------------------------
SUGGESTED CITATIONS FOR THIS RUN
--------------------------------

Below you find a list of papers that are relevant to this ORCA run
We neither can nor want to force you to cite these papers, but we appreciate if you do
You receive ORCA, which is the product of decades of hard work by many enthusiastic individuals, for free
The only thing we kindly ask in return is that you cite our papers,
We deeply appreciate it, if you show your appreciation for ORCA by not just citing the generic ORCA reference.

Please note that relegating all ORCA citations to the supporting information does *not* help us.
SI sections are not indexed - citations you put there will not count into any citation statistics
But we need these citations in order to attract the funding resources that allow us to do what we are doing

Therefore, if you are a happy ORCA user, please consider citing a few of the papers listed below in the main body of your paper

In addition to the list printed below, the program has created the file sp.bibtex that contains the list in bibtex format
You can import this file easily into all common literature databanks and citation aid programs


List of essential papers. We consider these as the minimum necessary citations

  1. Neese,F.
     Software update: the ORCA program system, version 5.0
     WIRES Comput. Molec. Sci., 2022 12(1)e1606
     doi.org/10.1002/wcms.1606

List of papers to cite with high priority. The work reported in these papers was absolutely
necessary for this run to complete.
Our perspective: the developers of density functionals and basis sets usually get cited in chemistry papers
Good! But without the algorithms to do something with them, the functionals or basis sets would not do anything.
Hence, in our opinion, the algorithm design and method developments papers are equally worthy of getting cited

  1. Neese,F.
     An improvement of the resolution of the identity approximation for the formation of the Coulomb matrix
     J. Comp. Chem., 2003 24(14)1740-1747
     doi.org/10.1002/jcc.10318
  2. Neese,F.
     The SHARK Integral Generation and Digestion System
     J. Comp. Chem., 2022  1-16
     doi.org/10.1002/jcc.26942
  3. Caldeweyher,E.; Bannwarth,C.; Grimme,S.
     Extension of the D3 dispersion coefficient model
     J. Chem. Phys., 2017 147 034112-XXXX
     doi.org/10.1063/1.4993215
  4. Caldeweyher,E.; Ehlert,S.; Hansen,A.; Neugebauer,H.; Spicher,S.; Bannwarth,C.; Grimme,S.
     A generally applicable atomic-charge dependent London dispersion correction
     J. Chem. Phys., 2019 150 154122-XXXX
     doi.org/10.1063/1.5090222
  5. Caldeweyher,E.; Mewes,J.; Ehlert,S.; Grimme,S.
     Extension and evaluation of the D4 London-dispersion model for periodic systems
     Phys. Chem. Chem. Phys., 2020 22(16)8499-8512
     doi.org/10.1039/D0CP00502A

List of suggested additional citations. These are papers that are important in the 'surrounding' of 
of this run, or papers that preceded the highly important papers. If you like your results we are grateful for a citation.

  1. Neese,F.
     The ORCA program system
     WIRES Comput. Molec. Sci., 2012 2(1)73-78
     doi.org/10.1002/wcms.81
  2. Neese,F.
     Software update: the ORCA program system, version 4.0
     WIRES Comput. Molec. Sci., 2018 8(1)1-6
     doi.org/10.1002/wcms.1327
  3. Neese,F.; Wennmohs,F.; Becker,U.; Riplinger,C.
     The ORCA quantum chemistry program package
     J. Chem. Phys., 2020 152 Art. No. L224108
     doi.org/10.1063/5.0004608

List of optional additional citations

  1. Neese,F.
     Approximate second-order SCF convergence for spin unrestricted wavefunctions
     Chem. Phys. Lett., 2000 325(1-3)93-98
     doi.org/10.1016/s0009-2614(00)00662-x

Timings for individual modules:

Sum of individual times          ...        7.582 sec (=   0.126 min)
Startup calculation              ...        0.619 sec (=   0.010 min)   8.2 %
SCF iterations                   ...        6.877 sec (=   0.115 min)  90.7 %
Property calculations            ...        0.085 sec (=   0.001 min)   1.1 %
                             ****ORCA TERMINATED NORMALLY****
TOTAL RUN TIME: 0 days 0 hours 0 minutes 8 seconds 209 msec
