
                                 *****************
                                 * O   R   C   A *
                                 *****************

                                            #,                                       
                                            ###                                      
                                            ####                                     
                                            #####                                    
                                            ######                                   
                                           ########,                                 
                                     ,,################,,,,,                         
                               ,,#################################,,                 
                          ,,##########################################,,             
                       ,#########################################, ''#####,          
                    ,#############################################,,   '####,        
                  ,##################################################,,,,####,       
                ,###########''''           ''''###############################       
              ,#####''   ,,,,##########,,,,          '''####'''          '####       
            ,##' ,,,,###########################,,,                        '##       
           ' ,,###''''                  '''############,,,                           
         ,,##''                                '''############,,,,        ,,,,,,###''
      ,#''                                            '''#######################'''  
     '                                                          ''''####''''         
             ,#######,   #######,   ,#######,      ##                                
            ,#'     '#,  ##    ##  ,#'     '#,    #''#        ,####,   ,####,        
            ##       ##  ##   ,#'  ##            #'  '#       #'       #'  '#        
            ##       ##  #######   ##           ,######,      #####,   #    #        
            '#,     ,#'  ##    ##  '#,     ,#' ,#      #,     #,   #   #,  ,#        
             '#######'   ##     ##  '#######'  #'      '#     '####' # '####'        



                #########################################################
                #                        -***-                          #
                #          Department of theory and spectroscopy        #
                #                                                       #
                #                      Frank Neese                      #
                #                                                       #
                #     Directorship, Architecture, Infrastructure        #
                #                    SHARK, DRIVERS                     #
                #        Core code/Algorithms in most modules           #
                #                                                       #
                #        Max Planck Institute fuer Kohlenforschung      #
                #                Kaiser Wilhelm Platz 1                 #
                #                 D-45470 Muelheim/Ruhr                 #
                #                      Germany                          #
                #                                                       #
                #                  All rights reserved                  #
                #                        -***-                          #
                #########################################################


                         Program Version 6.0.0  -   RELEASE  -


 With contributions from (in alphabetic order):
   Daniel Aravena         : Magnetic Suceptibility
   Michael Atanasov       : Ab Initio Ligand Field Theory (pilot matlab implementation)
   Alexander A. Auer      : GIAO ZORA, VPT2 properties, NMR spectrum
   Ute Becker             : All parallelization in ORCA, NUMFREQ, NUMCALC
   Giovanni Bistoni       : ED, misc. LED, open-shell LED, HFLD
   Martin Brehm           : Molecular dynamics
   Dmytro Bykov           : pre 5.0 version of the SCF Hessian
   Marcos Casanova-Páez   : Triplet and SCS-CIS(D). UHF-(DLPNO)-IP/EA/STEOM-CCSD. UHF-CVS-IP/STEOM-CCSD
   Vijay G. Chilkuri      : MRCI spin determinant printing, contributions to CSF-ICE
   Pauline Colinet        : FMM embedding
   Dipayan Datta          : RHF DLPNO-CCSD density
   Achintya Kumar Dutta   : EOM-CC, STEOM-CC
   Nicolas Foglia         : Exact transition moments, OPA infrastructure, MCD improvements
   Dmitry Ganyushin       : Spin-Orbit,Spin-Spin,Magnetic field MRCI
   Miquel Garcia          : C-PCM and meta-GGA Hessian, CCSD/C-PCM, Gaussian charge scheme
   Tiago L. C. Gouveia    : GS-ROHF, GS-ROCIS
   Yang Guo               : DLPNO-NEVPT2, F12-NEVPT2, CIM, IAO-localization
   Andreas Hansen         : Spin unrestricted coupled pair/coupled cluster methods
   Ingolf Harden          : AUTO-CI MPn and infrastructure 
   Benjamin Helmich-Paris : MC-RPA, TRAH-(SCF,CASSCF), AVAS, COSX integrals, SCF dyn. polar.
   Lee Huntington         : MR-EOM, pCC
   Robert Izsak           : Overlap fitted RIJCOSX, COSX-SCS-MP3, EOM
   Riya Kayal             : Wick's Theorem for AUTO-CI, AUTO-CI UHF-CCSDT
   Emily Kempfer          : AUTO-CI, RHF CISDT and CCSDT
   Christian Kollmar      : KDIIS, OOCD, Brueckner-CCSD(T), CCSD density, CASPT2, CASPT2-K, improved NEVPT2
   Axel Koslowski         : Symmetry handling
   Simone Kossmann        : Meta GGA functionals, TD-DFT gradient, OOMP2, (MP2 Hessian; deprecated post 5.0)
   Lucas Lang             : DCDCAS
   Marvin Lechner         : AUTO-CI (C++ implementation), FIC-MRCC
   Spencer Leger          : CASSCF response
   Dagmar Lenk            : GEPOL surface, SMD, ORCA-2-JSON
   Dimitrios Liakos       : Extrapolation schemes; Compound Job, initial MDCI parallelization
   Dimitrios Manganas     : Further ROCIS development; embedding schemes. LFT, Crystal Embedding
   Dimitrios Pantazis     : SARC Basis sets
   Anastasios Papadopoulos: AUTO-CI, single reference methods and gradients
   Taras Petrenko         : pre 6.0 DFT Hessian and TD-DFT gradient, (ASA, deprecated), ECA, 1-Electron XAS/XES, NRVS
   Peter Pinski           : DLPNO-MP2, DLPNO-MP2 Gradient
   Christoph Reimann      : Effective Core Potentials
   Marius Retegan         : Local ZFS, SOC
   Christoph Riplinger    : Optimizer, TS searches, QM/MM, DLPNO-CCSD(T), (RO)-DLPNO pert. Triples
   Michael Roemelt        : Original ROCIS implementation
   Masaaki Saitow         : Open-shell DLPNO-CCSD energy and density
   Barbara Sandhoefer     : DKH picture change effects
   Kantharuban Sivalingam : CASSCF convergence/infrastructure, NEVPT2 and variants, FIC-MRCI
   Bernardo de Souza      : ESD, SOC TD-DFT
   Georgi Stoychev        : AutoAux, RI-MP2 NMR, DLPNO-MP2 response, X2C
   Van Anh Tran           : RI-MP2 g-tensors
   Willem Van den Heuvel  : Paramagnetic NMR
   Zikuan Wang            : NOTCH, Electric field optimization 
   Frank Wennmohs         : Technical directorship and infrastructure
   Hang Xu                : AUTO-CI-Response properties 


 We gratefully acknowledge several colleagues who have allowed us to
 interface, adapt or use parts of their codes:
   Stefan Grimme, W. Hujo, H. Kruse, P. Pracht,  : VdW corrections, initial TS optimization,
                  C. Bannwarth, S. Ehlert,         DFT functionals, gCP, sTDA/sTD-DF
                  L. Wittmann, M. Mueller
   Ed Valeev, F. Pavosevic, A. Kumar             : LibInt (2-el integral package), F12 methods
   Garnet Chan, S. Sharma, J. Yang, R. Olivares  : DMRG
   Ulf Ekstrom                                   : XCFun DFT Library
   Mihaly Kallay                                 : mrcc  (arbitrary order and MRCC methods)
   Frank Weinhold                                : gennbo (NPA and NBO analysis)
   Simon Mueller                                 : openCOSMO-RS
   Christopher J. Cramer and Donald G. Truhlar   : smd solvation model
   Lars Goerigk                                  : TD-DFT with DH, B97 family of functionals
   V. Asgeirsson, H. Jonsson                     : NEB implementation
   FAccTs GmbH                                   : IRC, NEB, NEB-TS, DLPNO-Multilevel, CI-OPT
                                                   MM, QMMM, 2- and 3-layer-ONIOM, Crystal-QMMM,
                                                   LR-CPCM, SF, NACMEs, symmetry and pop. for TD-DFT,
                                                   nearIR, NL-DFT gradient (VV10), updates on ESD,
                                                   ML-optimized integration grids, MBIS, APM,
                                                   GOAT, DOCKER, SOLVATOR, interface openCOSMO-RS
   S Lehtola, MJT Oliveira, MAL Marques          : LibXC Library
   Liviu Ungur et al                             : ANISO software


 Your calculation uses the libint2 library for the computation of 2-el integrals
 For citations please refer to: http://libint.valeyev.net

 Your ORCA version has been built with support for libXC version: 6.2.2
 For citations please refer to: https://libxc.gitlab.io

 This ORCA versions uses:
   CBLAS   interface :  Fast vector & matrix operations
   LAPACKE interface :  Fast linear algebra routines
   SCALAPACK package :  Parallel linear algebra routines
   Shared memory     :  Shared parallel matrices
   BLAS/LAPACK       :  OpenBLAS 0.3.27  USE64BITINT DYNAMIC_ARCH NO_AFFINITY SapphireRapids SINGLE_THREADED
        Core in use  :  SapphireRapids
   Copyright (c) 2011-2014, The OpenBLAS Project


Your calculation utilizes the geometrical counterpoise correction gCP
Please cite in your paper:
H.Kruse, S. Grimme J.Chem.Phys., 136, (2012), 154101 
   

Your calculation utilizes the atom-pairwise dispersion correction
based on EEQ partial charges (D4)


================================================================================

----- Orbital basis set information -----
Your calculation utilizes the basis: def2-SV(P)
   F. Weigend and R. Ahlrichs, Phys. Chem. Chem. Phys. 7, 3297 (2005).

----- AuxJ basis set information -----
Your calculation utilizes the auxiliary basis: def2/J
   F. Weigend, Phys. Chem. Chem. Phys. 8, 1057 (2006).

================================================================================
                                        WARNINGS
                       Please study these warnings very carefully!
================================================================================


================================================================================
                                       INPUT FILE
================================================================================
NAME = sp.inp
|  1> ! pbe def2-sv(p) def2/J RI DEFGRID1 loosescf d4 GCP(DFT/SV(P)) printgap
|  2> %output
|  3>     printlevel normal
|  4> end
|  5> * xyz 0 1
|  6> C 4.1720569345 -1.4421685087 -2.2262291884
|  7> C 4.6290091062 -1.2925836637 -0.7899018023
|  8> O 3.5268594493 -1.2075706234 0.1328517923
|  9> P 2.5177678888 0.0210082052 0.1451704781
| 10> S 3.3112934027 1.7813838015 -0.1463344796
| 11> O 1.8505436434 -0.0911658866 1.5698071656
| 12> C 1.2580637953 -1.3019613827 2.0967807462
| 13> C 2.2500853524 -2.0637909457 2.95121522
| 14> S 0.9974584324 -0.5659534535 -1.2407441341
| 15> C 0.3047516285 1.0855309589 -1.4714415268
| 16> S -0.5737587452 1.6861036694 -0.0043333036
| 17> P -2.2018514915 0.3337006568 -0.1328778495
| 18> S -2.7699213764 -0.0697180775 -1.9705728071
| 19> O -3.3253212868 0.9757675916 0.786436188
| 20> C -4.2431900137 1.9750366455 0.2989256973
| 21> C -5.5439875363 1.8348669232 1.0642903272
| 22> O -1.6762985983 -0.8491560859 0.7770601362
| 23> C -2.5382770886 -1.8007675197 1.4470385272
| 24> C -3.3874957443 -2.5930645829 0.4759751533
| 25> H 3.4645290897 -2.2626514297 -2.3169083147
| 26> H 3.6907653145 -0.5251116632 -2.5624533531
| 27> H 5.0336960472 -1.6370283209 -2.8566182951
| 28> H 5.2430607165 -0.3945044246 -0.6735971728
| 29> H 5.1834509744 -2.1689678847 -0.451243373
| 30> H 0.409820053 -0.9490610969 2.687094599
| 31> H 0.8978240367 -1.9110809905 1.262467066
| 32> H 2.6345466609 -1.4182912781 3.7361580798
| 33> H 1.7509716241 -2.916874963 3.4002476915
| 34> H 3.0812054272 -2.412223561 2.3444185007
| 35> H -0.3889712339 1.0230768052 -2.310192717
| 36> H 1.1091560552 1.7954397079 -1.6649202255
| 37> H -3.7868901531 2.9543688575 0.4610624641
| 38> H -4.3923444561 1.8197376626 -0.7750896524
| 39> H -6.2330094094 2.6057760479 0.7354108972
| 40> H -5.9861141535 0.8595959582 0.8801084378
| 41> H -5.3625073149 1.9462591213 2.1294056745
| 42> H -1.8374778805 -2.4449656405 1.9807920043
| 43> H -3.1607570843 -1.254532866 2.1585676771
| 44> H -4.0839968242 -1.9342545672 -0.0407083862
| 45> H -2.759403346 -3.0775323224 -0.2680639718
| 46> H -3.9487011251 -3.3465198799 1.0197499215
| 47> *
| 48> 
| 49>                          ****END OF INPUT****
================================================================================

                       ****************************
                       * Single Point Calculation *
                       ****************************

---------------------------------
CARTESIAN COORDINATES (ANGSTROEM)
---------------------------------
  C      4.172057   -1.442169   -2.226229
  C      4.629009   -1.292584   -0.789902
  O      3.526859   -1.207571    0.132852
  P      2.517768    0.021008    0.145170
  S      3.311293    1.781384   -0.146334
  O      1.850544   -0.091166    1.569807
  C      1.258064   -1.301961    2.096781
  C      2.250085   -2.063791    2.951215
  S      0.997458   -0.565953   -1.240744
  C      0.304752    1.085531   -1.471442
  S     -0.573759    1.686104   -0.004333
  P     -2.201851    0.333701   -0.132878
  S     -2.769921   -0.069718   -1.970573
  O     -3.325321    0.975768    0.786436
  C     -4.243190    1.975037    0.298926
  C     -5.543988    1.834867    1.064290
  O     -1.676299   -0.849156    0.777060
  C     -2.538277   -1.800768    1.447039
  C     -3.387496   -2.593065    0.475975
  H      3.464529   -2.262651   -2.316908
  H      3.690765   -0.525112   -2.562453
  H      5.033696   -1.637028   -2.856618
  H      5.243061   -0.394504   -0.673597
  H      5.183451   -2.168968   -0.451243
  H      0.409820   -0.949061    2.687095
  H      0.897824   -1.911081    1.262467
  H      2.634547   -1.418291    3.736158
  H      1.750972   -2.916875    3.400248
  H      3.081205   -2.412224    2.344419
  H     -0.388971    1.023077   -2.310193
  H      1.109156    1.795440   -1.664920
  H     -3.786890    2.954369    0.461062
  H     -4.392344    1.819738   -0.775090
  H     -6.233009    2.605776    0.735411
  H     -5.986114    0.859596    0.880108
  H     -5.362507    1.946259    2.129406
  H     -1.837478   -2.444966    1.980792
  H     -3.160757   -1.254533    2.158568
  H     -4.083997   -1.934255   -0.040708
  H     -2.759403   -3.077532   -0.268064
  H     -3.948701   -3.346520    1.019750

----------------------------
CARTESIAN COORDINATES (A.U.)
----------------------------
  NO LB      ZA    FRAG     MASS         X           Y           Z
   0 C     6.0000    0    12.011    7.884045   -2.725304   -4.206963
   1 C     6.0000    0    12.011    8.747559   -2.442629   -1.492698
   2 O     8.0000    0    15.999    6.664798   -2.281978    0.251054
   3 P    15.0000    0    30.974    4.757892    0.039700    0.274332
   4 S    16.0000    0    32.060    6.257438    3.366328   -0.276532
   5 O     8.0000    0    15.999    3.497021   -0.172279    2.966506
   6 C     6.0000    0    12.011    2.377396   -2.460350    3.962341
   7 C     6.0000    0    12.011    4.252045   -3.900000    5.576989
   8 S    16.0000    0    32.060    1.884923   -1.069497   -2.344667
   9 C     6.0000    0    12.011    0.575897    2.051356   -2.780622
  10 S    16.0000    0    32.060   -1.084247    3.186274   -0.008189
  11 P    15.0000    0    30.974   -4.160896    0.630603   -0.251103
  12 S    16.0000    0    32.060   -5.234393   -0.131748   -3.723843
  13 O     8.0000    0    15.999   -6.283947    1.843934    1.486149
  14 C     6.0000    0    12.011   -8.018467    3.732278    0.564888
  15 C     6.0000    0    12.011  -10.476618    3.467396    2.011217
  16 O     8.0000    0    15.999   -3.167745   -1.604672    1.468431
  17 C     6.0000    0    12.011   -4.796649   -3.402957    2.734507
  18 C     6.0000    0    12.011   -6.401439   -4.900182    0.899463
  19 H     1.0000    0     1.008    6.547011   -4.275792   -4.378322
  20 H     1.0000    0     1.008    6.974536   -0.992317   -4.842335
  21 H     1.0000    0     1.008    9.512307   -3.093535   -5.398226
  22 H     1.0000    0     1.008    9.907949   -0.745505   -1.272914
  23 H     1.0000    0     1.008    9.795303   -4.098755   -0.852726
  24 H     1.0000    0     1.008    0.774448   -1.793466    5.077873
  25 H     1.0000    0     1.008    1.696642   -3.611420    2.385717
  26 H     1.0000    0     1.008    4.978572   -2.680182    7.060316
  27 H     1.0000    0     1.008    3.308857   -5.512095    6.425537
  28 H     1.0000    0     1.008    5.822634   -4.558442    4.430309
  29 H     1.0000    0     1.008   -0.735049    1.933335   -4.365632
  30 H     1.0000    0     1.008    2.096001    3.392889   -3.146243
  31 H     1.0000    0     1.008   -7.156185    5.582948    0.871282
  32 H     1.0000    0     1.008   -8.300328    3.438806   -1.464707
  33 H     1.0000    0     1.008  -11.778681    4.924203    1.389725
  34 H     1.0000    0     1.008  -11.312116    1.624401    1.663164
  35 H     1.0000    0     1.008  -10.133670    3.677897    4.023994
  36 H     1.0000    0     1.008   -3.472330   -4.620315    3.743154
  37 H     1.0000    0     1.008   -5.972965   -2.370724    4.079102
  38 H     1.0000    0     1.008   -7.717636   -3.655211   -0.076928
  39 H     1.0000    0     1.008   -5.214517   -5.815693   -0.506567
  40 H     1.0000    0     1.008   -7.461964   -6.324006    1.927048

--------------------------------
INTERNAL COORDINATES (ANGSTROEM)
--------------------------------
 C      0   0   0     0.000000000000     0.00000000     0.00000000
 C      1   0   0     1.514667380363     0.00000000     0.00000000
 O      2   1   0     1.439942804271   112.49481119     0.00000000
 P      3   2   1     1.589913037111   122.43762364   293.66869193
 S      4   3   2     1.952838990194   115.94571123   320.80258731
 O      4   3   2     1.577136935048   102.74119477   198.60352650
 C      6   4   3     1.447328317429   124.16515307   308.97947610
 C      7   6   4     1.514776987820   110.97908549    94.98804738
 S      4   3   2     2.139304593627   103.53309927    89.09778356
 C      9   4   3     1.805675709414    95.99575803   196.97366438
 S     10   9   4     1.812422300645   112.68091601   289.81992160
 P     11  10   9     2.120425334532    96.41656756   290.70211367
 S     12  11  10     1.965342928474   114.17562538   323.69389175
 O     12  11  10     1.587316171801   104.49791806   197.42367901
 C     14  12  11     1.441765626045   122.35139118    85.32214272
 C     15  14  12     1.515752210143   108.15051570   150.07847565
 O     12  11  10     1.582195643756   100.77273706    92.10819828
 C     17  12  11     1.448254909567   124.02703556   155.94024307
 C     18  17  12     1.513892677066   112.39654966    60.51273437
 H      1   2   3     1.087203099134   110.48435242   308.09667641
 H      1   2   3     1.088890063454   110.05847546    68.26486906
 H      1   2   3     1.085256989285   109.21008557   187.67874750
 H      2   1   3     1.094135488254   110.55910967   238.86072643
 H      2   1   3     1.090937495811   111.61462872   116.14082420
 H      7   6   4     1.092028618158   104.14925703   215.07111853
 H      7   6   4     1.094019514109   108.83882366   331.97981369
 H      8   7   6     1.086561370451   109.90315949    55.22906388
 H      8   7   6     1.085586023681   109.11319990   175.07735835
 H      8   7   6     1.086447479031   110.31879767   295.17989622
 H     10   9   4     1.090254782238   106.85779456   169.54866931
 H     10   9   4     1.090170133719   109.58416729    48.31975997
 H     15  14  12     1.092515206024   107.77071553   270.73977777
 H     15  14  12     1.095387508222   108.66058989    28.99586415
 H     16  15  14     1.084994792445   109.03991731   177.82716377
 H     16  15  14     1.086532267902   110.28076039   297.65582778
 H     16  15  14     1.086192430286   110.01545511    57.97362470
 H     18  17  12     1.091331078652   103.41014605   180.78444605
 H     18  17  12     1.091845855928   108.18414094   297.47222207
 H     19  18  17     1.089085061452   110.27139962   295.13006467
 H     19  18  17     1.087567593806   110.36486538    54.76199732
 H     19  18  17     1.085512488434   109.38706083   175.16962146

---------------------------
INTERNAL COORDINATES (A.U.)
---------------------------
 C      0   0   0     0.000000000000     0.00000000     0.00000000
 C      1   0   0     2.862306532870     0.00000000     0.00000000
 O      2   1   0     2.721097548584   112.49481119     0.00000000
 P      3   2   1     3.004500216891   122.43762364   293.66869193
 S      4   3   2     3.690330875110   115.94571123   320.80258731
 O      4   3   2     2.980356882932   102.74119477   198.60352650
 C      6   4   3     2.735054145809   124.16515307   308.97947610
 C      7   6   4     2.862513660946   110.97908549    94.98804738
 S      4   3   2     4.042699798994   103.53309927    89.09778356
 C      9   4   3     3.412232577467    95.99575803   196.97366438
 S     10   9   4     3.424981787231   112.68091601   289.81992160
 P     11  10   9     4.007023169694    96.41656756   290.70211367
 S     12  11  10     3.713959894055   114.17562538   323.69389175
 O     12  11  10     2.999592852647   104.49791806   197.42367901
 C     14  12  11     2.724542182527   122.35139118    85.32214272
 C     15  14  12     2.864356564056   108.15051570   150.07847565
 O     12  11  10     2.989916456983   100.77273706    92.10819828
 C     17  12  11     2.736805151189   124.02703556   155.94024307
 C     18  17  12     2.860842555804   112.39654966    60.51273437
 H      1   2   3     2.054516109314   110.48435242   308.09667641
 H      1   2   3     2.057704009876   110.05847546    68.26486906
 H      1   2   3     2.050838494672   109.21008557   187.67874750
 H      2   1   3     2.067616426205   110.55910967   238.86072643
 H      2   1   3     2.061573096309   111.61462872   116.14082420
 H      7   6   4     2.063635018723   104.14925703   215.07111853
 H      7   6   4     2.067397266832   108.83882366   331.97981369
 H      8   7   6     2.053303417850   109.90315949    55.22906388
 H      8   7   6     2.051460279570   109.11319990   175.07735835
 H      8   7   6     2.053088194258   110.31879767   295.17989622
 H     10   9   4     2.060282954628   106.85779456   169.54866931
 H     10   9   4     2.060122992108   109.58416729    48.31975997
 H     15  14  12     2.064554536529   107.77071553   270.73977777
 H     15  14  12     2.069982401058   108.66058989    28.99586415
 H     16  15  14     2.050343014452   109.03991731   177.82716377
 H     16  15  14     2.053248422003   110.28076039   297.65582778
 H     16  15  14     2.052606221979   110.01545511    57.97362470
 H     18  17  12     2.062316860090   103.41014605   180.78444605
 H     18  17  12     2.063289648161   108.18414094   297.47222207
 H     19  18  17     2.058072502690   110.27139962   295.13006467
 H     19  18  17     2.055204904422   110.36486538    54.76199732
 H     19  18  17     2.051321318093   109.38706083   175.16962146

---------------------
BASIS SET INFORMATION
---------------------
There are 5 groups of distinct atoms

 Group   1 Type C   : 7s4p1d contracted to 3s2p1d pattern {511/31/1}
 Group   2 Type O   : 7s4p1d contracted to 3s2p1d pattern {511/31/1}
 Group   3 Type P   : 10s7p1d contracted to 4s3p1d pattern {5311/511/1}
 Group   4 Type S   : 10s7p1d contracted to 4s3p1d pattern {5311/511/1}
 Group   5 Type H   : 4s contracted to 2s pattern {31}

Atom   0C    basis set group =>   1
Atom   1C    basis set group =>   1
Atom   2O    basis set group =>   2
Atom   3P    basis set group =>   3
Atom   4S    basis set group =>   4
Atom   5O    basis set group =>   2
Atom   6C    basis set group =>   1
Atom   7C    basis set group =>   1
Atom   8S    basis set group =>   4
Atom   9C    basis set group =>   1
Atom  10S    basis set group =>   4
Atom  11P    basis set group =>   3
Atom  12S    basis set group =>   4
Atom  13O    basis set group =>   2
Atom  14C    basis set group =>   1
Atom  15C    basis set group =>   1
Atom  16O    basis set group =>   2
Atom  17C    basis set group =>   1
Atom  18C    basis set group =>   1
Atom  19H    basis set group =>   5
Atom  20H    basis set group =>   5
Atom  21H    basis set group =>   5
Atom  22H    basis set group =>   5
Atom  23H    basis set group =>   5
Atom  24H    basis set group =>   5
Atom  25H    basis set group =>   5
Atom  26H    basis set group =>   5
Atom  27H    basis set group =>   5
Atom  28H    basis set group =>   5
Atom  29H    basis set group =>   5
Atom  30H    basis set group =>   5
Atom  31H    basis set group =>   5
Atom  32H    basis set group =>   5
Atom  33H    basis set group =>   5
Atom  34H    basis set group =>   5
Atom  35H    basis set group =>   5
Atom  36H    basis set group =>   5
Atom  37H    basis set group =>   5
Atom  38H    basis set group =>   5
Atom  39H    basis set group =>   5
Atom  40H    basis set group =>   5
---------------------------------
AUXILIARY/J BASIS SET INFORMATION
---------------------------------
There are 5 groups of distinct atoms

 Group   1 Type C   : 12s5p4d2f1g contracted to 6s4p3d1f1g pattern {711111/2111/211/2/1}
 Group   2 Type O   : 12s5p4d2f1g contracted to 6s4p3d1f1g pattern {711111/2111/211/2/1}
 Group   3 Type P   : 14s5p5d2f1g contracted to 8s4p3d1f1g pattern {71111111/2111/311/2/1}
 Group   4 Type S   : 14s5p5d2f1g contracted to 8s4p3d1f1g pattern {71111111/2111/311/2/1}
 Group   5 Type H   : 5s2p1d contracted to 3s1p1d pattern {311/2/1}

Atom   0C    basis set group =>   1
Atom   1C    basis set group =>   1
Atom   2O    basis set group =>   2
Atom   3P    basis set group =>   3
Atom   4S    basis set group =>   4
Atom   5O    basis set group =>   2
Atom   6C    basis set group =>   1
Atom   7C    basis set group =>   1
Atom   8S    basis set group =>   4
Atom   9C    basis set group =>   1
Atom  10S    basis set group =>   4
Atom  11P    basis set group =>   3
Atom  12S    basis set group =>   4
Atom  13O    basis set group =>   2
Atom  14C    basis set group =>   1
Atom  15C    basis set group =>   1
Atom  16O    basis set group =>   2
Atom  17C    basis set group =>   1
Atom  18C    basis set group =>   1
Atom  19H    basis set group =>   5
Atom  20H    basis set group =>   5
Atom  21H    basis set group =>   5
Atom  22H    basis set group =>   5
Atom  23H    basis set group =>   5
Atom  24H    basis set group =>   5
Atom  25H    basis set group =>   5
Atom  26H    basis set group =>   5
Atom  27H    basis set group =>   5
Atom  28H    basis set group =>   5
Atom  29H    basis set group =>   5
Atom  30H    basis set group =>   5
Atom  31H    basis set group =>   5
Atom  32H    basis set group =>   5
Atom  33H    basis set group =>   5
Atom  34H    basis set group =>   5
Atom  35H    basis set group =>   5
Atom  36H    basis set group =>   5
Atom  37H    basis set group =>   5
Atom  38H    basis set group =>   5
Atom  39H    basis set group =>   5
Atom  40H    basis set group =>   5
------------------------------------------------------------------------------
                             ORCA STARTUP CALCULATIONS
                           -- RI-GTO INTEGRALS CHOSEN --
------------------------------------------------------------------------------
------------------------------------------------------------------------------
                   ___                                                        
                  /   \      - P O W E R E D   B Y -                         
                 /     \                                                     
                 |  |  |   _    _      __       _____    __    __             
                 |  |  |  | |  | |    /  \     |  _  \  |  |  /  |          
                  \  \/   | |  | |   /    \    | | | |  |  | /  /          
                 / \  \   | |__| |  /  /\  \   | |_| |  |  |/  /          
                |  |  |   |  __  | /  /__\  \  |    /   |      \           
                |  |  |   | |  | | |   __   |  |    \   |  |\   \          
                \     /   | |  | | |  |  |  |  | |\  \  |  | \   \       
                 \___/    |_|  |_| |__|  |__|  |_| \__\ |__|  \__/        
                                                                              
                      - O R C A' S   B I G   F R I E N D -                    
                                      &                                       
                       - I N T E G R A L  F E E D E R -                       
                                                                              
 v1 FN, 2020, v2 2021, v3 2022-2024                                           
------------------------------------------------------------------------------


----------------------
SHARK INTEGRAL PACKAGE
----------------------

Number of atoms                             ...     41
Number of basis functions                   ...    334
Number of shells                            ...    170
Maximum angular momentum                    ...      2
Integral batch strategy                     ... SHARK/LIBINT Hybrid
RI-J (if used) integral strategy            ... SPLIT-RIJ (Revised 2003 algorithm where possible)
Printlevel                                  ...      1
Contraction scheme used                     ... SEGMENTED contraction
Prescreening option                         ... SCHWARTZ
   Thresh                                   ... 1.000e-09
   Tcut                                     ... 1.000e-10
   Tpresel                                  ... 1.000e-10 
Coulomb Range Separation                    ... NOT USED
Exchange Range Separation                   ... NOT USED
Multipole approximations                    ... NOT USED
Finite Nucleus Model                        ... NOT USED
CABS basis                                  ... NOT available
Auxiliary Coulomb fitting basis             ... AVAILABLE
   # of basis functions in Aux-J            ...   1185
   # of shells in Aux-J                     ...    407
   Maximum angular momentum in Aux-J        ...      4
Auxiliary J/K fitting basis                 ... NOT available
Auxiliary Correlation fitting basis         ... NOT available
Auxiliary 'external' fitting basis          ... NOT available

Checking pre-screening integrals            ... done (  0.0 sec) Dimension = 170
Check shell pair data                       ... done (  0.0 sec)
Shell pair information
Shell pair cut-off parameter TPreSel        ...   1.0e-10
Total number of shell pairs                 ...     14535
Shell pairs after pre-screening             ...     10035
Total number of primitive shell pairs       ...     62501
Primitive shell pairs kept                  ...     24861
          la=0 lb=0:   3880 shell pairs
          la=1 lb=0:   3402 shell pairs
          la=1 lb=1:    786 shell pairs
          la=2 lb=0:   1283 shell pairs
          la=2 lb=1:    576 shell pairs
          la=2 lb=2:    108 shell pairs

Calculating one electron integrals          ... done (  0.1 sec)
Calculating RI/J V-Matrix + Cholesky decomp.... done (  0.1 sec)
Calculating Nuclear repulsion               ... done (  0.0 sec) ENN=   2743.258865248510 Eh

Diagonalization of the overlap matrix:
Smallest eigenvalue                        ... 3.163e-03
Time for diagonalization                   ...    0.010 sec
Threshold for overlap eigenvalues          ... 1.000e-07
Number of eigenvalues below threshold      ... 0
Time for construction of square roots      ...    0.041 sec
Total time needed                          ...    0.059 sec

-------------------
DFT GRID GENERATION
-------------------

General Integration Accuracy     IntAcc      ... 4.159
Radial Grid Type                 RadialGrid  ... OptM3 with GC (2021)
Angular Grid (max. ang.)         AngularGrid ... 3 (Lebedev-194)
Angular grid pruning method      GridPruning ... 4 (adaptive)
Weight generation scheme         WeightScheme... mBecke (2022)
Basis function cutoff            BFCut       ... 1.0000e-10
Integration weight cutoff        WCut        ... 1.0000e-14
Partially contracted basis set               ... off
Rotationally invariant grid construction     ... off
Angular grids for H and He will be reduced by one unit

Total number of grid points                  ...    97583
Total number of batches                      ...     1544
Average number of points per batch           ...       63
Average number of grid points per atom       ...     2380
Initializing property integral containers    ... done (  0.0 sec)

SHARK setup successfully completed in   1.5 seconds

Maximum memory used throughout the entire STARTUP-calculation: 51.4 MB
-------------------------------------------------------------------------------
                                 ORCA GUESS
                   Start orbitals & Density for SCF / CASSCF
-------------------------------------------------------------------------------

------------
SCF SETTINGS
------------
Hamiltonian:
 Density Functional     Method          .... DFT(GTOs)
 Exchange Functional    Exchange        .... PBE
   PBE kappa parameter   XKappa         ....  0.804000
   PBE mue parameter    XMuePBE         ....  0.219520
 Correlation Functional Correlation     .... PBE
   PBE beta parameter  CBetaPBE         ....  0.066725
 LDA part of GGA corr.  LDAOpt          .... PW91-LDA
 Gradients option       PostSCFGGA      .... off
   NL short-range parameter             ....  6.400000
 RI-approximation to the Coulomb term is turned on
   Number of AuxJ basis functions       .... 1185


General Settings:
 Integral files         IntName         .... sp
 Hartree-Fock type      HFTyp           .... RHF
 Total Charge           Charge          ....    0
 Multiplicity           Mult            ....    1
 Number of Electrons    NEL             ....  202
 Basis Dimension        Dim             ....  334
 Nuclear Repulsion      ENuc            ....   2743.2588652485 Eh

Convergence Acceleration:
 AO-DIIS                CNVDIIS         .... on
   Start iteration      DIISMaxIt       ....    12
   Startup error        DIISStart       ....  0.200000
   # of expansion vecs  DIISMaxEq       ....     5
   Bias factor          DIISBfac        ....   1.050
   Max. coefficient     DIISMaxC        ....  10.000
 MO-DIIS                CNVKDIIS        .... off
 Trust-Rad. Augm. Hess. CNVTRAH         .... auto
   Auto Start mean grad. ratio tolernc. ....  1.125000
   Auto Start start iteration           ....    50
   Auto Start num. interpolation iter.  ....    10
   Max. Number of Micro iterations      ....    24
   Max. Number of Macro iterations      .... Maxiter - #DIIS iter
   Number of Davidson start vectors     ....     2
   Converg. threshold    (grad. norm)   ....   1.000e-04
   Grad. Scal. Fac. for Micro threshold ....   0.100
   Minimum threshold for Micro iter.    ....   1.000e-02
   NR start threshold (gradient norm)   ....   1.000e-04
   Initial trust radius                 ....   0.400
   Minimum AH scaling param. (alpha)    ....   1.000
   Maximum AH scaling param. (alpha)    .... 1000.000
   Quad. conv. algorithm                .... NR
   White noise on init. David. guess    .... on
   Maximum white noise                  ....   0.010
   Pseudo random numbers                .... off
   Inactive MOs                         .... canonical
   Orbital update algorithm             .... Taylor
   Preconditioner                       .... Diag
   Full preconditioner red. dimension   ....   250
 SOSCF                  CNVSOSCF        .... on
   Start iteration      SOSCFMaxIt      ....   150
   Startup grad/error   SOSCFStart      ....  0.003300
   Hessian update       SOSCFHessUp     .... L-BFGS
 Level Shifting         CNVShift        .... on
   Level shift para.    LevelShift      ....    0.2500
   Turn off err/grad.   ShiftErr        ....    0.0010
 Zerner damping         CNVZerner       .... off
 Static damping         CNVDamp         .... on
   Fraction old density DampFac         ....    0.7000
   Max. Damping (<1)    DampMax         ....    0.9800
   Min. Damping (>=0)   DampMin         ....    0.0000
   Turn off err/grad.   DampErr         ....    0.1000

SCF Procedure:
 Maximum # iterations   MaxIter         ....   125
 SCF integral mode      SCFMode         .... Direct
   Integral package                     .... SHARK and LIBINT hybrid scheme
 Reset frequency        DirectResetFreq ....    20
 Integral Threshold     Thresh          ....  1.000e-09 Eh
 Primitive CutOff       TCut            ....  1.000e-10 Eh

Convergence Tolerance:
 Convergence Check Mode ConvCheckMode   .... Total+1el-Energy
 Convergence forced     ConvForced      .... 0
 Energy Change          TolE            ....  1.000e-05 Eh
 1-El. energy change                    ....  1.000e-02 Eh
 Orbital Gradient       TolG            ....  1.000e-04
 Orbital Rotation angle TolX            ....  1.000e-04
 DIIS Error             TolErr          ....  5.000e-04

------------------------------
INITIAL GUESS: MODEL POTENTIAL
------------------------------
Loading Hartree-Fock densities                     ... done
Calculating cut-offs                               ... done
Initializing the effective Hamiltonian             ... done
Setting up the integral package (SHARK)            ... done
Starting the Coulomb interaction                   ... done (   0.6 sec)
Making the grid                                    ... done (   0.5 sec)
Mapping shells                                     ... done
Starting the XC term evaluation                    ... done (   0.3 sec)
  promolecular density results
     # of electrons  =    201.995225808
     EX              =   -229.995121902
     EC              =     -7.282767889
     EX+EC           =   -237.277889791
Transforming the Hamiltonian                       ... done (   0.0 sec)
Diagonalizing the Hamiltonian                      ... done (   0.0 sec)
Back transforming the eigenvectors                 ... done (   0.0 sec)
Now organizing SCF variables                       ... done
                      ------------------
                      INITIAL GUESS DONE (   1.6 sec)
                      ------------------
             **** ENERGY FILE WAS UPDATED (sp.en.tmp) ****
Finished Guess after   1.9 sec
Maximum memory used throughout the entire GUESS-calculation: 38.8 MB

-------------------------------------------------------------------------------------------
                                      ORCA LEAN-SCF
                              memory conserving SCF solver
-------------------------------------------------------------------------------------------

----------------------------------------D-I-I-S--------------------------------------------
Iteration    Energy (Eh)           Delta-E    RMSDP     MaxDP     DIISErr   Damp  Time(sec)
-------------------------------------------------------------------------------------------
               ***  Starting incremental Fock matrix formation  ***
    1    -2929.1979224353153768     0.00e+00  2.66e-03  1.37e-01  1.82e-01  0.700   2.1
    2    -2929.4203563398205006    -2.22e-01  1.72e-03  7.10e-02  7.46e-02  0.700   2.0
                               ***Turning on AO-DIIS***
    3    -2929.4913357281866411    -7.10e-02  6.71e-04  1.66e-02  2.12e-02  0.700   1.9
    4    -2929.5359969291375819    -4.47e-02  1.03e-03  2.97e-02  1.02e-02  0.000   1.9
    5    -2929.6399002385478525    -1.04e-01  3.03e-04  9.88e-03  8.17e-03  0.000   2.0
                              *** Initializing SOSCF ***
---------------------------------------S-O-S-C-F--------------------------------------
Iteration    Energy (Eh)           Delta-E    RMSDP     MaxDP     MaxGrad    Time(sec)
--------------------------------------------------------------------------------------
    6    -2929.6409330672940996    -1.03e-03  1.07e-04  3.20e-03  2.08e-03     1.9
               *** Restarting incremental Fock matrix formation ***
    7    -2929.6410700249443835    -1.37e-04  6.55e-05  1.38e-03  1.83e-04     2.2
    8    -2929.6410753520176513    -5.33e-06  2.16e-05  7.64e-04  1.28e-04     1.7
                 **** Energy Check signals convergence ****

               *****************************************************
               *                     SUCCESS                       *
               *           SCF CONVERGED AFTER   8 CYCLES          *
               *****************************************************

             **** ENERGY FILE WAS UPDATED (sp.en.tmp) ****

----------------
TOTAL SCF ENERGY
----------------

Total Energy       :      -2929.64107535201765 Eh          -79719.58653 eV

Components:
Nuclear Repulsion  :       2743.25886524851012 Eh           74647.86875 eV
Electronic Energy  :      -5672.89994060052777 Eh         -154367.45527 eV
One Electron Energy:      -9505.14462077809549 Eh         -258648.13455 eV
Two Electron Energy:       3832.24468017756772 Eh          104280.67927 eV

Virial components:
Potential Energy   :      -5848.93819705474016 Eh         -159157.69976 eV
Kinetic Energy     :       2919.29712170272251 Eh           79438.11324 eV
Virial Ratio       :          2.00354330279450

DFT components:
N(Alpha)           :      101.000017325539 electrons
N(Beta)            :      101.000017325539 electrons
N(Total)           :      202.000034651078 electrons
E(X)               :     -231.807020209917 Eh       
E(C)               :       -7.292321365978 Eh       
E(XC)              :     -239.099341575896 Eh       

---------------
SCF CONVERGENCE
---------------

  Last Energy change         ...    5.3271e-06  Tolerance :   1.0000e-05
  Last MAX-Density change    ...    7.6380e-04  Tolerance :   1.0000e-03
  Last RMS-Density change    ...    2.1640e-05  Tolerance :   1.0000e-04
  Last DIIS Error            ...    2.0762e-03  Tolerance :   5.0000e-04
  Last Orbital Gradient      ...    1.2756e-04  Tolerance :   1.0000e-04
  Last Orbital Rotation      ...    3.1328e-04  Tolerance :   1.0000e-04


----------------
ORBITAL ENERGIES
----------------

  NO   OCC          E(Eh)            E(eV) 
   0   2.0000     -88.037351     -2395.6181 
   1   2.0000     -88.037299     -2395.6167 
   2   2.0000     -87.988270     -2394.2826 
   3   2.0000     -87.983463     -2394.1517 
   4   2.0000     -76.428709     -2079.7309 
   5   2.0000     -76.423649     -2079.5932 
   6   2.0000     -18.800175      -511.5788 
   7   2.0000     -18.794733      -511.4307 
   8   2.0000     -18.794345      -511.4201 
   9   2.0000     -18.786918      -511.2180 
  10   2.0000      -9.961314      -271.0611 
  11   2.0000      -9.956527      -270.9309 
  12   2.0000      -9.953380      -270.8452 
  13   2.0000      -9.951080      -270.7826 
  14   2.0000      -9.947222      -270.6777 
  15   2.0000      -9.892786      -269.1964 
  16   2.0000      -9.887704      -269.0581 
  17   2.0000      -9.883960      -268.9562 
  18   2.0000      -9.883044      -268.9313 
  19   2.0000      -7.682642      -209.0553 
  20   2.0000      -7.682124      -209.0412 
  21   2.0000      -7.633294      -207.7125 
  22   2.0000      -7.628823      -207.5908 
  23   2.0000      -6.426276      -174.8679 
  24   2.0000      -6.421148      -174.7283 
  25   2.0000      -5.710502      -155.3907 
  26   2.0000      -5.709852      -155.3730 
  27   2.0000      -5.707316      -155.3040 
  28   2.0000      -5.706781      -155.2894 
  29   2.0000      -5.699450      -155.0899 
  30   2.0000      -5.699137      -155.0814 
  31   2.0000      -5.662067      -154.0727 
  32   2.0000      -5.657749      -153.9552 
  33   2.0000      -5.654017      -153.8536 
  34   2.0000      -5.653505      -153.8397 
  35   2.0000      -5.649314      -153.7256 
  36   2.0000      -5.649045      -153.7183 
  37   2.0000      -4.649278      -126.5133 
  38   2.0000      -4.647804      -126.4732 
  39   2.0000      -4.646544      -126.4389 
  40   2.0000      -4.644085      -126.3720 
  41   2.0000      -4.642783      -126.3365 
  42   2.0000      -4.641410      -126.2992 
  43   2.0000      -0.992836       -27.0164 
  44   2.0000      -0.986359       -26.8402 
  45   2.0000      -0.949196       -25.8289 
  46   2.0000      -0.943320       -25.6691 
  47   2.0000      -0.761553       -20.7229 
  48   2.0000      -0.722758       -19.6672 
  49   2.0000      -0.709824       -19.3153 
  50   2.0000      -0.695083       -18.9142 
  51   2.0000      -0.689128       -18.7521 
  52   2.0000      -0.673653       -18.3310 
  53   2.0000      -0.650154       -17.6916 
  54   2.0000      -0.636289       -17.3143 
  55   2.0000      -0.598598       -16.2887 
  56   2.0000      -0.591746       -16.1022 
  57   2.0000      -0.577809       -15.7230 
  58   2.0000      -0.573171       -15.5968 
  59   2.0000      -0.558298       -15.1921 
  60   2.0000      -0.510076       -13.8799 
  61   2.0000      -0.496378       -13.5071 
  62   2.0000      -0.478836       -13.0298 
  63   2.0000      -0.472936       -12.8692 
  64   2.0000      -0.459472       -12.5029 
  65   2.0000      -0.447560       -12.1787 
  66   2.0000      -0.443418       -12.0660 
  67   2.0000      -0.436918       -11.8891 
  68   2.0000      -0.426741       -11.6122 
  69   2.0000      -0.416717       -11.3394 
  70   2.0000      -0.414145       -11.2695 
  71   2.0000      -0.401483       -10.9249 
  72   2.0000      -0.391117       -10.6428 
  73   2.0000      -0.381537       -10.3821 
  74   2.0000      -0.375759       -10.2249 
  75   2.0000      -0.374055       -10.1786 
  76   2.0000      -0.367038        -9.9876 
  77   2.0000      -0.360517        -9.8102 
  78   2.0000      -0.357186        -9.7195 
  79   2.0000      -0.351936        -9.5767 
  80   2.0000      -0.350132        -9.5276 
  81   2.0000      -0.346828        -9.4377 
  82   2.0000      -0.342788        -9.3277 
  83   2.0000      -0.342371        -9.3164 
  84   2.0000      -0.338127        -9.2009 
  85   2.0000      -0.323284        -8.7970 
  86   2.0000      -0.311709        -8.4820 
  87   2.0000      -0.304336        -8.2814 
  88   2.0000      -0.295105        -8.0302 
  89   2.0000      -0.293923        -7.9981 
  90   2.0000      -0.290294        -7.8993 
  91   2.0000      -0.279626        -7.6090 
  92   2.0000      -0.267996        -7.2926 
  93   2.0000      -0.263301        -7.1648 
  94   2.0000      -0.258140        -7.0243 
  95   2.0000      -0.233414        -6.3515 
  96   2.0000      -0.214613        -5.8399 
  97   2.0000      -0.212389        -5.7794 
  98   2.0000      -0.202379        -5.5070 
  99   2.0000      -0.198445        -5.4000 
 100   2.0000      -0.197475        -5.3736 
 101   0.0000      -0.042997        -1.1700 
 102   0.0000      -0.021891        -0.5957 
 103   0.0000      -0.000124        -0.0034 
 104   0.0000       0.001830         0.0498 
 105   0.0000       0.013945         0.3795 
 106   0.0000       0.019837         0.5398 
 107   0.0000       0.030278         0.8239 
 108   0.0000       0.037646         1.0244 
 109   0.0000       0.041562         1.1310 
 110   0.0000       0.043174         1.1748 
 111   0.0000       0.049403         1.3443 
*Only the first 10 virtual orbitals were printed.

                    ********************************
                    * MULLIKEN POPULATION ANALYSIS *
                    ********************************

-----------------------
MULLIKEN ATOMIC CHARGES
-----------------------
   0 C :   -0.315668
   1 C :   -0.000787
   2 O :   -0.383882
   3 P :    0.604326
   4 S :   -0.317152
   5 O :   -0.348470
   6 C :   -0.020915
   7 C :   -0.285541
   8 S :   -0.085558
   9 C :   -0.378356
  10 S :   -0.069634
  11 P :    0.627287
  12 S :   -0.335023
  13 O :   -0.387789
  14 C :   -0.009991
  15 C :   -0.286608
  16 O :   -0.364364
  17 C :   -0.007354
  18 C :   -0.311739
  19 H :    0.117738
  20 H :    0.128528
  21 H :    0.113242
  22 H :    0.113892
  23 H :    0.103740
  24 H :    0.111996
  25 H :    0.108825
  26 H :    0.118379
  27 H :    0.103996
  28 H :    0.120720
  29 H :    0.195771
  30 H :    0.192905
  31 H :    0.107322
  32 H :    0.109845
  33 H :    0.115092
  34 H :    0.117265
  35 H :    0.117384
  36 H :    0.103428
  37 H :    0.111346
  38 H :    0.128885
  39 H :    0.126804
  40 H :    0.110115
Sum of atomic charges:    0.0000000

--------------------------------
MULLIKEN REDUCED ORBITAL CHARGES
--------------------------------
  0 C s       :     3.107464  s :     3.107464
      pz      :     1.014585  p :     3.180157
      px      :     1.069389
      py      :     1.096183
      dz2     :     0.006072  d :     0.028047
      dxz     :     0.006597
      dyz     :     0.004469
      dx2y2   :     0.003185
      dxy     :     0.007724

  1 C s       :     3.075839  s :     3.075839
      pz      :     0.912504  p :     2.864626
      px      :     0.868001
      py      :     1.084121
      dz2     :     0.014246  d :     0.060322
      dxz     :     0.017358
      dyz     :     0.007742
      dx2y2   :     0.007298
      dxy     :     0.013678

  2 O s       :     3.757817  s :     3.757817
      pz      :     1.629827  p :     4.613214
      px      :     1.405846
      py      :     1.577542
      dz2     :     0.002389  d :     0.012851
      dxz     :     0.002671
      dyz     :     0.001892
      dx2y2   :     0.002534
      dxy     :     0.003365

  3 P s       :     5.214303  s :     5.214303
      pz      :     2.852171  p :     8.593287
      px      :     2.881366
      py      :     2.859751
      dz2     :     0.126474  d :     0.588084
      dxz     :     0.127694
      dyz     :     0.098433
      dx2y2   :     0.107701
      dxy     :     0.127781

  4 S s       :     5.916711  s :     5.916711
      pz      :     3.673593  p :    10.357649
      px      :     3.536599
      py      :     3.147456
      dz2     :     0.005678  d :     0.042792
      dxz     :     0.002079
      dyz     :     0.008506
      dx2y2   :     0.012772
      dxy     :     0.013757

  5 O s       :     3.755030  s :     3.755030
      pz      :     1.432429  p :     4.580216
      px      :     1.644731
      py      :     1.503056
      dz2     :     0.003699  d :     0.013224
      dxz     :     0.002657
      dyz     :     0.002392
      dx2y2   :     0.002402
      dxy     :     0.002075

  6 C s       :     3.102436  s :     3.102436
      pz      :     1.010814  p :     2.858940
      px      :     1.026457
      py      :     0.821670
      dz2     :     0.007102  d :     0.059540
      dxz     :     0.011263
      dyz     :     0.015491
      dx2y2   :     0.012099
      dxy     :     0.013584

  7 C s       :     3.086390  s :     3.086390
      pz      :     1.061204  p :     3.171247
      px      :     1.060116
      py      :     1.049927
      dz2     :     0.002910  d :     0.027903
      dxz     :     0.007847
      dyz     :     0.007121
      dx2y2   :     0.003082
      dxy     :     0.006943

  8 S s       :     5.882516  s :     5.882516
      pz      :     3.555886  p :    10.127821
      px      :     3.368827
      py      :     3.203109
      dz2     :     0.010372  d :     0.075220
      dxz     :     0.015409
      dyz     :     0.011293
      dx2y2   :     0.020181
      dxy     :     0.017966

  9 C s       :     3.228985  s :     3.228985
      pz      :     1.040479  p :     3.108881
      px      :     1.093076
      py      :     0.975326
      dz2     :     0.008515  d :     0.040490
      dxz     :     0.009164
      dyz     :     0.006231
      dx2y2   :     0.005733
      dxy     :     0.010848

 10 S s       :     5.883511  s :     5.883511
      pz      :     3.359420  p :    10.111035
      px      :     3.237859
      py      :     3.513756
      dz2     :     0.018378  d :     0.075088
      dxz     :     0.015704
      dyz     :     0.012491
      dx2y2   :     0.007700
      dxy     :     0.020814

 11 P s       :     5.200718  s :     5.200718
      pz      :     2.846058  p :     8.584714
      px      :     2.879744
      py      :     2.858912
      dz2     :     0.125214  d :     0.587281
      dxz     :     0.121395
      dyz     :     0.133553
      dx2y2   :     0.089102
      dxy     :     0.118017

 12 S s       :     5.923164  s :     5.923164
      pz      :     3.125742  p :    10.369046
      px      :     3.588463
      py      :     3.654841
      dz2     :     0.018670  d :     0.042814
      dxz     :     0.011333
      dyz     :     0.009481
      dx2y2   :     0.001591
      dxy     :     0.001738

 13 O s       :     3.765106  s :     3.765106
      pz      :     1.622738  p :     4.609769
      px      :     1.450019
      py      :     1.537012
      dz2     :     0.002129  d :     0.012914
      dxz     :     0.003649
      dyz     :     0.002932
      dx2y2   :     0.002280
      dxy     :     0.001925

 14 C s       :     3.074611  s :     3.074611
      pz      :     1.062589  p :     2.875848
      px      :     0.911819
      py      :     0.901439
      dz2     :     0.014690  d :     0.059532
      dxz     :     0.008926
      dyz     :     0.006052
      dx2y2   :     0.012610
      dxy     :     0.017255

 15 C s       :     3.095550  s :     3.095550
      pz      :     1.066260  p :     3.163218
      px      :     1.022202
      py      :     1.074756
      dz2     :     0.009531  d :     0.027840
      dxz     :     0.004530
      dyz     :     0.001901
      dx2y2   :     0.003897
      dxy     :     0.007981

 16 O s       :     3.755303  s :     3.755303
      pz      :     1.571034  p :     4.596138
      px      :     1.600719
      py      :     1.424385
      dz2     :     0.001936  d :     0.012923
      dxz     :     0.002634
      dyz     :     0.002349
      dx2y2   :     0.002386
      dxy     :     0.003618

 17 C s       :     3.081804  s :     3.081804
      pz      :     1.004836  p :     2.865517
      px      :     0.955489
      py      :     0.905192
      dz2     :     0.006891  d :     0.060034
      dxz     :     0.014695
      dyz     :     0.013733
      dx2y2   :     0.007444
      dxy     :     0.017270

 18 C s       :     3.106515  s :     3.106515
      pz      :     1.048259  p :     3.177257
      px      :     1.069635
      py      :     1.059363
      dz2     :     0.001746  d :     0.027966
      dxz     :     0.008524
      dyz     :     0.008130
      dx2y2   :     0.001887
      dxy     :     0.007679

 19 H s       :     0.882262  s :     0.882262

 20 H s       :     0.871472  s :     0.871472

 21 H s       :     0.886758  s :     0.886758

 22 H s       :     0.886108  s :     0.886108

 23 H s       :     0.896260  s :     0.896260

 24 H s       :     0.888004  s :     0.888004

 25 H s       :     0.891175  s :     0.891175

 26 H s       :     0.881621  s :     0.881621

 27 H s       :     0.896004  s :     0.896004

 28 H s       :     0.879280  s :     0.879280

 29 H s       :     0.804229  s :     0.804229

 30 H s       :     0.807095  s :     0.807095

 31 H s       :     0.892678  s :     0.892678

 32 H s       :     0.890155  s :     0.890155

 33 H s       :     0.884908  s :     0.884908

 34 H s       :     0.882735  s :     0.882735

 35 H s       :     0.882616  s :     0.882616

 36 H s       :     0.896572  s :     0.896572

 37 H s       :     0.888654  s :     0.888654

 38 H s       :     0.871115  s :     0.871115

 39 H s       :     0.873196  s :     0.873196

 40 H s       :     0.889885  s :     0.889885


------------------------
MULLIKEN OVERLAP CHARGES
------------------------
B(  0-C ,  1-C ) :   0.9319 B(  0-C ,  2-O ) :  -0.0924 B(  0-C , 19-H ) :   0.7282 
B(  0-C , 20-H ) :   0.7241 B(  0-C , 21-H ) :   0.6885 B(  0-C , 22-H ) :  -0.0680 
B(  0-C , 23-H ) :  -0.0512 B(  1-C ,  2-O ) :   0.5600 B(  1-C ,  3-P ) :  -0.0845 
B(  1-C , 22-H ) :   0.7287 B(  1-C , 23-H ) :   0.7249 B(  2-O ,  3-P ) :   0.6133 
B(  2-O ,  4-S ) :  -0.0639 B(  2-O ,  5-O ) :  -0.0611 B(  2-O ,  8-S ) :  -0.0708 
B(  2-O , 22-H ) :  -0.0676 B(  2-O , 23-H ) :  -0.0607 B(  3-P ,  4-S ) :   0.9172 
B(  3-P ,  5-O ) :   0.6367 B(  3-P ,  6-C ) :  -0.0594 B(  3-P ,  8-S ) :   0.5509 
B(  3-P ,  9-C ) :  -0.0825 B(  4-S ,  5-O ) :  -0.0653 B(  4-S ,  8-S ) :  -0.0904 
B(  4-S , 22-H ) :   0.0563 B(  4-S , 30-H ) :   0.0922 B(  5-O ,  6-C ) :   0.5319 
B(  5-O ,  7-C ) :  -0.1036 B(  5-O ,  8-S ) :  -0.0681 B(  5-O , 24-H ) :  -0.0548 
B(  5-O , 25-H ) :  -0.0608 B(  6-C ,  7-C ) :   0.8733 B(  6-C , 24-H ) :   0.7365 
B(  6-C , 25-H ) :   0.7171 B(  7-C , 24-H ) :  -0.0545 B(  7-C , 25-H ) :  -0.0711 
B(  7-C , 26-H ) :   0.7284 B(  7-C , 27-H ) :   0.6924 B(  7-C , 28-H ) :   0.7326 
B(  8-S ,  9-C ) :   0.4876 B(  8-S , 10-S ) :  -0.1749 B(  8-S , 29-H ) :  -0.0586 
B(  8-S , 30-H ) :  -0.0646 B(  9-C , 10-S ) :   0.4879 B(  9-C , 11-P ) :  -0.0715 
B(  9-C , 29-H ) :   0.6560 B(  9-C , 30-H ) :   0.6577 B( 10-S , 11-P ) :   0.5177 
B( 10-S , 12-S ) :  -0.0987 B( 10-S , 13-O ) :  -0.0571 B( 10-S , 16-O ) :  -0.0702 
B( 10-S , 29-H ) :  -0.0616 B( 10-S , 30-H ) :  -0.0612 B( 11-P , 12-S ) :   0.9404 
B( 11-P , 13-O ) :   0.6226 B( 11-P , 14-C ) :  -0.0835 B( 11-P , 16-O ) :   0.6271 
B( 11-P , 17-C ) :  -0.0814 B( 12-S , 13-O ) :  -0.0711 B( 12-S , 16-O ) :  -0.0610 
B( 12-S , 29-H ) :   0.0913 B( 12-S , 32-H ) :   0.0833 B( 13-O , 14-C ) :   0.5527 
B( 13-O , 15-C ) :  -0.1146 B( 13-O , 16-O ) :  -0.0657 B( 13-O , 31-H ) :  -0.0616 
B( 13-O , 32-H ) :  -0.0693 B( 14-C , 15-C ) :   0.8615 B( 14-C , 31-H ) :   0.7351 
B( 14-C , 32-H ) :   0.6912 B( 15-C , 31-H ) :  -0.0538 B( 15-C , 33-H ) :   0.7023 
B( 15-C , 34-H ) :   0.7428 B( 15-C , 35-H ) :   0.7448 B( 16-O , 17-C ) :   0.5500 
B( 16-O , 18-C ) :  -0.0965 B( 16-O , 36-H ) :  -0.0675 B( 16-O , 37-H ) :  -0.0584 
B( 17-C , 18-C ) :   0.9162 B( 17-C , 36-H ) :   0.7229 B( 17-C , 37-H ) :   0.7476 
B( 18-C , 36-H ) :  -0.0514 B( 18-C , 37-H ) :  -0.0737 B( 18-C , 38-H ) :   0.7321 
B( 18-C , 39-H ) :   0.7380 B( 18-C , 40-H ) :   0.6872 B( 19-H , 20-H ) :  -0.0533 
B( 22-H , 23-H ) :  -0.0660 B( 24-H , 25-H ) :  -0.0735 B( 31-H , 32-H ) :  -0.0693 
B( 34-H , 35-H ) :  -0.0553 B( 36-H , 37-H ) :  -0.0742 


                     *******************************
                     * LOEWDIN POPULATION ANALYSIS *
                     *******************************

----------------------
LOEWDIN ATOMIC CHARGES
----------------------
   0 C :   -0.370679
   1 C :   -0.116353
   2 O :   -0.248693
   3 P :    0.573207
   4 S :   -0.310704
   5 O :   -0.231138
   6 C :   -0.115394
   7 C :   -0.360384
   8 S :    0.079724
   9 C :   -0.489527
  10 S :    0.085878
  11 P :    0.571210
  12 S :   -0.316715
  13 O :   -0.249181
  14 C :   -0.119798
  15 C :   -0.351440
  16 O :   -0.240327
  17 C :   -0.109529
  18 C :   -0.367051
  19 H :    0.123511
  20 H :    0.121875
  21 H :    0.131213
  22 H :    0.113423
  23 H :    0.117782
  24 H :    0.118798
  25 H :    0.104059
  26 H :    0.128289
  27 H :    0.126618
  28 H :    0.125393
  29 H :    0.127640
  30 H :    0.127849
  31 H :    0.114898
  32 H :    0.108365
  33 H :    0.132546
  34 H :    0.126441
  35 H :    0.126628
  36 H :    0.115862
  37 H :    0.113597
  38 H :    0.121459
  39 H :    0.131344
  40 H :    0.129305

-------------------------------
LOEWDIN REDUCED ORBITAL CHARGES
-------------------------------
  0 C s       :     2.954217  s :     2.954217
      pz      :     1.076608  p :     3.347191
      px      :     1.130854
      py      :     1.139729
      dz2     :     0.017283  d :     0.069271
      dxz     :     0.016635
      dyz     :     0.009378
      dx2y2   :     0.007280
      dxy     :     0.018695

  1 C s       :     2.927021  s :     2.927021
      pz      :     0.987553  p :     3.054402
      px      :     0.928531
      py      :     1.138319
      dz2     :     0.035283  d :     0.134930
      dxz     :     0.038493
      dyz     :     0.014471
      dx2y2   :     0.015187
      dxy     :     0.031495

  2 O s       :     3.498026  s :     3.498026
      pz      :     1.634472  p :     4.727037
      px      :     1.464730
      py      :     1.627835
      dz2     :     0.004307  d :     0.023630
      dxz     :     0.005227
      dyz     :     0.002474
      dx2y2   :     0.004567
      dxy     :     0.007055

  3 P s       :     5.057394  s :     5.057394
      pz      :     2.833149  p :     8.552455
      px      :     2.850478
      py      :     2.868828
      dz2     :     0.183153  d :     0.816944
      dxz     :     0.181181
      dyz     :     0.123973
      dx2y2   :     0.143223
      dxy     :     0.185414

  4 S s       :     5.761858  s :     5.761858
      pz      :     3.680682  p :    10.491127
      px      :     3.564556
      py      :     3.245889
      dz2     :     0.008756  d :     0.057720
      dxz     :     0.002187
      dyz     :     0.009561
      dx2y2   :     0.017422
      dxy     :     0.019794

  5 O s       :     3.499973  s :     3.499973
      pz      :     1.506598  p :     4.707222
      px      :     1.659774
      py      :     1.540849
      dz2     :     0.007403  d :     0.023943
      dxz     :     0.004801
      dyz     :     0.004039
      dx2y2   :     0.004081
      dxy     :     0.003619

  6 C s       :     2.929928  s :     2.929928
      pz      :     1.079659  p :     3.052661
      px      :     1.063364
      py      :     0.909638
      dz2     :     0.013244  d :     0.132805
      dxz     :     0.027611
      dyz     :     0.035497
      dx2y2   :     0.024934
      dxy     :     0.031518

  7 C s       :     2.952145  s :     2.952145
      pz      :     1.116334  p :     3.339103
      px      :     1.112892
      py      :     1.109877
      dz2     :     0.005857  d :     0.069135
      dxz     :     0.020216
      dyz     :     0.018319
      dx2y2   :     0.007345
      dxy     :     0.017397

  8 S s       :     5.648033  s :     5.648033
      pz      :     3.541464  p :    10.176796
      px      :     3.372247
      py      :     3.263085
      dz2     :     0.013391  d :     0.095447
      dxz     :     0.020018
      dyz     :     0.013032
      dx2y2   :     0.025482
      dxy     :     0.023524

  9 C s       :     3.065604  s :     3.065604
      pz      :     1.104262  p :     3.334723
      px      :     1.153816
      py      :     1.076645
      dz2     :     0.019058  d :     0.089201
      dxz     :     0.020585
      dyz     :     0.013015
      dx2y2   :     0.012318
      dxy     :     0.024225

 10 S s       :     5.648544  s :     5.648544
      pz      :     3.393737  p :    10.170481
      px      :     3.247103
      py      :     3.529641
      dz2     :     0.022697  d :     0.095097
      dxz     :     0.020958
      dyz     :     0.015342
      dx2y2   :     0.008833
      dxy     :     0.027267

 11 P s       :     5.057127  s :     5.057127
      pz      :     2.878190  p :     8.555183
      px      :     2.843427
      py      :     2.833566
      dz2     :     0.169350  d :     0.816480
      dxz     :     0.171758
      dyz     :     0.189467
      dx2y2   :     0.117610
      dxy     :     0.168294

 12 S s       :     5.767993  s :     5.767993
      pz      :     3.219246  p :    10.491298
      px      :     3.604891
      py      :     3.667161
      dz2     :     0.026950  d :     0.057424
      dxz     :     0.015155
      dyz     :     0.011716
      dx2y2   :     0.001634
      dxy     :     0.001968

 13 O s       :     3.500061  s :     3.500061
      pz      :     1.667275  p :     4.725485
      px      :     1.494487
      py      :     1.563724
      dz2     :     0.002930  d :     0.023635
      dxz     :     0.007097
      dyz     :     0.005022
      dx2y2   :     0.004197
      dxy     :     0.004389

 14 C s       :     2.930628  s :     2.930628
      pz      :     1.110795  p :     3.056239
      px      :     0.975248
      py      :     0.970196
      dz2     :     0.033258  d :     0.132931
      dxz     :     0.021514
      dyz     :     0.011661
      dx2y2   :     0.029894
      dxy     :     0.036605

 15 C s       :     2.951115  s :     2.951115
      pz      :     1.118335  p :     3.331218
      px      :     1.082985
      py      :     1.129898
      dz2     :     0.022722  d :     0.069107
      dxz     :     0.012517
      dyz     :     0.004268
      dx2y2   :     0.010709
      dxy     :     0.018891

 16 O s       :     3.500188  s :     3.500188
      pz      :     1.610466  p :     4.716614
      px      :     1.628414
      py      :     1.477734
      dz2     :     0.003085  d :     0.023525
      dxz     :     0.004487
      dyz     :     0.005400
      dx2y2   :     0.003921
      dxy     :     0.006632

 17 C s       :     2.926702  s :     2.926702
      pz      :     1.044449  p :     3.049544
      px      :     1.025365
      py      :     0.979730
      dz2     :     0.012705  d :     0.133283
      dxz     :     0.035799
      dyz     :     0.031990
      dx2y2   :     0.013250
      dxy     :     0.039539

 18 C s       :     2.952839  s :     2.952839
      pz      :     1.111924  p :     3.344923
      px      :     1.117162
      py      :     1.115838
      dz2     :     0.003911  d :     0.069289
      dxz     :     0.021552
      dyz     :     0.020572
      dx2y2   :     0.003433
      dxy     :     0.019821

 19 H s       :     0.876489  s :     0.876489

 20 H s       :     0.878125  s :     0.878125

 21 H s       :     0.868787  s :     0.868787

 22 H s       :     0.886577  s :     0.886577

 23 H s       :     0.882218  s :     0.882218

 24 H s       :     0.881202  s :     0.881202

 25 H s       :     0.895941  s :     0.895941

 26 H s       :     0.871711  s :     0.871711

 27 H s       :     0.873382  s :     0.873382

 28 H s       :     0.874607  s :     0.874607

 29 H s       :     0.872360  s :     0.872360

 30 H s       :     0.872151  s :     0.872151

 31 H s       :     0.885102  s :     0.885102

 32 H s       :     0.891635  s :     0.891635

 33 H s       :     0.867454  s :     0.867454

 34 H s       :     0.873559  s :     0.873559

 35 H s       :     0.873372  s :     0.873372

 36 H s       :     0.884138  s :     0.884138

 37 H s       :     0.886403  s :     0.886403

 38 H s       :     0.878541  s :     0.878541

 39 H s       :     0.868656  s :     0.868656

 40 H s       :     0.870695  s :     0.870695


---------------------------------
LOEWDIN BOND ORDERS (THRESH 0.050000)
---------------------------------
B(  0-C ,  1-C ) :   1.1584 B(  0-C ,  2-O ) :   0.0583 B(  0-C , 19-H ) :   0.9349 
B(  0-C , 20-H ) :   0.9277 B(  0-C , 21-H ) :   0.9242 B(  1-C ,  2-O ) :   1.0886 
B(  1-C ,  3-P ) :   0.0635 B(  1-C , 22-H ) :   0.9087 B(  1-C , 23-H ) :   0.9175 
B(  2-O ,  3-P ) :   1.2636 B(  2-O ,  4-S ) :   0.0883 B(  2-O ,  5-O ) :   0.0525 
B(  2-O ,  8-S ) :   0.0582 B(  3-P ,  4-S ) :   1.7523 B(  3-P ,  5-O ) :   1.3105 
B(  3-P ,  6-C ) :   0.0647 B(  3-P ,  8-S ) :   1.0190 B(  4-S ,  5-O ) :   0.0719 
B(  4-S ,  8-S ) :   0.1286 B(  4-S , 30-H ) :   0.0543 B(  5-O ,  6-C ) :   1.0752 
B(  5-O ,  7-C ) :   0.0586 B(  5-O ,  8-S ) :   0.0716 B(  6-C ,  7-C ) :   1.1560 
B(  6-C , 24-H ) :   0.9162 B(  6-C , 25-H ) :   0.9086 B(  7-C , 26-H ) :   0.9355 
B(  7-C , 27-H ) :   0.9276 B(  7-C , 28-H ) :   0.9327 B(  8-S ,  9-C ) :   1.1744 
B(  8-S , 10-S ) :   0.1054 B(  9-C , 10-S ) :   1.1668 B(  9-C , 29-H ) :   0.9040 
B(  9-C , 30-H ) :   0.9036 B( 10-S , 11-P ) :   1.0695 B( 10-S , 12-S ) :   0.1356 
B( 10-S , 13-O ) :   0.0557 B( 11-P , 12-S ) :   1.7131 B( 11-P , 13-O ) :   1.2706 
B( 11-P , 14-C ) :   0.0660 B( 11-P , 16-O ) :   1.2903 B( 11-P , 17-C ) :   0.0598 
B( 12-S , 13-O ) :   0.0904 B( 12-S , 16-O ) :   0.0855 B( 12-S , 29-H ) :   0.0545 
B( 13-O , 14-C ) :   1.0779 B( 13-O , 15-C ) :   0.0591 B( 13-O , 16-O ) :   0.0531 
B( 14-C , 15-C ) :   1.1566 B( 14-C , 31-H ) :   0.9173 B( 14-C , 32-H ) :   0.9018 
B( 15-C , 33-H ) :   0.9284 B( 15-C , 34-H ) :   0.9372 B( 15-C , 35-H ) :   0.9372 
B( 16-O , 17-C ) :   1.0788 B( 16-O , 18-C ) :   0.0573 B( 17-C , 18-C ) :   1.1608 
B( 17-C , 36-H ) :   0.9173 B( 17-C , 37-H ) :   0.9165 B( 18-C , 38-H ) :   0.9269 
B( 18-C , 39-H ) :   0.9341 B( 18-C , 40-H ) :   0.9241 

------------------------------------------
LOEWDIN REDUCED ORBITAL POPULATIONS PER MO
-------------------------------------------
THRESHOLD FOR PRINTING IS 0.1%%
                      0         1         2         3         4         5   
                 -88.03735 -88.03730 -87.98827 -87.98346 -76.42871 -76.42365
                   2.00000   2.00000   2.00000   2.00000   2.00000   2.00000
                  --------  --------  --------  --------  --------  --------
 3 P  s               0.0       0.0       0.0       0.0       0.0     100.0
 4 S  s               0.0       0.0       0.0     100.0       0.0       0.0
 8 S  s              88.1      11.9       0.0       0.0       0.0       0.0
10 S  s              11.9      88.1       0.0       0.0       0.0       0.0
11 P  s               0.0       0.0       0.0       0.0     100.0       0.0
12 S  s               0.0       0.0     100.0       0.0       0.0       0.0

                      6         7         8         9        10        11   
                 -18.80017 -18.79473 -18.79435 -18.78692  -9.96131  -9.95653
                   2.00000   2.00000   2.00000   2.00000   2.00000   2.00000
                  --------  --------  --------  --------  --------  --------
 2 O  s               0.0      99.9       0.0       0.0       0.0       0.0
 5 O  s               0.0       0.0       0.0      99.9       0.0       0.0
13 O  s              99.9       0.0       0.0       0.0       0.0       0.0
14 C  s               0.0       0.0       0.0       0.0       0.0      99.7
16 O  s               0.0       0.0      99.9       0.0       0.0       0.0
17 C  s               0.0       0.0       0.0       0.0      99.7       0.0

                     12        13        14        15        16        17   
                  -9.95338  -9.95108  -9.94722  -9.89279  -9.88770  -9.88396
                   2.00000   2.00000   2.00000   2.00000   2.00000   2.00000
                  --------  --------  --------  --------  --------  --------
 0 C  pz              0.1       0.0       0.0       0.0       0.0       0.0
 1 C  s              99.7       0.0       0.0       0.0       0.0       0.0
 6 C  s               0.0      99.7       0.0       0.0       0.0       0.0
 7 C  s               0.0       0.0       0.0       0.0       0.0      99.7
 9 C  s               0.0       0.0      99.8       0.0       0.0       0.0
15 C  s               0.0       0.0       0.0      99.7       0.0       0.0
18 C  s               0.0       0.0       0.0       0.0      99.7       0.0

                     18        19        20        21        22        23   
                  -9.88304  -7.68264  -7.68212  -7.63329  -7.62882  -6.42628
                   2.00000   2.00000   2.00000   2.00000   2.00000   2.00000
                  --------  --------  --------  --------  --------  --------
 0 C  s              99.7       0.0       0.0       0.0       0.0       0.0
 1 C  pz              0.1       0.0       0.0       0.0       0.0       0.0
 4 S  s               0.0       0.0       0.0       0.0      99.9       0.0
 8 S  s               0.0       0.0      99.7       0.0       0.0       0.0
 9 C  pz              0.0       0.1       0.0       0.0       0.0       0.0
 9 C  py              0.0       0.0       0.1       0.0       0.0       0.0
10 S  s               0.0      99.7       0.0       0.0       0.0       0.0
11 P  s               0.0       0.0       0.0       0.0       0.0      99.3
12 S  s               0.0       0.0       0.0      99.9       0.0       0.0
13 O  px              0.0       0.0       0.0       0.0       0.0       0.1
16 O  py              0.0       0.0       0.0       0.0       0.0       0.1

                     24        25        26        27        28        29   
                  -6.42115  -5.71050  -5.70985  -5.70732  -5.70678  -5.69945
                   2.00000   2.00000   2.00000   2.00000   2.00000   2.00000
                  --------  --------  --------  --------  --------  --------
 2 O  py              0.1       0.0       0.0       0.0       0.0       0.0
 3 P  s              99.3       0.0       0.0       0.0       0.0       0.0
 5 O  pz              0.2       0.0       0.0       0.0       0.0       0.0
 8 S  pz              0.0       0.0      28.0       0.0      14.0       0.0
 8 S  px              0.0       0.0      54.6       0.0       5.7       0.0
 8 S  py              0.0       0.0      17.4       0.0      80.3       0.0
10 S  pz              0.0      19.9       0.0      47.4       0.0      32.6
10 S  px              0.0      73.2       0.0       2.0       0.0      24.8
10 S  py              0.0       6.9       0.0      50.5       0.0      42.6

                     30        31        32        33        34        35   
                  -5.69914  -5.66207  -5.65775  -5.65402  -5.65351  -5.64931
                   2.00000   2.00000   2.00000   2.00000   2.00000   2.00000
                  --------  --------  --------  --------  --------  --------
 4 S  pz              0.0       0.0       1.0       0.0       0.0      11.1
 4 S  px              0.0       0.0      20.2       0.0       0.0      73.2
 4 S  py              0.0       0.0      78.8       0.0       0.0      15.7
 8 S  pz             58.0       0.0       0.0       0.0       0.0       0.0
 8 S  px             39.7       0.0       0.0       0.0       0.0       0.0
 8 S  py              2.3       0.0       0.0       0.0       0.0       0.0
12 S  pz              0.0      84.4       0.0      13.6       2.1       0.0
12 S  px              0.0      11.2       0.0      84.2       4.6       0.0
12 S  py              0.0       4.4       0.0       2.2      93.4       0.0

                     36        37        38        39        40        41   
                  -5.64905  -4.64928  -4.64780  -4.64654  -4.64408  -4.64278
                   2.00000   2.00000   2.00000   2.00000   2.00000   2.00000
                  --------  --------  --------  --------  --------  --------
 3 P  pz              0.0       0.0       0.0       0.0      34.2      65.6
 3 P  px              0.0       0.0       0.0       0.0      32.8      15.8
 3 P  py              0.0       0.0       0.0       0.0      32.9      18.5
 4 S  pz             87.9       0.0       0.0       0.0       0.0       0.0
 4 S  px              6.6       0.0       0.0       0.0       0.0       0.0
 4 S  py              5.5       0.0       0.0       0.0       0.0       0.0
11 P  pz              0.0       1.9      45.8      52.2       0.0       0.0
11 P  px              0.0      54.2      17.5      28.2       0.0       0.0
11 P  py              0.0      43.8      36.6      19.5       0.0       0.0

                     42        43        44        45        46        47   
                  -4.64141  -0.99284  -0.98636  -0.94920  -0.94332  -0.76155
                   2.00000   2.00000   2.00000   2.00000   2.00000   2.00000
                  --------  --------  --------  --------  --------  --------
 0 C  s               0.0       0.0       0.2       0.0       0.3       0.0
 0 C  pz              0.0       0.0       0.5       0.0       0.5       0.0
 1 C  s               0.0       0.0       3.8       0.0       4.3       0.2
 1 C  pz              0.0       0.0       1.5       0.0       1.3       0.0
 1 C  px              0.0       0.0       2.7       0.0       2.3       0.0
 1 C  dxz             0.0       0.0       0.2       0.0       0.2       0.0
 2 O  s               0.0       0.0      32.8       0.1      26.4       0.2
 2 O  pz              0.0       0.0       0.3       0.0       0.8       0.0
 2 O  px              0.0       0.0       0.1       0.0       0.2       0.3
 2 O  py              0.0       0.0       1.2       0.0       0.3       0.1
 3 P  s               0.0       0.0      14.0       0.0       0.1       2.4
 3 P  pz              0.0       0.0       1.9       0.0       4.3       1.1
 3 P  px             51.4       0.0       0.2       0.0       5.0       0.9
 3 P  py             48.5       0.0       2.8       0.0       1.5       0.1
 3 P  dz2             0.0       0.0       0.0       0.0       1.8       0.0
 3 P  dxz             0.0       0.0       0.4       0.0       0.5       0.1
 3 P  dxy             0.0       0.0       0.6       0.0       0.9       0.0
 4 S  s               0.0       0.0       0.3       0.0       0.0       0.6
 4 S  py              0.0       0.0       0.3       0.0       0.0       0.1
 5 O  s               0.0       0.0      24.1       0.0      34.6       0.2
 5 O  pz              0.0       0.0       1.0       0.0       0.3       0.3
 5 O  px              0.0       0.0       0.1       0.0       0.0       0.1
 5 O  py              0.0       0.0       0.5       0.0       0.8       0.2
 6 C  s               0.0       0.0       2.9       0.0       4.8       0.5
 6 C  pz              0.0       0.0       0.6       0.0       0.6       0.0
 6 C  px              0.0       0.0       0.7       0.0       0.8       0.0
 6 C  py              0.0       0.0       1.9       0.0       2.9       0.0
 6 C  dyz             0.0       0.0       0.1       0.0       0.1       0.0
 6 C  dxy             0.0       0.0       0.1       0.0       0.1       0.0
 7 C  s               0.0       0.0       0.2       0.0       0.3       0.2
 7 C  pz              0.0       0.0       0.2       0.0       0.2       0.0
 7 C  px              0.0       0.0       0.0       0.0       0.1       0.0
 7 C  py              0.0       0.0       0.2       0.0       0.3       0.0
 8 S  s               0.0       0.0       0.3       0.0       0.0      16.8
 8 S  pz              0.0       0.0       0.2       0.0       0.0       0.1
 8 S  px              0.0       0.0       0.2       0.0       0.0       0.1
 8 S  py              0.0       0.0       0.0       0.0       0.0       2.7
 9 C  s               0.0       0.0       0.0       0.0       0.0      24.7
 9 C  pz              0.0       0.0       0.0       0.0       0.0       2.0
 9 C  py              0.0       0.0       0.0       0.0       0.0       0.7
10 S  s               0.0       0.3       0.0       0.0       0.0      18.7
10 S  pz              0.0       0.0       0.0       0.0       0.0       1.7
10 S  px              0.0       0.2       0.0       0.0       0.0       0.1
10 S  py              0.0       0.2       0.0       0.0       0.0       1.1
10 S  dxz             0.0       0.0       0.0       0.0       0.0       0.1
11 P  s               0.0      14.0       0.0       0.0       0.0       3.8
11 P  pz              0.0       4.2       0.0       0.0       0.0       0.3
11 P  px              0.0       0.6       0.0       4.4       0.0       1.6
11 P  py              0.0       0.2       0.0       6.3       0.0       0.6
11 P  dxz             0.0       0.2       0.0       1.1       0.0       0.0
11 P  dyz             0.0       0.1       0.0       1.7       0.0       0.0
11 P  dx2y2           0.0       0.0       0.0       0.6       0.0       0.0
11 P  dxy             0.0       0.8       0.0       0.0       0.0       0.2
[...]
 1 C  dxz             0.0       1.2       1.7       2.1
 1 C  dx2y2           0.0       0.5       0.7       0.9
 2 O  s               0.0       0.0       0.1       0.1
 2 O  pz              0.0       0.4       0.3       0.4
 2 O  px              0.0       1.1       1.3       1.6
 2 O  py              0.0       0.4       0.3       0.4
 2 O  dz2             0.1       2.9       2.6       3.3
 2 O  dxz             0.2       5.8       9.6      12.3
 2 O  dyz             0.0       0.1       0.1       0.2
 2 O  dx2y2           0.1       3.6       4.4       5.4
 2 O  dxy             0.1       3.6       2.4       3.1
 3 P  s               0.0       0.5       0.0       0.0
 3 P  pz              0.0       0.0       0.5       0.8
 3 P  px              0.0       0.2       0.5       0.7
 3 P  py              0.0       0.5       0.1       0.2
 3 P  dz2             0.0       0.2       0.3       0.5
 3 P  dyz             0.0       0.1       0.2       0.3
 3 P  dxy             0.0       0.1       0.3       0.3
 5 O  s               0.1       3.7       0.1       0.1
 5 O  pz              0.0       0.6       0.8       1.3
 5 O  px              0.0       0.4       0.3       0.5
 5 O  py              0.0       1.6       0.2       0.5
 5 O  dz2             0.2       3.5       5.5       8.9
 5 O  dxz             0.1       5.1       1.7       2.3
 5 O  dyz             0.4      14.7       1.1       1.8
 5 O  dx2y2           0.3      11.4       2.0       3.2
 5 O  dxy             0.6      18.4       1.2       2.4
 6 C  s               0.0       1.4       0.2       0.3
 6 C  pz              0.0       0.5       0.1       0.1
 6 C  px              0.0       0.3       0.1       0.1
 6 C  py              0.1       2.0       0.2       0.3
 6 C  dz2             0.0       0.8       0.0       0.1
 6 C  dxz             0.0       0.9       0.1       0.2
 6 C  dyz             0.1       2.1       0.4       0.7
 6 C  dx2y2           0.1       2.5       0.1       0.1
 6 C  dxy             0.1       4.0       0.4       0.6
 7 C  dyz             0.0       0.1       0.0       0.0
 7 C  dxy             0.0       0.1       0.0       0.0
11 P  s               0.6       0.0       0.0       0.0
11 P  pz              0.4       0.0       0.0       0.0
11 P  px              0.4       0.0       0.7       0.5
11 P  py              0.1       0.0       1.0       0.8
11 P  dz2             0.0       0.0       0.1       0.1
11 P  dxz             0.4       0.0       0.2       0.1
11 P  dyz             0.0       0.0       0.6       0.4
11 P  dx2y2           0.1       0.0       0.2       0.2
13 O  s               0.2       0.0       0.1       0.1
13 O  px              0.9       0.0       1.8       1.2
13 O  py              0.5       0.0       1.3       0.9
13 O  dz2             0.0       0.0       2.5       1.7
13 O  dxz             5.8       0.3      13.5       9.3
13 O  dyz             3.7       0.2       8.8       5.9
13 O  dx2y2           1.1       0.0       1.4       1.0
13 O  dxy             0.1       0.0       4.4       2.9
14 C  s               0.1       0.0       0.7       0.4
14 C  px              0.1       0.0       0.7       0.5
14 C  py              0.1       0.0       0.5       0.3
14 C  dz2             0.3       0.0       0.8       0.5
14 C  dxz             0.0       0.0       0.7       0.5
14 C  dyz             0.0       0.0       0.2       0.2
14 C  dxy             0.4       0.0       2.6       1.8
15 C  dx2y2           0.0       0.0       0.2       0.1
16 O  s               3.2       0.1       0.2       0.1
16 O  pz              0.7       0.0       0.4       0.4
16 O  px              0.8       0.0       0.0       0.0
16 O  py              1.7       0.0       0.9       0.7
16 O  dz2             1.8       0.1       0.0       0.0
16 O  dxz            12.9       0.2       3.0       2.4
16 O  dyz            17.0       0.6       1.3       0.9
16 O  dx2y2           0.3       0.0       0.9       0.7
16 O  dxy            27.1       0.5       7.0       5.5
17 C  s               1.6       0.0       0.2       0.1
17 C  pz              0.5       0.0       0.1       0.1
17 C  px              1.2       0.0       0.1       0.1
17 C  py              1.4       0.0       0.1       0.1
17 C  dz2             0.4       0.0       0.0       0.0
17 C  dxz             2.8       0.1       0.2       0.1
17 C  dyz             3.3       0.1       0.2       0.2
17 C  dxy             4.5       0.1       0.2       0.2
18 C  dz2             0.1       0.0       0.0       0.0
18 C  dxy             0.1       0.0       0.0       0.0


                      *****************************
                      * MAYER POPULATION ANALYSIS *
                      *****************************

  NA   - Mulliken gross atomic population
  ZA   - Total nuclear charge
  QA   - Mulliken gross atomic charge
  VA   - Mayer's total valence
  BVA  - Mayer's bonded valence
  FA   - Mayer's free valence

  ATOM       NA         ZA         QA         VA         BVA        FA
  0 C      6.3157     6.0000    -0.3157     3.9877     3.9877     0.0000
  1 C      6.0008     6.0000    -0.0008     4.0044     4.0044     0.0000
  2 O      8.3839     8.0000    -0.3839     2.1714     2.1714    -0.0000
  3 P     14.3957    15.0000     0.6043     4.9524     4.9524     0.0000
  4 S     16.3172    16.0000    -0.3172     2.0358     2.0358     0.0000
  5 O      8.3485     8.0000    -0.3485     2.1799     2.1799     0.0000
  6 C      6.0209     6.0000    -0.0209     4.0099     4.0099    -0.0000
  7 C      6.2855     6.0000    -0.2855     3.9771     3.9771    -0.0000
  8 S     16.0856    16.0000    -0.0856     2.2890     2.2890     0.0000
  9 C      6.3784     6.0000    -0.3784     3.8099     3.8099    -0.0000
 10 S     16.0696    16.0000    -0.0696     2.2618     2.2618    -0.0000
 11 P     14.3727    15.0000     0.6273     4.9429     4.9429    -0.0000
 12 S     16.3350    16.0000    -0.3350     2.0605     2.0605    -0.0000
 13 O      8.3878     8.0000    -0.3878     2.1674     2.1674     0.0000
 14 C      6.0100     6.0000    -0.0100     3.9607     3.9607     0.0000
 15 C      6.2866     6.0000    -0.2866     4.0039     4.0039     0.0000
 16 O      8.3644     8.0000    -0.3644     2.1763     2.1763     0.0000
 17 C      6.0074     6.0000    -0.0074     4.0272     4.0272     0.0000
 18 C      6.3117     6.0000    -0.3117     3.9966     3.9966    -0.0000
 19 H      0.8823     1.0000     0.1177     0.9625     0.9625     0.0000
 20 H      0.8715     1.0000     0.1285     0.9837     0.9837     0.0000
 21 H      0.8868     1.0000     0.1132     0.9546     0.9546     0.0000
 22 H      0.8861     1.0000     0.1139     0.9791     0.9791     0.0000
 23 H      0.8963     1.0000     0.1037     0.9475     0.9475     0.0000
 24 H      0.8880     1.0000     0.1120     0.9564     0.9564    -0.0000
 25 H      0.8912     1.0000     0.1088     0.9712     0.9712     0.0000
 26 H      0.8816     1.0000     0.1184     0.9587     0.9587    -0.0000
 27 H      0.8960     1.0000     0.1040     0.9554     0.9554     0.0000
 28 H      0.8793     1.0000     0.1207     0.9808     0.9808    -0.0000
 29 H      0.8042     1.0000     0.1958     0.9730     0.9730     0.0000
 30 H      0.8071     1.0000     0.1929     0.9767     0.9767     0.0000
 31 H      0.8927     1.0000     0.1073     0.9540     0.9540     0.0000
 32 H      0.8902     1.0000     0.1098     0.9994     0.9994    -0.0000
 33 H      0.8849     1.0000     0.1151     0.9546     0.9546     0.0000
 34 H      0.8827     1.0000     0.1173     0.9605     0.9605     0.0000
 35 H      0.8826     1.0000     0.1174     0.9572     0.9572     0.0000
 36 H      0.8966     1.0000     0.1034     0.9469     0.9469    -0.0000
 37 H      0.8887     1.0000     0.1113     0.9584     0.9584     0.0000
 38 H      0.8711     1.0000     0.1289     0.9816     0.9816     0.0000
 39 H      0.8732     1.0000     0.1268     0.9638     0.9638     0.0000
 40 H      0.8899     1.0000     0.1101     0.9528     0.9528     0.0000

  Mayer bond orders larger than 0.100000
B(  0-C ,  1-C ) :   1.1665 B(  0-C , 19-H ) :   0.9436 B(  0-C , 20-H ) :   0.9347 
B(  0-C , 21-H ) :   0.9368 B(  1-C ,  2-O ) :   0.9056 B(  1-C , 22-H ) :   0.9186 
B(  1-C , 23-H ) :   0.9341 B(  2-O ,  3-P ) :   1.0803 B(  3-P ,  4-S ) :   1.6319 
B(  3-P ,  5-O ) :   1.1439 B(  3-P ,  8-S ) :   0.9469 B(  4-S ,  8-S ) :   0.1093 
B(  5-O ,  6-C ) :   0.8960 B(  6-C ,  7-C ) :   1.1551 B(  6-C , 24-H ) :   0.9325 
B(  6-C , 25-H ) :   0.9121 B(  7-C , 26-H ) :   0.9461 B(  7-C , 27-H ) :   0.9408 
B(  7-C , 28-H ) :   0.9412 B(  8-S ,  9-C ) :   1.0078 B(  9-C , 10-S ) :   1.0050 
B(  9-C , 29-H ) :   0.8722 B(  9-C , 30-H ) :   0.8727 B( 10-S , 11-P ) :   0.9666 
B( 10-S , 12-S ) :   0.1185 B( 11-P , 12-S ) :   1.6134 B( 11-P , 13-O ) :   1.0896 
B( 11-P , 16-O ) :   1.1186 B( 13-O , 14-C ) :   0.9001 B( 14-C , 15-C ) :   1.1607 
B( 14-C , 31-H ) :   0.9316 B( 14-C , 32-H ) :   0.9038 B( 15-C , 33-H ) :   0.9416 
B( 15-C , 34-H ) :   0.9511 B( 15-C , 35-H ) :   0.9506 B( 16-O , 17-C ) :   0.9053 
B( 17-C , 18-C ) :   1.1694 B( 17-C , 36-H ) :   0.9305 B( 17-C , 37-H ) :   0.9296 
B( 18-C , 38-H ) :   0.9338 B( 18-C , 39-H ) :   0.9445 B( 18-C , 40-H ) :   0.9352 


-------
TIMINGS
-------

Total SCF time: 0 days 0 hours 0 min 16 sec 

Total time                  ....      16.344 sec
Sum of individual times     ....      15.753 sec  ( 96.4%)

SCF preparation             ....       0.235 sec  (  1.4%)
Fock matrix formation       ....      14.328 sec  ( 87.7%)
  Startup                   ....       0.066 sec  (  0.5% of F)
  Split-RI-J                ....       8.598 sec  ( 60.0% of F)
  XC integration            ....       5.194 sec  ( 36.3% of F)
    Basis function eval.    ....       1.982 sec  ( 38.2% of XC)
    Density eval.           ....       0.992 sec  ( 19.1% of XC)
    XC-Functional eval.     ....       0.396 sec  (  7.6% of XC)
    XC-Potential eval.      ....       1.136 sec  ( 21.9% of XC)
Diagonalization             ....       0.000 sec  (  0.0%)
Density matrix formation    ....       0.227 sec  (  1.4%)
Total Energy calculation    ....       0.028 sec  (  0.2%)
Population analysis         ....       0.200 sec  (  1.2%)
Orbital Transformation      ....       0.106 sec  (  0.7%)
Orbital Orthonormalization  ....       0.000 sec  (  0.0%)
DIIS solution               ....       0.471 sec  (  2.9%)
  MO trafo                  ....       0.000 sec  (  0.0 % of DIIS)
  Orb grad                  ....       0.000 sec  (  0.0 % of DIIS)
  Energy W gradient         ....       0.000 sec  (  0.0 % of DIIS)
  DIIS error                ....       0.021 sec  (  4.4 % of DIIS)
  DIIS work                 ....       0.392 sec  ( 83.2 % of DIIS)
  Form Q                    ....       0.000 sec  (  0.0 % of DIIS)
  Form QpQm                 ....       0.000 sec  (  0.0 % of DIIS)
  Exp/Cayley                ....       0.000 sec  (  0.0 % of DIIS)
  Orb update                ....       0.000 sec  (  0.0 % of DIIS)
  Wake-sleep                ....       0.014 sec  (  3.0 % of DIIS)
SOSCF solution              ....       0.157 sec  (  1.0%)
  MO trafo                  ....       0.101 sec  ( 64.4 % of SOSCF)
  Orb grad                  ....       0.003 sec  (  1.9 % of SOSCF)
  Rot update                ....       0.015 sec  (  9.8 % of SOSCF)
  Step                      ....       0.037 sec  ( 23.8 % of SOSCF)
Finished LeanSCF after  16.4 sec

Maximum memory used throughout the entire LEANSCF-calculation: 33.8 MB


-------------------------------------------------------------------------------
                          DFT DISPERSION CORRECTION                            
                                                                               
                                DFTD4 V3.4.0                                   
-------------------------------------------------------------------------------
The PBE functional is recognized
Active option DFTDOPT                   ...         5   

-------------------------   ----------------
Dispersion correction           -0.064434547
-------------------------   ----------------

------------------   -----------------
gCP correction             0.185094128
------------------   -----------------

-------------------------   --------------------
FINAL SINGLE POINT ENERGY     -2929.520415770935
-------------------------   --------------------


------------------------------------------------------------------------------
                              ORCA PROPERTY CALCULATIONS
------------------------------------------------------------------------------

GBWName                                 ... sp.gbw
Number of atoms                         ...     41
Number of basis functions               ...    334
Max core memory                         ...   1024 MB

Electric properties:
Dipole moment                           ... YES
Quadrupole moment                       ...  NO
Static polarizability (Dipole/Dipole)   ...  NO
Static polarizability (Dipole/Quad.)    ...  NO
Static polarizability (Quad./Quad.)     ...  NO
Static polarizability (Velocity)        ...  NO

Atomic electric properties:
Dipole moment                           ...  NO
Quadrupole moment                       ...  NO
Static polarizability                   ...  NO

Choice of electric origin               ... Center of mass
Position of electric origin             ...    -0.000005    -0.000005    -0.000002

General magnetic properties:
Magnetizability                         ...  NO

EPR properties:
g-Tensor (aka g-matrix)                 ...  NO
Zero-Field splitting spin-orbit         ...  NO
Zero-field splitting spin-spin          ...  NO
Hyperfine couplings                     ...  NO (   0 nuclei)
Quadrupole couplings                    ...  NO (   0 nuclei)
Contact density                         ...  NO (   0 nuclei)

NMR properties:
Chemical shifts                         ...  NO (   0 nuclei)
Spin-rotation constants                 ...  NO (   0 nuclei)
Spin-spin couplings                     ...  NO (   0 nuclei,    0 pairs)

Choice of magnetic origin               ... GIAO
Position of magnetic origin             ...     0.000000     0.000000     0.000000

Properties with geometric perturbations:
SCF Hessian                             ...  NO
IR spectrum                             ...  NO
VCD spectrum                            ...  NO
X-ray spectroscopy properties:
SCF XES/XAS/RIXS spectra                ...  NO


-------------
DIPOLE MOMENT
-------------

Method             : SCF
Type of density    : Electron Density
Multiplicity       :   1
Irrep              :   0
Energy             : -2929.6410753520176513 Eh
Relativity type    : 
Basis              : AO
                                X                 Y                 Z
Electronic contribution:      8.367716713      13.909231992      -7.618248416
Nuclear contribution   :     -9.162061548     -15.098042688       8.461628814
                        -----------------------------------------
Total Dipole Moment    :     -0.794344835      -1.188810695       0.843380398
                        -----------------------------------------
Magnitude (a.u.)       :      1.659983458
Magnitude (Debye)      :      4.219342634



--------------------
Rotational spectrum 
--------------------
 
Rotational constants in cm-1:             0.013392             0.004568             0.004304 
Rotational constants in MHz :           401.496276           136.956574           129.029146 

Dipole components along the rotational axes: 
x,y,z [a.u.] :    -0.673667    -1.504479    -0.195601 
x,y,z [Debye]:    -1.712326    -3.824082    -0.497178 

 

Dipole moment calculation done in   0.0 sec 

Maximum memory used throughout the entire PROP-calculation: 23.5 MB

--------------------------------
SUGGESTED CITATIONS FOR THIS RUN
--------------------------------

Below you find a list of papers that are relevant to this ORCA run
We neither can nor want to force you to cite these papers, but we appreciate if you do
You receive ORCA, which is the product of decades of hard work by many enthusiastic individuals, for free
The only thing we kindly ask in return is that you cite our papers,
We deeply appreciate it, if you show your appreciation for ORCA by not just citing the generic ORCA reference.

Please note that relegating all ORCA citations to the supporting information does *not* help us.
SI sections are not indexed - citations you put there will not count into any citation statistics
But we need these citations in order to attract the funding resources that allow us to do what we are doing

Therefore, if you are a happy ORCA user, please consider citing a few of the papers listed below in the main body of your paper

In addition to the list printed below, the program has created the file sp.bibtex that contains the list in bibtex format
You can import this file easily into all common literature databanks and citation aid programs


List of essential papers. We consider these as the minimum necessary citations

  1. Neese,F.
     Software update: the ORCA program system, version 5.0
     WIRES Comput. Molec. Sci., 2022 12(1)e1606
     doi.org/10.1002/wcms.1606

List of papers to cite with high priority. The work reported in these papers was absolutely
necessary for this run to complete.
Our perspective: the developers of density functionals and basis sets usually get cited in chemistry papers
Good! But without the algorithms to do something with them, the functionals or basis sets would not do anything.
Hence, in our opinion, the algorithm design and method developments papers are equally worthy of getting cited

  1. Neese,F.
     An improvement of the resolution of the identity approximation for the formation of the Coulomb matrix
     J. Comp. Chem., 2003 24(14)1740-1747
     doi.org/10.1002/jcc.10318
  2. Neese,F.
     The SHARK Integral Generation and Digestion System
     J. Comp. Chem., 2022  1-16
     doi.org/10.1002/jcc.26942
  3. Caldeweyher,E.; Bannwarth,C.; Grimme,S.
     Extension of the D3 dispersion coefficient model
     J. Chem. Phys., 2017 147 034112-XXXX
     doi.org/10.1063/1.4993215
  4. Caldeweyher,E.; Ehlert,S.; Hansen,A.; Neugebauer,H.; Spicher,S.; Bannwarth,C.; Grimme,S.
     A generally applicable atomic-charge dependent London dispersion correction
     J. Chem. Phys., 2019 150 154122-XXXX
     doi.org/10.1063/1.5090222
  5. Caldeweyher,E.; Mewes,J.; Ehlert,S.; Grimme,S.
     Extension and evaluation of the D4 London-dispersion model for periodic systems
     Phys. Chem. Chem. Phys., 2020 22(16)8499-8512
     doi.org/10.1039/D0CP00502A

List of suggested additional citations. These are papers that are important in the 'surrounding' of 
of this run, or papers that preceded the highly important papers. If you like your results we are grateful for a citation.

  1. Neese,F.
     The ORCA program system
     WIRES Comput. Molec. Sci., 2012 2(1)73-78
     doi.org/10.1002/wcms.81
  2. Neese,F.
     Software update: the ORCA program system, version 4.0
     WIRES Comput. Molec. Sci., 2018 8(1)1-6
     doi.org/10.1002/wcms.1327
  3. Neese,F.; Wennmohs,F.; Becker,U.; Riplinger,C.
     The ORCA quantum chemistry program package
     J. Chem. Phys., 2020 152 Art. No. L224108
     doi.org/10.1063/5.0004608

List of optional additional citations

  1. Neese,F.
     Approximate second-order SCF convergence for spin unrestricted wavefunctions
     Chem. Phys. Lett., 2000 325(1-3)93-98
     doi.org/10.1016/s0009-2614(00)00662-x

Timings for individual modules:

Sum of individual times          ...       20.048 sec (=   0.334 min)
Startup calculation              ...        1.563 sec (=   0.026 min)   7.8 %
SCF iterations                   ...       18.359 sec (=   0.306 min)  91.6 %
Property calculations            ...        0.126 sec (=   0.002 min)   0.6 %
                             ****ORCA TERMINATED NORMALLY****
TOTAL RUN TIME: 0 days 0 hours 0 minutes 20 seconds 922 msec
