      -----------------------------------------------------------      
     |                   =====================                   |     
     |                           x T B                           |     
     |                   =====================                   |     
     |                         S. Grimme                         |     
     |          Mulliken Center for Theoretical Chemistry        |     
     |                    University of Bonn                     |     
      -----------------------------------------------------------      

   * xtb version 6.7.1 (edcfbbe) compiled by 'albert@albert-system' on 2024-07-22

   xtb is free software: you can redistribute it and/or modify it under
   the terms of the GNU Lesser General Public License as published by
   the Free Software Foundation, either version 3 of the License, or
   (at your option) any later version.
   
   xtb is distributed in the hope that it will be useful,
   but WITHOUT ANY WARRANTY; without even the implied warranty of
   MERCHANTABILITY or FITNESS FOR A PARTICULAR PURPOSE.  See the
   GNU Lesser General Public License for more details.
   
   Cite this work as:
   * C. Bannwarth, E. Caldeweyher, S. Ehlert, A. Hansen, P. Pracht,
     J. Seibert, S. Spicher, S. Grimme, WIREs Comput. Mol. Sci., 2020, 11,
     e01493. DOI: 10.1002/wcms.1493
   
   for GFN2-xTB:
   * C. Bannwarth, S. Ehlert and S. Grimme., J. Chem. Theory Comput., 2019,
     15, 1652-1671. DOI: 10.1021/acs.jctc.8b01176
   for GFN1-xTB:
   * S. Grimme, C. Bannwarth, P. Shushkov, J. Chem. Theory Comput., 2017,
     13, 1989-2009. DOI: 10.1021/acs.jctc.7b00118
   for GFN0-xTB:
   * P. Pracht, E. Caldeweyher, S. Ehlert, S. Grimme, ChemRxiv, 2019, preprint.
     DOI: 10.26434/chemrxiv.8326202.v1
   for GFN-FF:
   * S. Spicher and S. Grimme, Angew. Chem. Int. Ed., 2020, 59, 15665-15673.
     DOI: 10.1002/anie.202004239
   
   for ALPB and GBSA implicit solvation:
   * S. Ehlert, M. Stahn, S. Spicher, S. Grimme, J. Chem. Theory Comput.,
     2021, 17, 4250-4261. DOI: 10.1021/acs.jctc.1c00471
   
   for ddCOSMO and CPCM-X implicit solvation:
   * M. Stahn, S. Ehlert, S. Grimme, J. Phys. Chem. A,
     2023, XX, XXXX-XXXX. DOI: 10.1021/acs.jpca.3c04382
   
   for DFT-D4:
   * E. Caldeweyher, C. Bannwarth and S. Grimme, J. Chem. Phys., 2017,
     147, 034112. DOI: 10.1063/1.4993215
   * E. Caldeweyher, S. Ehlert, A. Hansen, H. Neugebauer, S. Spicher,
     C. Bannwarth and S. Grimme, J. Chem. Phys., 2019, 150, 154122.
     DOI: 10.1063/1.5090222
   * E. Caldeweyher, J.-M. Mewes, S. Ehlert and S. Grimme, Phys. Chem. Chem. Phys.
     2020, 22, 8499-8512. DOI: 10.1039/D0CP00502A
   
   for sTDA-xTB:
   * S. Grimme and C. Bannwarth, J. Chem. Phys., 2016, 145, 054103.
     DOI: 10.1063/1.4959605
   
   in the mass-spec context:
   * V. Asgeirsson, C. Bauer and S. Grimme, Chem. Sci., 2017, 8, 4879.
     DOI: 10.1039/c7sc00601b
   * J. Koopman and S. Grimme, ACS Omega 2019, 4, 12, 15120-15133.
     DOI: 10.1021/acsomega.9b02011
   
   for metadynamics refer to:
   * S. Grimme, J. Chem. Theory Comput., 2019, 155, 2847-2862
     DOI: 10.1021/acs.jctc.9b00143
   
   for SPH calculations refer to:
   * S. Spicher and S. Grimme, J. Chem. Theory Comput., 2021, 17, 1701-1714
     DOI: 10.1021/acs.jctc.0c01306
   
   for ONIOM refer to:
   * C. Plett, A. Katbashev, S. Ehlert, S. Grimme, M. Bursch,
     Phys. Chem. Chem. Phys., 2023, 25, 17860-17868. DOI: 10.1039/D3CP02178E
   
   for DIPRO refer to:
   * J. Kohn, N. Gildemeister, S. Grimme, D. Fazzi, A. Hansen,
     J. Chem. Phys., 2023, just accepted.
   
   for PTB refer to:
   * S. Grimme, M. Mueller, A. Hansen, J. Chem. Phys., 2023, 158, 124111.
     DOI: 10.1063/5.0137838
   
   with help from (in alphabetical order)
   P. Atkinson, C. Bannwarth, F. Bohle, G. Brandenburg, E. Caldeweyher
   M. Checinski, S. Dohm, S. Ehlert, S. Ehrlich, I. Gerasimov, C. Hölzer
   A. Katbashev, J. Kohn, J. Koopman, C. Lavigne, S. Lehtola, F. März, M. Müller,
   F. Musil, H. Neugebauer, J. Pisarek, C. Plett, P. Pracht, F. Pultar,
   J. Seibert, P. Shushkov, S. Spicher, M. Stahn, M. Steiner, T. Strunk,
   J. Stückrath, T. Rose, and J. Unsleber
   
 * started run on 2025/04/09 at 05:21:11.609     
   ID    Z sym.   atoms
    1    6 C      1, 2, 7, 8, 10, 15, 16, 18, 19
    2    8 O      3, 6, 14, 17
    3   15 P      4, 12
    4   16 S      5, 9, 11, 13
    5    1 H      20-41

           -------------------------------------------------
          |                Calculation Setup                |
           -------------------------------------------------

          program call               : /srv/scratch/z5358697/.xtb/bin/xtb gas.coord --gfn2 --sp --chrg 0 --norestart --parallel 1
          hostname                   : k163
          coordinate file            : gas.coord
          omp threads                :                     1


           -------------------------------------------------
          |                 G F N 2 - x T B                 |
           -------------------------------------------------

        Reference                      10.1021/acs.jctc.8b01176
      * Hamiltonian:
        H0-scaling (s, p, d)           1.850000    2.230000    2.230000
        zeta-weighting                 0.500000
      * Dispersion:
        s8                             2.700000
        a1                             0.520000
        a2                             5.000000
        s9                             5.000000
      * Repulsion:
        kExp                           1.500000    1.000000
        rExp                           1.000000
      * Coulomb:
        alpha                          2.000000
        third order                    shell-resolved
        anisotropic                    true
        a3                             3.000000
        a5                             4.000000
        cn-shift                       1.200000
        cn-exp                         4.000000
        max-rad                        5.000000


          ...................................................
          :                      SETUP                      :
          :.................................................:
          :  # basis functions                 134          :
          :  # atomic orbitals                 128          :
          :  # shells                           66          :
          :  # electrons                       116          :
          :  max. iterations                   250          :
          :  Hamiltonian                  GFN2-xTB          :
          :  restarted?                      false          :
          :  GBSA solvation                  false          :
          :  PC potential                    false          :
          :  electronic temp.          300.0000000     K    :
          :  accuracy                    1.0000000          :
          :  -> integral cutoff          0.2500000E+02      :
          :  -> integral neglect         0.1000000E-07      :
          :  -> SCF convergence          0.1000000E-05 Eh   :
          :  -> wf. convergence          0.1000000E-03 e    :
          :  Broyden damping             0.4000000          :
          :  net charge                          0          :
          :  unpaired electrons                  0          :
          ...................................................

 iter      E             dE          RMSdq      gap      omega  full diag
   1    -65.3770697 -0.653771E+02  0.632E+00    4.26       0.0  T
   2    -65.5482755 -0.171206E+00  0.397E+00    3.14       1.0  T
   3    -65.5672132 -0.189377E-01  0.143E+00    3.01       1.0  T
   4    -65.5695355 -0.232229E-02  0.580E-01    2.77       1.0  T
   5    -65.5703109 -0.775411E-03  0.262E-01    2.89       1.0  T
   6    -65.5705330 -0.222040E-03  0.125E-01    2.86       1.0  T
   7    -65.5705841 -0.511882E-04  0.513E-02    2.87       1.0  T
   8    -65.5705946 -0.104689E-04  0.231E-02    2.88       1.0  T
   9    -65.5705957 -0.112833E-05  0.656E-03    2.88       2.4  T
  10    -65.5705959 -0.125167E-06  0.352E-03    2.88       4.4  T
  11    -65.5705959 -0.141413E-07  0.882E-04    2.88      17.7  T
  12    -65.5705959 -0.140621E-08  0.437E-04    2.88      35.7  T

   *** convergence criteria satisfied after 12 iterations ***

         #    Occupation            Energy/Eh            Energy/eV
      -------------------------------------------------------------
         1        2.0000           -0.7541156             -20.5205
       ...           ...                  ...                  ...
        52        2.0000           -0.4371958             -11.8967
        53        2.0000           -0.4076506             -11.0927
        54        2.0000           -0.3994826             -10.8705
        55        2.0000           -0.3726383             -10.1400
        56        2.0000           -0.3686434             -10.0313
        57        2.0000           -0.3670414              -9.9877
        58        2.0000           -0.3656780              -9.9506 (HOMO)
        59                         -0.2598601              -7.0712 (LUMO)
        60                         -0.2469015              -6.7185
        61                         -0.2050144              -5.5787
        62                         -0.1785601              -4.8589
        63                         -0.1645967              -4.4789
       ...                                ...                  ...
       128                          1.3034074              35.4675
      -------------------------------------------------------------
                  HL-Gap            0.1058179 Eh            2.8795 eV
             Fermi-level           -0.3127691 Eh           -8.5109 eV

 SCC (total)                   0 d,  0 h,  0 min,  0.057 sec
 SCC setup                      ...        0 min,  0.000 sec (  0.473%)
 Dispersion                     ...        0 min,  0.000 sec (  0.512%)
 classical contributions        ...        0 min,  0.000 sec (  0.101%)
 integral evaluation            ...        0 min,  0.008 sec ( 14.965%)
 iterations                     ...        0 min,  0.026 sec ( 45.071%)
 molecular gradient             ...        0 min,  0.022 sec ( 38.482%)
 printout                       ...        0 min,  0.000 sec (  0.369%)

         :::::::::::::::::::::::::::::::::::::::::::::::::::::
         ::                     SUMMARY                     ::
         :::::::::::::::::::::::::::::::::::::::::::::::::::::
         :: total energy             -65.009009165885 Eh    ::
         :: gradient norm              0.036150776370 Eh/a0 ::
         :: HOMO-LUMO gap              2.879451528266 eV    ::
         ::.................................................::
         :: SCC energy               -65.569787041636 Eh    ::
         :: -> isotropic ES            0.104012271791 Eh    ::
         :: -> anisotropic ES         -0.010890333023 Eh    ::
         :: -> anisotropic XC          0.031474288180 Eh    ::
         :: -> dispersion             -0.053355870962 Eh    ::
         :: repulsion energy           0.560777875751 Eh    ::
         :: add. restraining           0.000000000000 Eh    ::
         :: total charge              -0.000000000000 e     ::
         :::::::::::::::::::::::::::::::::::::::::::::::::::::

           -------------------------------------------------
          |                Property Printout                |
           -------------------------------------------------

    * Orbital Energies and Occupations

         #    Occupation            Energy/Eh            Energy/eV
      -------------------------------------------------------------
         1        2.0000           -0.7541156             -20.5205
       ...           ...                  ...                  ...
        46        2.0000           -0.4682818             -12.7426
        47        2.0000           -0.4598452             -12.5130
        48        2.0000           -0.4577470             -12.4559
        49        2.0000           -0.4541936             -12.3592
        50        2.0000           -0.4523667             -12.3095
        51        2.0000           -0.4406342             -11.9903
        52        2.0000           -0.4371958             -11.8967
        53        2.0000           -0.4076506             -11.0927
        54        2.0000           -0.3994826             -10.8705
        55        2.0000           -0.3726383             -10.1400
        56        2.0000           -0.3686434             -10.0313
        57        2.0000           -0.3670414              -9.9877
        58        2.0000           -0.3656780              -9.9506 (HOMO)
        59                         -0.2598601              -7.0712 (LUMO)
        60                         -0.2469015              -6.7185
        61                         -0.2050144              -5.5787
        62                         -0.1785601              -4.8589
        63                         -0.1645967              -4.4789
        64                         -0.1559948              -4.2448
        65                         -0.1457459              -3.9659
        66                         -0.1370701              -3.7299
        67                         -0.1212355              -3.2990
        68                         -0.1158347              -3.1520
        69                         -0.0409498              -1.1143
       ...                                ...                  ...
       128                          1.3034074              35.4675
      -------------------------------------------------------------
                  HL-Gap            0.1058179 Eh            2.8795 eV
             Fermi-level           -0.3127691 Eh           -8.5109 eV

     #   Z          covCN         q      C6AA      α(0)
     1   6 C        3.751    -0.114    22.737     6.800
     2   6 C        3.866     0.083    19.163     6.225
     3   8 O        1.656    -0.251    18.172     5.755
     4  15 P        3.870     0.369   144.862    21.621
     5  16 S        0.925    -0.407   156.937    21.189
     6   8 O        1.655    -0.242    18.021     5.731
     7   6 C        3.863     0.083    19.162     6.225
     8   6 C        3.751    -0.119    22.845     6.816
     9  16 S        2.036    -0.146   147.206    20.420
    10   6 C        3.817     0.049    19.736     6.323
    11  16 S        2.035    -0.163   147.939    20.471
    12  15 P        3.777     0.368   144.894    21.623
    13  16 S        0.926    -0.374   155.422    21.086
    14   8 O        1.655    -0.240    18.000     5.727
    15   6 C        3.837     0.081    19.211     6.235
    16   6 C        3.751    -0.120    22.853     6.817
    17   8 O        1.653    -0.232    17.863     5.705
    18   6 C        3.811     0.076    19.301     6.253
    19   6 C        3.752    -0.120    22.852     6.817
    20   1 H        0.925     0.060     2.198     2.319
    21   1 H        0.925     0.061     2.188     2.313
    22   1 H        0.925     0.058     2.217     2.329
    23   1 H        0.924     0.064     2.158     2.297
    24   1 H        0.924     0.062     2.179     2.308
    25   1 H        0.924     0.063     2.170     2.303
    26   1 H        0.924     0.063     2.165     2.301
    27   1 H        0.925     0.059     2.205     2.322
    28   1 H        0.924     0.074     2.041     2.234
    29   1 H        0.925     0.057     2.239     2.340
    30   1 H        0.925     0.071     2.073     2.252
    31   1 H        0.924     0.090     1.878     2.143
    32   1 H        0.924     0.062     2.173     2.305
    33   1 H        0.924     0.056     2.252     2.347
    34   1 H        0.925     0.055     2.254     2.348
    35   1 H        0.925     0.072     2.063     2.246
    36   1 H        0.925     0.061     2.187     2.313
    37   1 H        0.924     0.073     2.049     2.239
    38   1 H        0.924     0.061     2.185     2.312
    39   1 H        0.925     0.066     2.132     2.283
    40   1 H        0.925     0.067     2.115     2.274
    41   1 H        0.925     0.061     2.193     2.316

 Mol. C6AA /au·bohr⁶  :      26540.473673
 Mol. C8AA /au·bohr⁸  :     863324.560057
 Mol. α(0) /au        :        258.285367


Wiberg/Mayer (AO) data.
largest (>0.10) Wiberg bond orders for each atom

 ---------------------------------------------------------------------------
     #   Z sym  total        # sym  WBO       # sym  WBO       # sym  WBO
 ---------------------------------------------------------------------------
     1   6 C    3.992 --     2 C    1.023    21 H    0.984    22 H    0.980
                            20 H    0.977
     2   6 C    3.911 --     1 C    1.023    23 H    0.970    24 H    0.967
                             3 O    0.898
     3   8 O    2.397 --     4 P    1.307     2 C    0.898
     4  15 P    5.285 --     5 S    1.541     6 O    1.314     3 O    1.307
                             9 S    0.984
     5  16 S    1.883 --     4 P    1.541     9 S    0.141
     6   8 O    2.415 --     4 P    1.314     7 C    0.904
     7   6 C    3.908 --     8 C    1.021    25 H    0.969    26 H    0.968
                             6 O    0.904
     8   6 C    3.989 --     7 C    1.021    29 H    0.983    27 H    0.980
                            28 H    0.970
     9  16 S    2.269 --     4 P    0.984    10 C    0.970     5 S    0.141
    10   6 C    3.959 --    11 S    1.001     9 S    0.970    30 H    0.969
                            31 H    0.948
    11  16 S    2.266 --    10 C    1.001    12 P    0.930    13 S    0.146
    12  15 P    5.282 --    13 S    1.574    17 O    1.357    14 O    1.303
                            11 S    0.930
    13  16 S    1.914 --    12 P    1.574    11 S    0.146
    14   8 O    2.418 --    12 P    1.303    15 C    0.906
    15   6 C    3.909 --    16 C    1.019    32 H    0.970    33 H    0.965
                            14 O    0.906
    16   6 C    3.988 --    15 C    1.019    36 H    0.985    34 H    0.981
                            35 H    0.978
    17   8 O    2.424 --    12 P    1.357    18 C    0.886
    18   6 C    3.910 --    19 C    1.024    38 H    0.971    37 H    0.969
                            17 O    0.886
    19   6 C    3.990 --    18 C    1.024    40 H    0.982    41 H    0.979
                            39 H    0.974
    20   1 H    0.996 --     1 C    0.977
    21   1 H    0.996 --     1 C    0.984
    22   1 H    0.996 --     1 C    0.980
    23   1 H    0.995 --     2 C    0.970
    24   1 H    0.996 --     2 C    0.967
    25   1 H    0.996 --     7 C    0.969
    26   1 H    0.996 --     7 C    0.968
    27   1 H    0.996 --     8 C    0.980
    28   1 H    0.994 --     8 C    0.970
    29   1 H    0.997 --     8 C    0.983
    30   1 H    0.995 --    10 C    0.969
    31   1 H    0.992 --    10 C    0.948
    32   1 H    0.996 --    15 C    0.970
    33   1 H    0.997 --    15 C    0.965
    34   1 H    0.996 --    16 C    0.981
    35   1 H    0.995 --    16 C    0.978
    36   1 H    0.996 --    16 C    0.985
    37   1 H    0.994 --    18 C    0.969
    38   1 H    0.996 --    18 C    0.971
    39   1 H    0.996 --    19 C    0.974
    40   1 H    0.995 --    19 C    0.982
    41   1 H    0.995 --    19 C    0.979
 ---------------------------------------------------------------------------

Topologies differ in total number of bonds
Writing topology from bond orders to xtbtopo.mol

molecular dipole:
                 x           y           z       tot (Debye)
 q only:       -0.191      -1.444       1.371
   full:        0.032      -1.572       1.264       5.128
molecular quadrupole (traceless):
                xx          xy          yy          xz          yz          zz
 q only:       22.703      11.042     -18.224      -0.026      15.210      -4.480
  q+dip:       26.219       5.887     -21.526       0.967      15.042      -4.693
   full:       27.436       7.042     -22.235       0.947      16.417      -5.201


           -------------------------------------------------
          | TOTAL ENERGY              -65.009009165885 Eh   |
          | GRADIENT NORM               0.036150776370 Eh/α |
          | HOMO-LUMO GAP               2.879451528266 eV   |
           -------------------------------------------------

------------------------------------------------------------------------
 * finished run on 2025/04/09 at 05:21:11.702     
------------------------------------------------------------------------
 total:
 * wall-time:     0 d,  0 h,  0 min,  0.093 sec
 *  cpu-time:     0 d,  0 h,  0 min,  0.070 sec
 * ratio c/w:     0.751 speedup
 SCF:
 * wall-time:     0 d,  0 h,  0 min,  0.057 sec
 *  cpu-time:     0 d,  0 h,  0 min,  0.056 sec
 * ratio c/w:     0.988 speedup

