20
 energy: -572.592461966077 gnorm: 0.000876089692 xtb: 6.7.1 (edcfbbe)
C            0.63712448198526        1.67777056208494        0.02305986932606
C            1.39062790134694        0.38615024801694       -0.25140928338628
H            1.60247349197978        0.30533165820880       -1.32865741126931
C            0.53736514818485       -0.79734233157445        0.17466586800091
H            0.38715158475316       -0.75287211169391        1.26428842512509
C           -0.81385381381394       -0.73284539807013       -0.52617343868000
H           -0.66775080872769       -0.88530715095052       -1.60397740046036
C           -1.48625302374220        0.63618553589810       -0.32763437484768
H           -2.34068581220976        0.73734680859899       -1.01055966367486
O           -0.61653630821304        1.69094596101005       -0.68369208765877
O           -1.91607077533665        0.81260251723358        1.01587118499215
O           -1.63070568450845       -1.77303781112371        0.02594586789250
O            1.24792318350345       -1.99187007230982       -0.17500525887682
O            2.61125452130431        0.45149162272473        0.49182377831370
H            1.20034859275832        2.53593164251448       -0.34972850429787
H            0.47682516539846        1.79822000111559        1.10216665417757
H           -2.08918459040678       -0.07094913649969        1.37705846664488
H           -2.39261179182744       -1.89491208435897       -0.55708025062864
H            0.77124913766910       -2.73915987485761        0.20960163447024
H            3.09223997340170       -0.37002762424600        0.32628832408062
20
 energy: -572.592463935790 gnorm: 0.000446488208 xtb: 6.7.1 (edcfbbe)
C            0.63691573114625        1.67776127162361        0.02239736144081
C            1.39022306750594        0.38602973856645       -0.25180235263104
H            1.60262065889320        0.30471162995075       -1.32882962269898
C            0.53721516100089       -0.79718461383463        0.17464268863894
H            0.38736879714591       -0.75283288813137        1.26425895176437
C           -0.81368892352672       -0.73237605653107       -0.52633213273389
H           -0.66694222404721       -0.88394946606486       -1.60418839225750
C           -1.48641577775692        0.63602959230530       -0.32720316299969
H           -2.34143071774300        0.73717337187721       -1.00936929582437
O           -0.61714482857047        1.69099116950121       -0.68387533599583
O           -1.91560857539187        0.81199483149697        1.01671888172410
O           -1.63088010633440       -1.77316176590013        0.02432612700307
O            1.24734332715518       -1.99219228005925       -0.17491246575711
O            2.61103531346891        0.45185209994541        0.49152926580226
H            1.20008005837054        2.53574738141965       -0.35072976963064
H            0.47654725040946        1.79833237146447        1.10148605879675
H           -2.08684554350211       -0.07155391597382        1.37848078908446
H           -2.39236023338798       -1.89401664091209       -0.55928434362438
H            0.77145935395142       -2.73876974253414        0.21176162267818
H            3.09143887259165       -0.37093321428888        0.32777755136965
20
 energy: -572.592463935790 gnorm: 0.000446488208 xtb: 6.7.1 (edcfbbe)
C            0.63691573114625        1.67776127162361        0.02239736144081
C            1.39022306750594        0.38602973856645       -0.25180235263104
H            1.60262065889320        0.30471162995075       -1.32882962269898
C            0.53721516100089       -0.79718461383463        0.17464268863894
H            0.38736879714591       -0.75283288813137        1.26425895176437
C           -0.81368892352672       -0.73237605653107       -0.52633213273389
H           -0.66694222404721       -0.88394946606486       -1.60418839225750
C           -1.48641577775692        0.63602959230530       -0.32720316299969
H           -2.34143071774300        0.73717337187721       -1.00936929582437
O           -0.61714482857047        1.69099116950121       -0.68387533599583
O           -1.91560857539187        0.81199483149697        1.01671888172410
O           -1.63088010633440       -1.77316176590013        0.02432612700307
O            1.24734332715518       -1.99219228005925       -0.17491246575711
O            2.61103531346891        0.45185209994541        0.49152926580226
H            1.20008005837054        2.53574738141965       -0.35072976963064
H            0.47654725040946        1.79833237146447        1.10148605879675
H           -2.08684554350211       -0.07155391597382        1.37848078908446
H           -2.39236023338798       -1.89401664091209       -0.55928434362438
H            0.77145935395142       -2.73876974253414        0.21176162267818
H            3.09143887259165       -0.37093321428888        0.32777755136965
