
                                 *****************
                                 * O   R   C   A *
                                 *****************

                                            #,                                       
                                            ###                                      
                                            ####                                     
                                            #####                                    
                                            ######                                   
                                           ########,                                 
                                     ,,################,,,,,                         
                               ,,#################################,,                 
                          ,,##########################################,,             
                       ,#########################################, ''#####,          
                    ,#############################################,,   '####,        
                  ,##################################################,,,,####,       
                ,###########''''           ''''###############################       
              ,#####''   ,,,,##########,,,,          '''####'''          '####       
            ,##' ,,,,###########################,,,                        '##       
           ' ,,###''''                  '''############,,,                           
         ,,##''                                '''############,,,,        ,,,,,,###''
      ,#''                                            '''#######################'''  
     '                                                          ''''####''''         
             ,#######,   #######,   ,#######,      ##                                
            ,#'     '#,  ##    ##  ,#'     '#,    #''#        ,####,   ,####,        
            ##       ##  ##   ,#'  ##            #'  '#       #'       #'  '#        
            ##       ##  #######   ##           ,######,      #####,   #    #        
            '#,     ,#'  ##    ##  '#,     ,#' ,#      #,     #,   #   #,  ,#        
             '#######'   ##     ##  '#######'  #'      '#     '####' # '####'        



                #########################################################
                #                        -***-                          #
                #          Department of theory and spectroscopy        #
                #                                                       #
                #                      Frank Neese                      #
                #                                                       #
                #     Directorship, Architecture, Infrastructure        #
                #                    SHARK, DRIVERS                     #
                #        Core code/Algorithms in most modules           #
                #                                                       #
                #        Max Planck Institute fuer Kohlenforschung      #
                #                Kaiser Wilhelm Platz 1                 #
                #                 D-45470 Muelheim/Ruhr                 #
                #                      Germany                          #
                #                                                       #
                #                  All rights reserved                  #
                #                        -***-                          #
                #########################################################


                         Program Version 6.0.0  -   RELEASE  -


 With contributions from (in alphabetic order):
   Daniel Aravena         : Magnetic Suceptibility
   Michael Atanasov       : Ab Initio Ligand Field Theory (pilot matlab implementation)
   Alexander A. Auer      : GIAO ZORA, VPT2 properties, NMR spectrum
   Ute Becker             : All parallelization in ORCA, NUMFREQ, NUMCALC
   Giovanni Bistoni       : ED, misc. LED, open-shell LED, HFLD
   Martin Brehm           : Molecular dynamics
   Dmytro Bykov           : pre 5.0 version of the SCF Hessian
   Marcos Casanova-Páez   : Triplet and SCS-CIS(D). UHF-(DLPNO)-IP/EA/STEOM-CCSD. UHF-CVS-IP/STEOM-CCSD
   Vijay G. Chilkuri      : MRCI spin determinant printing, contributions to CSF-ICE
   Pauline Colinet        : FMM embedding
   Dipayan Datta          : RHF DLPNO-CCSD density
   Achintya Kumar Dutta   : EOM-CC, STEOM-CC
   Nicolas Foglia         : Exact transition moments, OPA infrastructure, MCD improvements
   Dmitry Ganyushin       : Spin-Orbit,Spin-Spin,Magnetic field MRCI
   Miquel Garcia          : C-PCM and meta-GGA Hessian, CCSD/C-PCM, Gaussian charge scheme
   Tiago L. C. Gouveia    : GS-ROHF, GS-ROCIS
   Yang Guo               : DLPNO-NEVPT2, F12-NEVPT2, CIM, IAO-localization
   Andreas Hansen         : Spin unrestricted coupled pair/coupled cluster methods
   Ingolf Harden          : AUTO-CI MPn and infrastructure 
   Benjamin Helmich-Paris : MC-RPA, TRAH-(SCF,CASSCF), AVAS, COSX integrals, SCF dyn. polar.
   Lee Huntington         : MR-EOM, pCC
   Robert Izsak           : Overlap fitted RIJCOSX, COSX-SCS-MP3, EOM
   Riya Kayal             : Wick's Theorem for AUTO-CI, AUTO-CI UHF-CCSDT
   Emily Kempfer          : AUTO-CI, RHF CISDT and CCSDT
   Christian Kollmar      : KDIIS, OOCD, Brueckner-CCSD(T), CCSD density, CASPT2, CASPT2-K, improved NEVPT2
   Axel Koslowski         : Symmetry handling
   Simone Kossmann        : Meta GGA functionals, TD-DFT gradient, OOMP2, (MP2 Hessian; deprecated post 5.0)
   Lucas Lang             : DCDCAS
   Marvin Lechner         : AUTO-CI (C++ implementation), FIC-MRCC
   Spencer Leger          : CASSCF response
   Dagmar Lenk            : GEPOL surface, SMD, ORCA-2-JSON
   Dimitrios Liakos       : Extrapolation schemes; Compound Job, initial MDCI parallelization
   Dimitrios Manganas     : Further ROCIS development; embedding schemes. LFT, Crystal Embedding
   Dimitrios Pantazis     : SARC Basis sets
   Anastasios Papadopoulos: AUTO-CI, single reference methods and gradients
   Taras Petrenko         : pre 6.0 DFT Hessian and TD-DFT gradient, (ASA, deprecated), ECA, 1-Electron XAS/XES, NRVS
   Peter Pinski           : DLPNO-MP2, DLPNO-MP2 Gradient
   Christoph Reimann      : Effective Core Potentials
   Marius Retegan         : Local ZFS, SOC
   Christoph Riplinger    : Optimizer, TS searches, QM/MM, DLPNO-CCSD(T), (RO)-DLPNO pert. Triples
   Michael Roemelt        : Original ROCIS implementation
   Masaaki Saitow         : Open-shell DLPNO-CCSD energy and density
   Barbara Sandhoefer     : DKH picture change effects
   Kantharuban Sivalingam : CASSCF convergence/infrastructure, NEVPT2 and variants, FIC-MRCI
   Bernardo de Souza      : ESD, SOC TD-DFT
   Georgi Stoychev        : AutoAux, RI-MP2 NMR, DLPNO-MP2 response, X2C
   Van Anh Tran           : RI-MP2 g-tensors
   Willem Van den Heuvel  : Paramagnetic NMR
   Zikuan Wang            : NOTCH, Electric field optimization 
   Frank Wennmohs         : Technical directorship and infrastructure
   Hang Xu                : AUTO-CI-Response properties 


 We gratefully acknowledge several colleagues who have allowed us to
 interface, adapt or use parts of their codes:
   Stefan Grimme, W. Hujo, H. Kruse, P. Pracht,  : VdW corrections, initial TS optimization,
                  C. Bannwarth, S. Ehlert,         DFT functionals, gCP, sTDA/sTD-DF
                  L. Wittmann, M. Mueller
   Ed Valeev, F. Pavosevic, A. Kumar             : LibInt (2-el integral package), F12 methods
   Garnet Chan, S. Sharma, J. Yang, R. Olivares  : DMRG
   Ulf Ekstrom                                   : XCFun DFT Library
   Mihaly Kallay                                 : mrcc  (arbitrary order and MRCC methods)
   Frank Weinhold                                : gennbo (NPA and NBO analysis)
   Simon Mueller                                 : openCOSMO-RS
   Christopher J. Cramer and Donald G. Truhlar   : smd solvation model
   Lars Goerigk                                  : TD-DFT with DH, B97 family of functionals
   V. Asgeirsson, H. Jonsson                     : NEB implementation
   FAccTs GmbH                                   : IRC, NEB, NEB-TS, DLPNO-Multilevel, CI-OPT
                                                   MM, QMMM, 2- and 3-layer-ONIOM, Crystal-QMMM,
                                                   LR-CPCM, SF, NACMEs, symmetry and pop. for TD-DFT,
                                                   nearIR, NL-DFT gradient (VV10), updates on ESD,
                                                   ML-optimized integration grids, MBIS, APM,
                                                   GOAT, DOCKER, SOLVATOR, interface openCOSMO-RS
   S Lehtola, MJT Oliveira, MAL Marques          : LibXC Library
   Liviu Ungur et al                             : ANISO software


 Your calculation uses the libint2 library for the computation of 2-el integrals
 For citations please refer to: http://libint.valeyev.net

 Your ORCA version has been built with support for libXC version: 6.2.2
 For citations please refer to: https://libxc.gitlab.io

 This ORCA versions uses:
   CBLAS   interface :  Fast vector & matrix operations
   LAPACKE interface :  Fast linear algebra routines
   SCALAPACK package :  Parallel linear algebra routines
   Shared memory     :  Shared parallel matrices
   BLAS/LAPACK       :  OpenBLAS 0.3.27  USE64BITINT DYNAMIC_ARCH NO_AFFINITY SkylakeX SINGLE_THREADED
        Core in use  :  SkylakeX
   Copyright (c) 2011-2014, The OpenBLAS Project


Your calculation utilizes the geometrical counterpoise correction gCP
Please cite in your paper:
H.Kruse, S. Grimme J.Chem.Phys., 136, (2012), 154101 
   

Your calculation utilizes the atom-pairwise dispersion correction
based on EEQ partial charges (D4)


================================================================================

----- Orbital basis set information -----
Your calculation utilizes the basis: def2-mTZVPP
   Stefan Grimme, Andreas Hansen, Sebastian Ehlert, and Jan-Michael Mewes 
   J. Chem. Phys. 154, 064103 (2021). DOI: 10.1063/5.0040021

----- AuxJ basis set information -----
Your calculation utilizes the auxiliary basis: def2/J
   F. Weigend, Phys. Chem. Chem. Phys. 8, 1057 (2006).

================================================================================
                                        WARNINGS
                       Please study these warnings very carefully!
================================================================================

Using LibXC functional ID 497 : Re-regularized SCAN exchange by Furness et al
[ 1]  J. W. Furness, A. D. Kaplan, J. Ning, J. P. Perdew, and J. Sun.,  J. Phys. Chem. Lett. 11, 8208-8215 (2020)
[ 2]  J. W. Furness, A. D. Kaplan, J. Ning, J. P. Perdew, and J. Sun.,  J. Phys. Chem. Lett. 11, 9248-9248 (2020)
Using LibXC functional ID 498 : Re-regularized SCAN correlation by Furness et al
[ 1]  J. W. Furness, A. D. Kaplan, J. Ning, J. P. Perdew, and J. Sun.,  J. Phys. Chem. Lett. 11, 8208-8215 (2020)
[ 2]  J. W. Furness, A. D. Kaplan, J. Ning, J. P. Perdew, and J. Sun.,  J. Phys. Chem. Lett. 11, 9248-9248 (2020)
Using LibXC functional ID 497 : Re-regularized SCAN exchange by Furness et al
[ 1]  J. W. Furness, A. D. Kaplan, J. Ning, J. P. Perdew, and J. Sun.,  J. Phys. Chem. Lett. 11, 8208-8215 (2020)
[ 2]  J. W. Furness, A. D. Kaplan, J. Ning, J. P. Perdew, and J. Sun.,  J. Phys. Chem. Lett. 11, 9248-9248 (2020)
Using LibXC functional ID 498 : Re-regularized SCAN correlation by Furness et al
[ 1]  J. W. Furness, A. D. Kaplan, J. Ning, J. P. Perdew, and J. Sun.,  J. Phys. Chem. Lett. 11, 8208-8215 (2020)
[ 2]  J. W. Furness, A. D. Kaplan, J. Ning, J. P. Perdew, and J. Sun.,  J. Phys. Chem. Lett. 11, 9248-9248 (2020)

================================================================================
                                       INPUT FILE
================================================================================
NAME = sp_gas.inp
|  1> ! r2scan-3c def2/J RI DEFGRID2 scfconv6 printgap
|  2> %output
|  3>     printlevel normal
|  4> end
|  5> * xyz 0 1
|  6> C -0.7841626934 0.000127961 0.6771292491
|  7> C 0.5921419159 0.0001782754 0.026325874
|  8> Cl 0.4606301395 -5.65145e-05 -1.7417178649
|  9> Cl 1.4870603271 -1.4422401333 0.5449213753
| 10> Cl 1.4874266282 1.4423949524 0.5448815464
| 11> Cl -1.6754260251 1.4511985172 0.1816400218
| 12> Cl -1.6746855981 -1.4514024406 0.1817244635
| 13> H -0.7018099334 6.58539e-05 1.7669170268
| 14> *
| 15> 
| 16>                          ****END OF INPUT****
================================================================================

                       ****************************
                       * Single Point Calculation *
                       ****************************

---------------------------------
CARTESIAN COORDINATES (ANGSTROEM)
---------------------------------
  C     -0.784163    0.000128    0.677129
  C      0.592142    0.000178    0.026326
  Cl     0.460630   -0.000057   -1.741718
  Cl     1.487060   -1.442240    0.544921
  Cl     1.487427    1.442395    0.544882
  Cl    -1.675426    1.451199    0.181640
  Cl    -1.674686   -1.451402    0.181724
  H     -0.701810    0.000066    1.766917

----------------------------
CARTESIAN COORDINATES (A.U.)
----------------------------
  NO LB      ZA    FRAG     MASS         X           Y           Z
   0 C     6.0000    0    12.011   -1.481853    0.000242    1.279589
   1 C     6.0000    0    12.011    1.118986    0.000337    0.049749
   2 Cl   17.0000    0    35.453    0.870465   -0.000107   -3.291370
   3 Cl   17.0000    0    35.453    2.810137   -2.725439    1.029752
   4 Cl   17.0000    0    35.453    2.810829    2.725731    1.029677
   5 Cl   17.0000    0    35.453   -3.166096    2.742368    0.343250
   6 Cl   17.0000    0    35.453   -3.164697   -2.742753    0.343409
   7 H     1.0000    0     1.008   -1.326229    0.000124    3.338989

--------------------------------
INTERNAL COORDINATES (ANGSTROEM)
--------------------------------
 C      0   0   0     0.000000000000     0.00000000     0.00000000
 C      1   0   0     1.522418934838     0.00000000     0.00000000
 Cl     2   1   0     1.772928104894   111.05375090     0.00000000
 Cl     2   1   3     1.774934117772   109.32224907   239.45810524
 Cl     2   1   3     1.774943279340   109.33731714   120.56734919
 Cl     1   2   3     1.773546069284   109.56316755   299.72820177
 Cl     1   2   3     1.773526839989   109.54496649    60.27292574
 H      1   2   3     1.092894954404   110.98623234   179.98837963

---------------------------
INTERNAL COORDINATES (A.U.)
---------------------------
 C      0   0   0     0.000000000000     0.00000000     0.00000000
 C      1   0   0     2.876954847940     0.00000000     0.00000000
 Cl     2   1   0     3.350348573381   111.05375090     0.00000000
 Cl     2   1   3     3.354139388342   109.32224907   239.45810524
 Cl     2   1   3     3.354156701196   109.33731714   120.56734919
 Cl     1   2   3     3.351516356840   109.56316755   299.72820177
 Cl     1   2   3     3.351480018737   109.54496649    60.27292574
 H      1   2   3     2.065272156967   110.98623234   179.98837963

---------------------
BASIS SET INFORMATION
---------------------
There are 3 groups of distinct atoms

 Group   1 Type C   : 11s6p1d contracted to 5s3p1d pattern {62111/411/1}
 Group   2 Type Cl  : 14s9p2d contracted to 5s4p2d pattern {73211/6111/11}
 Group   3 Type H   : 4s1p contracted to 2s1p pattern {31/1}

Atom   0C    basis set group =>   1
Atom   1C    basis set group =>   1
Atom   2Cl   basis set group =>   2
Atom   3Cl   basis set group =>   2
Atom   4Cl   basis set group =>   2
Atom   5Cl   basis set group =>   2
Atom   6Cl   basis set group =>   2
Atom   7H    basis set group =>   3
---------------------------------
AUXILIARY/J BASIS SET INFORMATION
---------------------------------
There are 3 groups of distinct atoms

 Group   1 Type C   : 12s5p4d2f1g contracted to 6s4p3d1f1g pattern {711111/2111/211/2/1}
 Group   2 Type Cl  : 14s5p5d2f1g contracted to 8s4p3d1f1g pattern {71111111/2111/311/2/1}
 Group   3 Type H   : 5s2p1d contracted to 3s1p1d pattern {311/2/1}

Atom   0C    basis set group =>   1
Atom   1C    basis set group =>   1
Atom   2Cl   basis set group =>   2
Atom   3Cl   basis set group =>   2
Atom   4Cl   basis set group =>   2
Atom   5Cl   basis set group =>   2
Atom   6Cl   basis set group =>   2
Atom   7H    basis set group =>   3

Checking for AutoStart:
The File: sp_gas.gbw exists
Trying to determine its content:
     ... Fine, the file contains calculation information
     ... Fine, the calculation information was read
     ... Fine, the file contains a basis set
     ... Fine, the basis set was read
     ... Fine, the file contains a geometry
     ... Fine, the geometry was read
     ... Fine, the file contains a set of orbitals
     ... Fine, the orbitals can be read
     => possible old guess file was deleted
     => GBW file was renamed to GES file
     => GES file is set as startup file
     => Guess is set to MORead
     ... now leaving AutoStart

------------------------------------------------------------------------------
                             ORCA STARTUP CALCULATIONS
                           -- RI-GTO INTEGRALS CHOSEN --
------------------------------------------------------------------------------
------------------------------------------------------------------------------
                   ___                                                        
                  /   \      - P O W E R E D   B Y -                         
                 /     \                                                     
                 |  |  |   _    _      __       _____    __    __             
                 |  |  |  | |  | |    /  \     |  _  \  |  |  /  |          
                  \  \/   | |  | |   /    \    | | | |  |  | /  /          
                 / \  \   | |__| |  /  /\  \   | |_| |  |  |/  /          
                |  |  |   |  __  | /  /__\  \  |    /   |      \           
                |  |  |   | |  | | |   __   |  |    \   |  |\   \          
                \     /   | |  | | |  |  |  |  | |\  \  |  | \   \       
                 \___/    |_|  |_| |__|  |__|  |_| \__\ |__|  \__/        
                                                                              
                      - O R C A' S   B I G   F R I E N D -                    
                                      &                                       
                       - I N T E G R A L  F E E D E R -                       
                                                                              
 v1 FN, 2020, v2 2021, v3 2022-2024                                           
------------------------------------------------------------------------------


----------------------
SHARK INTEGRAL PACKAGE
----------------------

Number of atoms                             ...      8
Number of basis functions                   ...    178
Number of shells                            ...     76
Maximum angular momentum                    ...      2
Integral batch strategy                     ... SHARK/LIBINT Hybrid
RI-J (if used) integral strategy            ... SPLIT-RIJ (Revised 2003 algorithm where possible)
Printlevel                                  ...      1
Contraction scheme used                     ... SEGMENTED contraction
Prescreening option                         ... SCHWARTZ
   Thresh                                   ... 1.000e-10
   Tcut                                     ... 1.000e-11
   Tpresel                                  ... 1.000e-11 
Coulomb Range Separation                    ... NOT USED
Exchange Range Separation                   ... NOT USED
Multipole approximations                    ... NOT USED
Finite Nucleus Model                        ... NOT USED
CABS basis                                  ... NOT available
Auxiliary Coulomb fitting basis             ... AVAILABLE
   # of basis functions in Aux-J            ...    364
   # of shells in Aux-J                     ...    120
   Maximum angular momentum in Aux-J        ...      4
Auxiliary J/K fitting basis                 ... NOT available
Auxiliary Correlation fitting basis         ... NOT available
Auxiliary 'external' fitting basis          ... NOT available

Checking pre-screening integrals            ... done (  0.0 sec) Dimension = 76
Check shell pair data                       ... done (  0.0 sec)
Shell pair information
Shell pair cut-off parameter TPreSel        ...   1.0e-11
Total number of shell pairs                 ...      2926
Shell pairs after pre-screening             ...      2606
Total number of primitive shell pairs       ...     14108
Primitive shell pairs kept                  ...      8255
          la=0 lb=0:    553 shell pairs
          la=1 lb=0:    874 shell pairs
          la=1 lb=1:    357 shell pairs
          la=2 lb=0:    424 shell pairs
          la=2 lb=1:    320 shell pairs
          la=2 lb=2:     78 shell pairs

Calculating one electron integrals          ... done (  0.0 sec)
Calculating RI/J V-Matrix + Cholesky decomp.... done (  0.1 sec)
Calculating Nuclear repulsion               ... done (  0.0 sec) ENN=    758.905603145172 Eh

Diagonalization of the overlap matrix:
Smallest eigenvalue                        ... 4.831e-04
Time for diagonalization                   ...    0.003 sec
Threshold for overlap eigenvalues          ... 1.000e-07
Number of eigenvalues below threshold      ... 0
Time for construction of square roots      ...    0.016 sec
Total time needed                          ...    0.027 sec

-------------------
DFT GRID GENERATION
-------------------

General Integration Accuracy     IntAcc      ... 4.388
Radial Grid Type                 RadialGrid  ... OptM3 with GC (2021)
Angular Grid (max. ang.)         AngularGrid ... 4 (Lebedev-302)
Angular grid pruning method      GridPruning ... 4 (adaptive)
Weight generation scheme         WeightScheme... mBecke (2022)
Basis function cutoff            BFCut       ... 1.0000e-10
Integration weight cutoff        WCut        ... 1.0000e-14
Partially contracted basis set               ... off
Rotationally invariant grid construction     ... off
Angular grids for H and He will be reduced by one unit

Total number of grid points                  ...    51945
Total number of batches                      ...      817
Average number of points per batch           ...       63
Average number of grid points per atom       ...     6493
Initializing property integral containers    ... done (  0.0 sec)

SHARK setup successfully completed in   0.7 seconds

Maximum memory used throughout the entire STARTUP-calculation: 25.3 MB
-------------------------------------------------------------------------------
                                 ORCA GUESS
                   Start orbitals & Density for SCF / CASSCF
-------------------------------------------------------------------------------

------------
SCF SETTINGS
------------
Hamiltonian:
 Density Functional     Method          .... DFT(GTOs)
  Functional kind                       .... Exchange
  Functional name                       .... Re-regularized SCAN exchange by Furness et al
  Functional family                     .... MGGA
  Functional refs                              
    [ 0] J. W. Furness, A. D. Kaplan, J. Ning, J. P. Perdew, and J. Sun.,  J. Phys. Chem. Lett. 11, 8208-8215 (2020), doi: 10.1021/acs.jpclett.0c02405
    [ 1] J. W. Furness, A. D. Kaplan, J. Ning, J. P. Perdew, and J. Sun.,  J. Phys. Chem. Lett. 11, 9248-9248 (2020), doi: 10.1021/acs.jpclett.0c03077
  Functional external parameters        .... 6
    Parameter  0 _c1        =  6.670000e-01 : c1 parameter        
    Parameter  1 _c2        =  8.000000e-01 : c2 parameter        
    Parameter  2 _d         =  1.240000e+00 : d parameter         
    Parameter  3 _k1        =  6.500000e-02 : k1 parameter        
    Parameter  4 _eta       =  1.000000e-03 : eta parameter       
    Parameter  5 _dp2       =  3.610000e-01 : dp2 parameter       
  Functional kind                       .... Correlation
  Functional name                       .... Re-regularized SCAN correlation by Furness et al
  Functional family                     .... MGGA
  Functional refs                              
    [ 0] J. W. Furness, A. D. Kaplan, J. Ning, J. P. Perdew, and J. Sun.,  J. Phys. Chem. Lett. 11, 8208-8215 (2020), doi: 10.1021/acs.jpclett.0c02405
    [ 1] J. W. Furness, A. D. Kaplan, J. Ning, J. P. Perdew, and J. Sun.,  J. Phys. Chem. Lett. 11, 9248-9248 (2020), doi: 10.1021/acs.jpclett.0c03077
  Functional external parameters        .... 1
    Parameter  0 _eta       =  1.000000e-03 : Regularization parameter
 Gradients option       PostSCFGGA      .... off
 RI-approximation to the Coulomb term is turned on
   Number of AuxJ basis functions       .... 364


General Settings:
 Integral files         IntName         .... sp_gas
 Hartree-Fock type      HFTyp           .... RHF
 Total Charge           Charge          ....    0
 Multiplicity           Mult            ....    1
 Number of Electrons    NEL             ....   98
 Basis Dimension        Dim             ....  178
 Nuclear Repulsion      ENuc            ....    758.9056031452 Eh

Convergence Acceleration:
 AO-DIIS                CNVDIIS         .... on
   Start iteration      DIISMaxIt       ....    12
   Startup error        DIISStart       ....  0.200000
   # of expansion vecs  DIISMaxEq       ....     5
   Bias factor          DIISBfac        ....   1.050
   Max. coefficient     DIISMaxC        ....  10.000
 MO-DIIS                CNVKDIIS        .... off
 Trust-Rad. Augm. Hess. CNVTRAH         .... auto
   Auto Start mean grad. ratio tolernc. ....  1.125000
   Auto Start start iteration           ....     1
   Auto Start num. interpolation iter.  ....    10
   Max. Number of Micro iterations      ....    24
   Max. Number of Macro iterations      .... Maxiter - #DIIS iter
   Number of Davidson start vectors     ....     2
   Converg. threshold    (grad. norm)   ....   3.330e-04
   Grad. Scal. Fac. for Micro threshold ....   0.100
   Minimum threshold for Micro iter.    ....   1.000e-02
   NR start threshold (gradient norm)   ....   1.000e-04
   Initial trust radius                 ....   0.400
   Minimum AH scaling param. (alpha)    ....   1.000
   Maximum AH scaling param. (alpha)    .... 1000.000
   Quad. conv. algorithm                .... NR
   White noise on init. David. guess    .... on
   Maximum white noise                  ....   0.010
   Pseudo random numbers                .... off
   Inactive MOs                         .... canonical
   Orbital update algorithm             .... Taylor
   Preconditioner                       .... Diag
   Full preconditioner red. dimension   ....   250
   COSX micro iterations for RIJONX calc.... off
 SOSCF                  CNVSOSCF        .... on
   Start iteration      SOSCFMaxIt      ....   150
   Startup grad/error   SOSCFStart      ....  0.003300
   Hessian update       SOSCFHessUp     .... L-BFGS
 Level Shifting         CNVShift        .... on
   Level shift para.    LevelShift      ....    0.2500
   Turn off err/grad.   ShiftErr        ....    0.0010
 Zerner damping         CNVZerner       .... off
 Static damping         CNVDamp         .... on
   Fraction old density DampFac         ....    0.7000
   Max. Damping (<1)    DampMax         ....    0.9800
   Min. Damping (>=0)   DampMin         ....    0.0000
   Turn off err/grad.   DampErr         ....    0.1000

SCF Procedure:
 Maximum # iterations   MaxIter         ....   125
 SCF integral mode      SCFMode         .... Direct
   Integral package                     .... SHARK and LIBINT hybrid scheme
 Reset frequency        DirectResetFreq ....    20
 Integral Threshold     Thresh          ....  1.000e-10 Eh
 Primitive CutOff       TCut            ....  1.000e-11 Eh

Convergence Tolerance:
 Convergence Check Mode ConvCheckMode   .... Total+1el-Energy
 Convergence forced     ConvForced      .... 0
 Energy Change          TolE            ....  1.000e-06 Eh
 1-El. energy change                    ....  1.000e-03 Eh
 Orbital Gradient       TolG            ....  3.330e-04
 Orbital Rotation angle TolX            ....  3.330e-04
 DIIS Error             TolErr          ....  1.000e-06

---------------------
INITIAL GUESS: MOREAD
---------------------
Guess MOs are being read from file: sp_gas.ges
Input Geometry matches current geometry (good)
Atom 0: N(Shells)= 9 and 6 - projection required
Input basis set needs projection
NBasis(read)= 120
NBasis(calc)= 178
Basis set overlap was calculated
Using GuessMode=FMatrix for the initial guess
C*T matrix was formed
Effective Fockian was calculated
Effective Fockian was diagonalized
Initial density was built
                      ------------------
                      INITIAL GUESS DONE (   0.0 sec)
                      ------------------
             **** ENERGY FILE WAS UPDATED (sp_gas.en.tmp) ****
Finished Guess after   0.2 sec
Maximum memory used throughout the entire GUESS-calculation: 12.5 MB

-------------------------------------------------------------------------------------------
                                      ORCA LEAN-SCF
                              memory conserving SCF solver
-------------------------------------------------------------------------------------------

----------------------------------------D-I-I-S--------------------------------------------
Iteration    Energy (Eh)           Delta-E    RMSDP     MaxDP     DIISErr   Damp  Time(sec)
-------------------------------------------------------------------------------------------
               ***  Starting incremental Fock matrix formation  ***
    1    -2377.5106670998825393     0.00e+00  2.71e-03  5.74e-02  5.38e-01  0.700   1.5
    2    -2377.5574638784123636    -4.68e-02  2.24e-03  4.00e-02  3.77e-01  0.700   1.4
    3    -2377.5905417338904044    -3.31e-02  1.65e-03  2.77e-02  2.64e-01  0.700   1.4
                               ***Turning on AO-DIIS***
    4    -2377.6137480792745009    -2.32e-02  1.21e-03  2.07e-02  1.85e-01  0.700   1.4
    5    -2377.6300153451052211    -1.63e-02  8.61e-04  1.49e-02  1.29e-01  0.700   1.4
    6    -2377.6414203624713082    -1.14e-02  6.07e-04  1.05e-02  9.05e-02  0.700   1.3
    7    -2377.6494135660695974    -7.99e-03  1.42e-03  2.48e-02  6.34e-02  0.000   1.3
                              *** Initializing SOSCF ***
---------------------------------------S-O-S-C-F--------------------------------------
Iteration    Energy (Eh)           Delta-E    RMSDP     MaxDP     MaxGrad    Time(sec)
--------------------------------------------------------------------------------------
    8    -2377.6680897271562571    -1.87e-02  8.02e-06  1.59e-04  1.42e-04     1.4
               *** Restarting incremental Fock matrix formation ***
    9    -2377.6680899377465721    -2.11e-07  4.01e-06  1.08e-04  3.40e-05     1.5
                  *** Gradient check signals convergence ***

               *****************************************************
               *                     SUCCESS                       *
               *           SCF CONVERGED AFTER   9 CYCLES          *
               *****************************************************

             **** ENERGY FILE WAS UPDATED (sp_gas.en.tmp) ****

----------------
TOTAL SCF ENERGY
----------------

Total Energy       :      -2377.66808993774657 Eh          -64699.63799 eV

Components:
Nuclear Repulsion  :        758.90560314517222 Eh           20650.87133 eV
Electronic Energy  :      -3136.57369308291891 Eh          -85350.50932 eV
One Electron Energy:      -4792.78715656024360 Eh         -130418.36887 eV
Two Electron Energy:       1656.21346347732469 Eh           45067.85955 eV

Virial components:
Potential Energy   :      -4749.82964374612493 Eh         -129249.43552 eV
Kinetic Energy     :       2372.16155380837836 Eh           64549.79753 eV
Virial Ratio       :          2.00232131581448

DFT components:
N(Alpha)           :       48.999999281636 electrons
N(Beta)            :       48.999999281636 electrons
N(Total)           :       97.999998563272 electrons
E(X)               :     -148.505931346754 Eh       
E(C)               :       -3.761615388069 Eh       
E(XC)              :     -152.267546734823 Eh       

---------------
SCF CONVERGENCE
---------------

  Last Energy change         ...    2.1059e-07  Tolerance :   1.0000e-06
  Last MAX-Density change    ...    1.0768e-04  Tolerance :   1.0000e-05
  Last RMS-Density change    ...    4.0129e-06  Tolerance :   1.0000e-06
  Last DIIS Error            ...    1.4152e-04  Tolerance :   1.0000e-06
  Last Orbital Gradient      ...    3.3954e-05  Tolerance :   3.3300e-04
  Last Orbital Rotation      ...    4.9071e-05  Tolerance :   3.3300e-04


----------------
ORBITAL ENERGIES
----------------

  NO   OCC          E(Eh)            E(eV) 
   0   2.0000    -101.250944     -2755.1782 
   1   2.0000    -101.250923     -2755.1777 
   2   2.0000    -101.246294     -2755.0517 
   3   2.0000    -101.242271     -2754.9423 
   4   2.0000    -101.242251     -2754.9417 
   5   2.0000     -10.250107      -278.9196 
   6   2.0000     -10.199760      -277.5496 
   7   2.0000      -9.406961      -255.9764 
   8   2.0000      -9.406943      -255.9759 
   9   2.0000      -9.402278      -255.8490 
  10   2.0000      -9.398243      -255.7392 
  11   2.0000      -9.398225      -255.7387 
  12   2.0000      -7.154117      -194.6734 
  13   2.0000      -7.154099      -194.6729 
  14   2.0000      -7.149506      -194.5479 
  15   2.0000      -7.145272      -194.4327 
  16   2.0000      -7.145255      -194.4323 
  17   2.0000      -7.142645      -194.3612 
  18   2.0000      -7.142627      -194.3608 
  19   2.0000      -7.142388      -194.3542 
  20   2.0000      -7.142369      -194.3537 
  21   2.0000      -7.137805      -194.2296 
  22   2.0000      -7.137785      -194.2290 
  23   2.0000      -7.133939      -194.1243 
  24   2.0000      -7.133921      -194.1239 
  25   2.0000      -7.133780      -194.1200 
  26   2.0000      -7.133764      -194.1196 
  27   2.0000      -0.952852       -25.9284 
  28   2.0000      -0.877615       -23.8811 
  29   2.0000      -0.826086       -22.4789 
  30   2.0000      -0.816732       -22.2244 
  31   2.0000      -0.801747       -21.8166 
  32   2.0000      -0.693713       -18.8769 
  33   2.0000      -0.585485       -15.9319 
  34   2.0000      -0.508815       -13.8455 
  35   2.0000      -0.489329       -13.3153 
  36   2.0000      -0.485761       -13.2182 
  37   2.0000      -0.440303       -11.9812 
  38   2.0000      -0.429822       -11.6960 
  39   2.0000      -0.347138        -9.4461 
  40   2.0000      -0.343725        -9.3532 
  41   2.0000      -0.328012        -8.9257 
  42   2.0000      -0.323926        -8.8145 
  43   2.0000      -0.319598        -8.6967 
  44   2.0000      -0.311921        -8.4878 
  45   2.0000      -0.307534        -8.3684 
  46   2.0000      -0.295131        -8.0309 
  47   2.0000      -0.290726        -7.9111 
  48   2.0000      -0.281817        -7.6686 
  49   0.0000      -0.070934        -1.9302 
  50   0.0000      -0.059564        -1.6208 
  51   0.0000      -0.058336        -1.5874 
  52   0.0000      -0.015267        -0.4154 
  53   0.0000       0.015779         0.4294 
  54   0.0000       0.074996         2.0407 
  55   0.0000       0.089266         2.4291 
  56   0.0000       0.146359         3.9826 
  57   0.0000       0.179283         4.8785 
  58   0.0000       0.181306         4.9336 
  59   0.0000       0.213035         5.7970 
*Only the first 10 virtual orbitals were printed.

                    ********************************
                    * MULLIKEN POPULATION ANALYSIS *
                    ********************************

-----------------------
MULLIKEN ATOMIC CHARGES
-----------------------
   0 C :   -0.058982
   1 C :    0.181468
   2 Cl:   -0.056884
   3 Cl:   -0.058166
   4 Cl:   -0.058115
   5 Cl:   -0.085660
   6 Cl:   -0.085688
   7 H :    0.222027
Sum of atomic charges:    0.0000000

--------------------------------
MULLIKEN REDUCED ORBITAL CHARGES
--------------------------------
  0 C s       :     3.218688  s :     3.218688
      pz      :     1.097782  p :     2.782187
      px      :     0.890212
      py      :     0.794193
      dz2     :     0.012508  d :     0.058107
      dxz     :     0.008447
      dyz     :     0.008572
      dx2y2   :     0.014734
      dxy     :     0.013846

  1 C s       :     3.102930  s :     3.102930
      pz      :     0.847382  p :     2.641304
      px      :     0.964967
      py      :     0.828955
      dz2     :     0.017530  d :     0.074298
      dxz     :     0.013717
      dyz     :     0.013328
      dx2y2   :     0.014893
      dxy     :     0.014830

  2 Cls       :     5.970387  s :     5.970387
      pz      :     3.179644  p :    11.036783
      px      :     3.921968
      py      :     3.935171
      dz2     :     0.023022  d :     0.049714
      dxz     :     0.009933
      dyz     :     0.011395
      dx2y2   :     0.001484
      dxy     :     0.003880

  3 Cls       :     5.965972  s :     5.965972
      pz      :     3.867135  p :    11.042890
      px      :     3.740569
      py      :     3.435187
      dz2     :     0.008982  d :     0.049304
      dxz     :     0.004569
      dyz     :     0.008406
      dx2y2   :     0.011578
      dxy     :     0.015770

  4 Cls       :     5.965956  s :     5.965956
      pz      :     3.867117  p :    11.042868
      px      :     3.740399
      py      :     3.435352
      dz2     :     0.008977  d :     0.049291
      dxz     :     0.004569
      dyz     :     0.008403
      dx2y2   :     0.011573
      dxy     :     0.015769

  5 Cls       :     5.964105  s :     5.964105
      pz      :     3.881964  p :    11.072924
      px      :     3.750707
      py      :     3.440253
      dz2     :     0.007957  d :     0.048631
      dxz     :     0.004817
      dyz     :     0.007996
      dx2y2   :     0.011833
      dxy     :     0.016028

  6 Cls       :     5.964105  s :     5.964105
      pz      :     3.881988  p :    11.072937
      px      :     3.751041
      py      :     3.439907
      dz2     :     0.007960  d :     0.048646
      dxz     :     0.004815
      dyz     :     0.008002
      dx2y2   :     0.011841
      dxy     :     0.016028

  7 H s       :     0.760091  s :     0.760091
      pz      :     0.012717  p :     0.017882
      px      :     0.002636
      py      :     0.002529


------------------------
MULLIKEN OVERLAP CHARGES
------------------------
B(  0-C ,  1-C ) :   0.5950 B(  0-C ,  2-Cl) :  -0.0785 B(  0-C ,  3-Cl) :  -0.0783 
B(  0-C ,  4-Cl) :  -0.0783 B(  0-C ,  5-Cl) :   0.5553 B(  0-C ,  6-Cl) :   0.5553 
B(  0-C ,  7-H ) :   0.8411 B(  1-C ,  2-Cl) :   0.6376 B(  1-C ,  3-Cl) :   0.5857 
B(  1-C ,  4-Cl) :   0.5858 B(  1-C ,  5-Cl) :  -0.0671 B(  1-C ,  6-Cl) :  -0.0671 
B(  1-C ,  7-H ) :  -0.0787 B(  2-Cl,  3-Cl) :  -0.1758 B(  2-Cl,  4-Cl) :  -0.1757 
B(  3-Cl,  4-Cl) :  -0.1804 B(  5-Cl,  6-Cl) :  -0.1557 B(  5-Cl,  7-H ) :  -0.0921 
B(  6-Cl,  7-H ) :  -0.0922 


                     *******************************
                     * LOEWDIN POPULATION ANALYSIS *
                     *******************************

----------------------
LOEWDIN ATOMIC CHARGES
----------------------
   0 C :   -0.382920
   1 C :   -0.441588
   2 Cl:    0.140697
   3 Cl:    0.139073
   4 Cl:    0.139102
   5 Cl:    0.109996
   6 Cl:    0.109973
   7 H :    0.185667

-------------------------------
LOEWDIN REDUCED ORBITAL CHARGES
-------------------------------
  0 C s       :     3.022039  s :     3.022039
      pz      :     1.156954  p :     3.235400
      px      :     1.053770
      py      :     1.024675
      dz2     :     0.028891  d :     0.125481
      dxz     :     0.017921
      dyz     :     0.016601
      dx2y2   :     0.031887
      dxy     :     0.030181

  1 C s       :     3.028373  s :     3.028373
      pz      :     1.076949  p :     3.258151
      px      :     1.114772
      py      :     1.066431
      dz2     :     0.039379  d :     0.155064
      dxz     :     0.027505
      dyz     :     0.025029
      dx2y2   :     0.031330
      dxy     :     0.031821

  2 Cls       :     5.681669  s :     5.681669
      pz      :     3.245086  p :    11.060637
      px      :     3.903779
      py      :     3.911772
      dz2     :     0.063686  d :     0.116997
      dxz     :     0.021444
      dyz     :     0.022567
      dx2y2   :     0.002421
      dxy     :     0.006879

  3 Cls       :     5.683241  s :     5.683241
      pz      :     3.852448  p :    11.061638
      px      :     3.734587
      py      :     3.474602
      dz2     :     0.019311  d :     0.116048
      dxz     :     0.010259
      dyz     :     0.020771
      dx2y2   :     0.026576
      dxy     :     0.039131

  4 Cls       :     5.683249  s :     5.683249
      pz      :     3.852444  p :    11.061634
      px      :     3.734439
      py      :     3.474751
      dz2     :     0.019302  d :     0.116014
      dxz     :     0.010260
      dyz     :     0.020762
      dx2y2   :     0.026558
      dxy     :     0.039132

  5 Cls       :     5.686109  s :     5.686109
      pz      :     3.880987  p :    11.091389
      px      :     3.737530
      py      :     3.472872
      dz2     :     0.017989  d :     0.112506
      dxz     :     0.011276
      dyz     :     0.019688
      dx2y2   :     0.025935
      dxy     :     0.037618

  6 Cls       :     5.686094  s :     5.686094
      pz      :     3.881005  p :    11.091392
      px      :     3.737822
      py      :     3.472565
      dz2     :     0.017996  d :     0.112541
      dxz     :     0.011270
      dyz     :     0.019702
      dx2y2   :     0.025964
      dxy     :     0.037611

  7 H s       :     0.767237  s :     0.767237
      pz      :     0.034154  p :     0.047096
      px      :     0.006637
      py      :     0.006305


---------------------------------
LOEWDIN BOND ORDERS (THRESH 0.050000)
---------------------------------
B(  0-C ,  1-C ) :   1.0344 B(  0-C ,  2-Cl) :   0.1160 B(  0-C ,  3-Cl) :   0.1264 
B(  0-C ,  4-Cl) :   0.1264 B(  0-C ,  5-Cl) :   1.3610 B(  0-C ,  6-Cl) :   1.3609 
B(  0-C ,  7-H ) :   0.8473 B(  1-C ,  2-Cl) :   1.3529 B(  1-C ,  3-Cl) :   1.3467 
B(  1-C ,  4-Cl) :   1.3468 B(  1-C ,  5-Cl) :   0.1236 B(  1-C ,  6-Cl) :   0.1237 
B(  2-Cl,  3-Cl) :   0.1629 B(  2-Cl,  4-Cl) :   0.1628 B(  3-Cl,  4-Cl) :   0.1625 
B(  5-Cl,  6-Cl) :   0.1651 

------------------------------------------
LOEWDIN REDUCED ORBITAL POPULATIONS PER MO
-------------------------------------------
THRESHOLD FOR PRINTING IS 0.1%%
                      0         1         2         3         4         5   
                 -101.25094 -101.25092 -101.24629 -101.24227 -101.24225 -10.25011
                   2.00000   2.00000   2.00000   2.00000   2.00000   2.00000
                  --------  --------  --------  --------  --------  --------
 1 C  s               0.0       0.0       0.0       0.0       0.0      99.6
 2 Cl s               0.0       0.0     100.0       0.0       0.0       0.0
 3 Cl s               0.2      99.8       0.0       0.0       0.0       0.0
 4 Cl s              99.8       0.2       0.0       0.0       0.0       0.0
 5 Cl s               0.0       0.0       0.0      99.0       1.0       0.0
 6 Cl s               0.0       0.0       0.0       1.0      99.0       0.0

                      6         7         8         9        10        11   
                 -10.19976  -9.40696  -9.40694  -9.40228  -9.39824  -9.39823
                   2.00000   2.00000   2.00000   2.00000   2.00000   2.00000
                  --------  --------  --------  --------  --------  --------
 0 C  s              99.7       0.0       0.0       0.0       0.0       0.0
 0 C  py              0.0       0.0       0.0       0.0       0.1       0.1
 1 C  pz              0.0       0.0       0.0       0.1       0.0       0.0
 1 C  py              0.0       0.1       0.1       0.0       0.0       0.0
 2 Cl s               0.0       0.0       0.0      99.8       0.0       0.0
 3 Cl s               0.0       0.2      99.6       0.0       0.0       0.0
 4 Cl s               0.0      99.6       0.2       0.0       0.0       0.0
 5 Cl s               0.0       0.0       0.0       0.0      98.6       1.2
 6 Cl s               0.0       0.0       0.0       0.0       1.2      98.6

                     12        13        14        15        16        17   
                  -7.15412  -7.15410  -7.14951  -7.14527  -7.14525  -7.14264
                   2.00000   2.00000   2.00000   2.00000   2.00000   2.00000
                  --------  --------  --------  --------  --------  --------
 2 Cl pz              0.0       0.0      99.5       0.0       0.0       0.0
 2 Cl px              0.0       0.0       0.5       0.0       0.0       0.0
 3 Cl pz              0.0       8.6       0.0       0.0       0.0       0.0
 3 Cl px              0.0      25.9       0.0       0.0       0.0       0.0
 3 Cl py              0.0      65.5       0.0       0.0       0.0       0.0
 4 Cl pz              8.6       0.0       0.0       0.0       0.0      82.5
 4 Cl px             25.9       0.0       0.0       0.0       0.0      17.0
 4 Cl py             65.4       0.0       0.0       0.0       0.0       0.5
 5 Cl pz              0.0       0.0       0.0       7.6       0.0       0.0
 5 Cl px              0.0       0.0       0.0      25.9       0.0       0.0
 5 Cl py              0.0       0.0       0.0      66.5       0.0       0.0
 6 Cl pz              0.0       0.0       0.0       0.0       7.6       0.0
 6 Cl px              0.0       0.0       0.0       0.0      25.8       0.0
 6 Cl py              0.0       0.0       0.0       0.0      66.5       0.0

                     18        19        20        21        22        23   
                  -7.14263  -7.14239  -7.14237  -7.13781  -7.13779  -7.13394
                   2.00000   2.00000   2.00000   2.00000   2.00000   2.00000
                  --------  --------  --------  --------  --------  --------
 2 Cl pz              0.0       0.0       0.0       0.5       0.0       0.0
 2 Cl px              0.0       0.0       0.0      99.5       0.0       0.0
 2 Cl py              0.0       0.0       0.0       0.0     100.0       0.0
 3 Cl pz             82.5       0.0       8.9       0.0       0.0       0.0
 3 Cl px             17.0       0.0      57.1       0.0       0.0       0.0
 3 Cl py              0.5       0.0      34.0       0.0       0.0       0.0
 4 Cl pz              0.0       8.9       0.0       0.0       0.0       0.0
 4 Cl px              0.0      57.1       0.0       0.0       0.0       0.0
 4 Cl py              0.0      34.1       0.0       0.0       0.0       0.0
 5 Cl pz              0.0       0.0       0.0       0.0       0.0       2.4
 5 Cl px              0.0       0.0       0.0       0.0       0.0      74.1
 5 Cl py              0.0       0.0       0.0       0.0       0.0      23.5

                     24        25        26        27        28        29   
                  -7.13392  -7.13378  -7.13376  -0.95285  -0.87761  -0.82609
                   2.00000   2.00000   2.00000   2.00000   2.00000   2.00000
                  --------  --------  --------  --------  --------  --------
 0 C  s               0.0       0.0       0.0      15.8      13.9       0.0
 0 C  pz              0.0       0.0       0.0       1.7       0.3       0.0
 0 C  px              0.0       0.0       0.0       1.3       8.5       0.0
 0 C  py              0.0       0.0       0.0       0.0       0.0       9.8
 0 C  dx2y2           0.0       0.0       0.0       0.0       0.1       0.0
 0 C  dxy             0.0       0.0       0.0       0.0       0.0       0.1
 1 C  s               0.0       0.0       0.0      29.1       3.6       0.0
 1 C  pz              0.0       0.0       0.0       0.0       0.7       0.0
 1 C  px              0.0       0.0       0.0       0.1       9.2       0.0
 1 C  py              0.0       0.0       0.0       0.0       0.0      19.0
 1 C  dyz             0.0       0.0       0.0       0.0       0.0       0.1
 1 C  dx2y2           0.0       0.0       0.0       0.0       0.1       0.0
 1 C  dxy             0.0       0.0       0.0       0.0       0.0       0.3
 2 Cl s               0.0       0.0       0.0       8.9       4.1       0.0
 2 Cl pz              0.0       0.0       0.0       2.7       0.3       0.0
 2 Cl px              0.0       0.0       0.0       0.0       0.1       0.0
 2 Cl py              0.0       0.0       0.0       0.0       0.0       0.2
 2 Cl dz2             0.0       0.0       0.0       0.6       0.1       0.0
 3 Cl s               0.0       0.0       0.0       9.5       6.8      24.4
 3 Cl pz              0.0       0.0       0.0       0.2       0.1       0.0
 3 Cl px              0.0       0.0       0.0       0.7       0.0       0.1
 3 Cl py              0.0       0.0       0.0       1.7       0.4       0.2
 3 Cl dyz             0.0       0.0       0.0       0.1       0.0       0.0
 3 Cl dxy             0.0       0.0       0.0       0.3       0.1       0.0
 4 Cl s               0.0       0.0       0.0       9.5       6.8      24.5
 4 Cl pz              0.0       0.0       0.0       0.2       0.1       0.0
 4 Cl px              0.0       0.0       0.0       0.7       0.0       0.1
 4 Cl py              0.0       0.0       0.0       1.7       0.4       0.2
 4 Cl dyz             0.0       0.0       0.0       0.1       0.0       0.0
 4 Cl dxy             0.0       0.0       0.0       0.3       0.1       0.0
 5 Cl s               0.0       0.0       0.0       4.5      18.7      10.1
 5 Cl pz              0.0      90.0       0.0       0.1       0.1       0.0
 5 Cl px              0.0       0.0       0.0       0.5       0.2       0.1
 5 Cl py              0.0      10.0       0.0       0.9       1.3       0.1
 5 Cl dx2y2           0.0       0.0       0.0       0.0       0.1       0.0
 5 Cl dxy             0.0       0.0       0.0       0.2       0.2       0.0
 6 Cl s               0.0       0.0       0.0       4.5      18.6      10.1
 6 Cl pz              2.4       0.0      90.0       0.1       0.1       0.0
 6 Cl px             74.2       0.0       0.0       0.5       0.2       0.1
 6 Cl py             23.5       0.0      10.0       0.9       1.3       0.1
 6 Cl dx2y2           0.0       0.0       0.0       0.0       0.1       0.0
 6 Cl dxy             0.0       0.0       0.0       0.2       0.2       0.0
 7 H  s               0.0       0.0       0.0       1.4       1.6       0.0
 7 H  pz              0.0       0.0       0.0       0.1       0.2       0.0

                     30        31        32        33        34        35   
                  -0.81673  -0.80175  -0.69371  -0.58548  -0.50881  -0.48933
                   2.00000   2.00000   2.00000   2.00000   2.00000   2.00000
                  --------  --------  --------  --------  --------  --------
 0 C  s               0.2       0.0      11.2       6.9       0.2       0.0
 0 C  pz              0.7       0.0       0.8      10.3      25.5       0.0
 0 C  px              0.0       0.0      10.7       2.1       0.5       0.0
 0 C  py              0.0      12.5       0.0       0.0       0.0      10.0
 0 C  dz2             0.0       0.0       0.0       0.1       0.0       0.0
 0 C  dxz             0.0       0.0       0.2       0.1       0.1       0.0
 0 C  dyz             0.0       0.1       0.0       0.0       0.0       0.1
 0 C  dx2y2           0.0       0.0       0.2       0.0       0.0       0.0
 0 C  dxy             0.0       0.5       0.0       0.0       0.0       0.0
 1 C  s               0.0       0.0       6.2      10.4       0.4       0.0
 1 C  pz             20.3       0.0       2.6       0.6       1.8       0.0
 1 C  px              2.8       0.0       9.8       0.4      16.6       0.0
 1 C  py              0.0       4.3       0.0       0.0       0.0      20.0
 1 C  dz2             0.7       0.0       0.0       0.0       0.0       0.0
 1 C  dxz             0.0       0.0       0.2       0.0       0.0       0.0
 1 C  dx2y2           0.0       0.0       0.2       0.0       0.1       0.0
 1 C  dxy             0.0       0.3       0.0       0.0       0.0       0.0
 2 Cl s              51.8       0.0       3.9       9.0       0.7       0.0
 2 Cl pz              0.6       0.0       0.9       9.3       1.6       0.0
 2 Cl px              0.0       0.0       0.1       0.0       3.0       0.0
 2 Cl py              0.0       0.0       0.0       0.0       0.0       3.1
 2 Cl dz2             0.1       0.0       0.3       1.0       0.0       0.0
 2 Cl dxz             0.0       0.0       0.0       0.0       0.5       0.0
 2 Cl dyz             0.0       0.0       0.0       0.0       0.0       0.5
 3 Cl s              10.9      12.9       7.0       4.7       3.0       3.9
 3 Cl pz              0.1       0.0       0.0       1.0       0.3       2.2
 3 Cl px              0.0       0.0       0.9       1.2       0.4       8.5
 3 Cl py              0.1       0.1       0.7       4.0       9.9       6.5
 3 Cl dxz             0.0       0.0       0.0       0.1       0.0       0.1
 3 Cl dyz             0.0       0.0       0.0       0.2       0.1       0.1
 3 Cl dx2y2           0.0       0.0       0.0       0.1       0.4       0.0
 3 Cl dxy             0.0       0.0       0.3       0.3       0.1       0.3
 4 Cl s              10.9      12.9       7.0       4.7       3.0       3.9
 4 Cl pz              0.1       0.0       0.0       1.0       0.3       2.2
 4 Cl px              0.0       0.0       0.9       1.2       0.4       8.5
 4 Cl py              0.1       0.1       0.7       4.0       9.9       6.5
 4 Cl dxz             0.0       0.0       0.0       0.1       0.0       0.1
 4 Cl dyz             0.0       0.0       0.0       0.2       0.1       0.1
 4 Cl dx2y2           0.0       0.0       0.0       0.1       0.4       0.0
 4 Cl dxy             0.0       0.0       0.3       0.3       0.1       0.3
 5 Cl s               0.1      27.7      12.3       3.4       0.7       2.3
 5 Cl pz              0.0       0.0       0.2       1.4       1.8       0.5
 5 Cl px              0.0       0.1       1.1       0.5       1.6       5.1
 5 Cl py              0.0       0.2       1.1       2.5       1.4       3.2
 5 Cl dz2             0.0       0.0       0.1       0.0       0.2       0.0
 5 Cl dyz             0.0       0.0       0.1       0.3       0.2       0.0
 5 Cl dx2y2           0.0       0.0       0.0       0.1       0.0       0.0
 5 Cl dxy             0.0       0.0       0.4       0.1       0.2       0.2
 6 Cl s               0.1      27.7      12.3       3.4       0.7       2.3
 6 Cl pz              0.0       0.0       0.2       1.4       1.8       0.5
 6 Cl px              0.0       0.1       1.1       0.5       1.6       5.1
 6 Cl py              0.0       0.2       1.1       2.5       1.4       3.2
 6 Cl dz2             0.0       0.0       0.1       0.0       0.2       0.0
 6 Cl dyz             0.0       0.0       0.1       0.3       0.2       0.0
 6 Cl dx2y2           0.0       0.0       0.0       0.1       0.0       0.0
 6 Cl dxy             0.0       0.0       0.4       0.1       0.2       0.2
 7 H  s               0.1       0.0       3.6       9.0       8.2       0.0
 7 H  pz              0.0       0.0       0.4       0.5       0.3       0.0

                     36        37        38        39        40        41   
                  -0.48576  -0.44030  -0.42982  -0.34714  -0.34373  -0.32801
                   2.00000   2.00000   2.00000   2.00000   2.00000   2.00000
                  --------  --------  --------  --------  --------  --------
 0 C  s               0.7       0.2       0.0       0.1       0.0       1.4
 0 C  pz              0.0      12.4       0.0       0.6       0.0       0.3
 0 C  px             19.1       2.8       0.0       0.4       0.0       2.5
 0 C  py              0.0       0.0      16.9       0.0       0.2       0.0
 0 C  dz2             0.0       0.3       0.0       0.2       0.0       0.0
 0 C  dxz             0.0       0.1       0.0       0.0       0.0       0.0
 0 C  dx2y2           0.1       0.0       0.0       0.2       0.0       0.2
 0 C  dxy             0.0       0.0       0.4       0.0       0.1       0.0
 1 C  s               0.1       0.0       0.0       0.1       0.0       0.2
 1 C  pz             13.8      10.4       0.0       1.1       0.0       0.3
 1 C  px              6.6       2.5       0.0       0.7       0.0       1.0
 1 C  py              0.0       0.0       6.8       0.0       1.5       0.0
 1 C  dz2             0.0       0.3       0.0       0.4       0.0       0.1
 1 C  dxz             0.0       0.1       0.0       0.2       0.0       0.2
 1 C  dyz             0.0       0.0       0.0       0.0       0.9       0.0
 1 C  dx2y2           0.0       0.0       0.0       0.3       0.0       0.7
 1 C  dxy             0.0       0.0       0.4       0.0       0.1       0.0
 2 Cl s               3.7       1.8       0.0       0.0       0.0       0.0
 2 Cl pz             14.8      19.7       0.0       7.0       0.0       1.0
 2 Cl px              2.1       0.4       0.0      12.2       0.0       3.9
 2 Cl py              0.0       0.0       3.8       0.0      36.4       0.0
 2 Cl dz2             0.4       0.3       0.0       0.0       0.0       0.0
 2 Cl dxz             0.3       0.0       0.0       0.1       0.0       0.0
 2 Cl dyz             0.0       0.0       0.3       0.0       0.1       0.0
 3 Cl s               0.0       0.4       0.7       0.0       0.0       0.0
 3 Cl pz              3.0       0.5       3.7      12.5      13.0       3.8
 3 Cl px              1.2       0.1       2.2      11.0       6.3      25.7
 3 Cl py              0.2       8.3       4.6       3.2       5.0       2.1
 3 Cl dz2             0.1       0.1       0.0       0.0       0.0       0.0
 3 Cl dyz             0.3       0.0       0.1       0.0       0.0       0.0
 3 Cl dx2y2           0.1       0.2       0.0       0.1       0.0       0.0
 4 Cl s               0.0       0.4       0.7       0.0       0.0       0.0
 4 Cl pz              2.9       0.5       3.7      12.5      13.1       3.8
 4 Cl px              1.2       0.1       2.2      11.0       6.2      25.7
 4 Cl py              0.2       8.3       4.6       3.2       5.0       2.2
 4 Cl dz2             0.1       0.1       0.0       0.0       0.0       0.0
 4 Cl dyz             0.3       0.0       0.1       0.0       0.0       0.0
 4 Cl dx2y2           0.1       0.2       0.0       0.1       0.0       0.0
 5 Cl s               2.1       0.6       1.8       0.0       0.0       0.1
 5 Cl pz              1.0       0.8       4.4       1.5       3.2       1.3
 5 Cl px              0.1       0.1       7.6       8.6       1.5       7.7
 5 Cl py             10.3       9.1      10.0       0.5       1.1       2.9
 5 Cl dz2             0.0       0.1       0.0       0.0       0.0       0.0
 5 Cl dxz             0.0       0.0       0.1       0.0       0.0       0.0
 5 Cl dyz             0.1       0.0       0.1       0.0       0.0       0.0
 5 Cl dx2y2           0.5       0.3       0.0       0.0       0.0       0.0
 5 Cl dxy             0.0       0.0       0.2       0.0       0.0       0.2
 6 Cl s               2.1       0.6       1.8       0.0       0.0       0.1
 6 Cl pz              1.0       0.8       4.4       1.5       3.2       1.3
 6 Cl px              0.1       0.1       7.6       8.7       1.5       7.7
 6 Cl py             10.3       9.1      10.0       0.5       1.1       2.9
 6 Cl dz2             0.0       0.1       0.0       0.0       0.0       0.0
 6 Cl dxz             0.0       0.0       0.1       0.0       0.0       0.0
 6 Cl dyz             0.1       0.0       0.1       0.0       0.0       0.0
 6 Cl dx2y2           0.5       0.3       0.0       0.0       0.0       0.0
 6 Cl dxy             0.0       0.0       0.2       0.0       0.0       0.2
 7 H  s               0.0       6.6       0.0       1.3       0.0       0.1
 7 H  pz              0.0       0.1       0.0       0.0       0.0       0.0
 7 H  px              0.2       0.0       0.0       0.0       0.0       0.0
 7 H  py              0.0       0.0       0.2       0.0       0.0       0.0

                     42        43        44        45        46        47   
                  -0.32393  -0.31960  -0.31192  -0.30753  -0.29513  -0.29073
                   2.00000   2.00000   2.00000   2.00000   2.00000   2.00000
                  --------  --------  --------  --------  --------  --------
 0 C  s               0.0       0.6       0.2       0.0       0.0       0.0
 0 C  pz              0.0       0.0       4.0       0.0       0.9       0.0
 0 C  px              0.0       3.7       0.5       0.0       0.6       0.0
 0 C  py              0.7       0.0       0.0       0.8       0.0       0.1
 0 C  dz2             0.0       0.0       0.4       0.0       0.2       0.0
 0 C  dxz             0.0       0.0       0.1       0.0       0.3       0.0
 0 C  dyz             0.0       0.0       0.0       0.4       0.0       0.0
 0 C  dx2y2           0.0       0.7       0.0       0.0       0.0       0.0
 0 C  dxy             0.3       0.0       0.0       0.0       0.0       0.0
 1 C  s               0.0       0.5       0.4       0.0       0.7       0.0
 1 C  pz              0.0       1.3       0.3       0.0       0.5       0.0
 1 C  px              0.0       2.0       2.8       0.0       1.2       0.0
 1 C  py              1.1       0.0       0.0       0.3       0.0       0.1
 1 C  dz2             0.0       0.1       0.1       0.0       0.2       0.0
 1 C  dxz             0.0       0.4       0.1       0.0       0.0       0.0
 1 C  dx2y2           0.0       0.0       0.1       0.0       0.0       0.0
 1 C  dxy             0.4       0.0       0.0       0.0       0.0       0.0
 2 Cl s               0.0       0.0       0.1       0.0       0.0       0.0
 2 Cl pz              0.0       2.8       0.1       0.0       1.5       0.0
 2 Cl px              0.0       8.6      41.3       0.0      23.5       0.0
 2 Cl py              1.1       0.0       0.0       1.0       0.0      48.6
 2 Cl dz2             0.0       0.0       0.1       0.0       0.1       0.0
 2 Cl dyz             0.0       0.0       0.0       0.0       0.0       0.1
 2 Cl dxy             0.2       0.0       0.0       0.1       0.0       0.0
 3 Cl pz              6.3       9.0       8.6       4.0       6.3      16.9
 3 Cl px             10.4       0.5       0.8       3.3       2.0       0.1
 3 Cl py              7.4       2.1       0.1       7.5       0.0       0.3
 3 Cl dxy             0.0       0.1       0.0       0.0       0.0       0.0
 4 Cl pz              6.2       9.1       8.6       4.0       6.3      16.9
 4 Cl px             10.5       0.5       0.8       3.3       2.0       0.1
 4 Cl py              7.5       2.1       0.1       7.4       0.0       0.3
 4 Cl dxy             0.0       0.1       0.0       0.0       0.0       0.0
 5 Cl pz              9.6       3.8      12.0      25.7      23.0       2.6
 5 Cl px              9.7      21.5       0.9       0.0       2.0       4.6
 5 Cl py              4.3       2.3       0.1       8.1       0.4       0.8
 6 Cl pz              9.6       3.8      12.0      25.6      23.1       2.6
 6 Cl px              9.8      21.4       0.9       0.0       2.0       4.6
 6 Cl py              4.3       2.3       0.1       8.0       0.4       0.8
 7 H  s               0.0       0.4       3.9       0.0       2.0       0.0

                     48        49        50        51        52        53   
                  -0.28182  -0.07093  -0.05956  -0.05834  -0.01527   0.01578
                   2.00000   0.00000   0.00000   0.00000   0.00000   0.00000
                  --------  --------  --------  --------  --------  --------
 0 C  s               0.0       0.3       7.3       0.0       8.2       0.0
 0 C  pz              0.0       0.0       3.3       0.0       1.8       0.0
 0 C  px              0.0       1.6       8.6       0.0       3.8       0.0
 0 C  py              0.1       0.0       0.0      13.6       0.0      23.8
 0 C  dz2             0.0       0.0       1.0       0.0       0.3       0.0
 0 C  dxz             0.0       0.1       0.4       0.0       0.1       0.0
 0 C  dyz             0.0       0.0       0.0       0.0       0.0       0.9
 0 C  dx2y2           0.0       0.0       0.0       0.0       0.3       0.0
 0 C  dxy             0.1       0.0       0.0       1.9       0.0       0.2
 1 C  s               0.0      18.6       0.7       0.0       0.4       0.0
 1 C  pz              0.0       2.2       8.9       0.0      18.4       0.0
 1 C  px              0.0       7.1       2.7       0.0       4.7       0.0
 1 C  py              0.0       0.0       0.0      20.6       0.0      15.9
 1 C  dz2             0.0       0.1       1.2       0.0       0.8       0.0
 1 C  dxz             0.0       0.1       0.1       0.0       0.0       0.0
 1 C  dyz             0.0       0.0       0.0       0.1       0.0       0.7
 1 C  dx2y2           0.0       0.1       0.0       0.0       0.2       0.0
 1 C  dxy             0.1       0.0       0.0       2.0       0.0       0.0
 2 Cl s               0.0       1.2       0.6       0.0       2.6       0.0
 2 Cl pz              0.0      14.2       4.2       0.0      13.6       0.0
 2 Cl px              0.0       0.8       0.1       0.0       0.1       0.0
 2 Cl py              1.4       0.0       0.0       0.9       0.0       0.9
 2 Cl dz2             0.0       7.6       1.5       0.0       6.9       0.0
 2 Cl dxz             0.0       1.2       0.2       0.0       0.1       0.0
 2 Cl dyz             0.0       0.0       0.0       1.7       0.0       3.5
 3 Cl s               0.0       0.8       0.8       1.5       0.2       0.6
 3 Cl pz              1.1       2.2       0.0       0.9       0.1       1.1
 3 Cl px             11.1       1.3       1.6       5.0       0.1       1.3
 3 Cl py              9.3       8.4       3.9       4.8       2.3       2.2
 3 Cl dz2             0.0       0.7       0.6       0.6       0.6       0.1
 3 Cl dxz             0.0       0.5       0.1       0.5       0.2       2.2
 3 Cl dyz             0.0       3.1       0.0       0.5       0.1       1.2
 3 Cl dx2y2           0.1       2.1       0.4       0.1       2.0       0.1
 3 Cl dxy             0.0       2.0       1.6       2.9       0.7       1.3
 4 Cl s               0.0       0.8       0.8       1.6       0.2       0.6
 4 Cl pz              1.1       2.2       0.0       0.9       0.1       1.1
 4 Cl px             11.1       1.3       1.6       5.0       0.1       1.3
 4 Cl py              9.3       8.4       3.8       4.9       2.3       2.2
 4 Cl dz2             0.0       0.7       0.6       0.6       0.6       0.1
 4 Cl dxz             0.0       0.5       0.1       0.5       0.2       2.2
 4 Cl dyz             0.0       3.1       0.0       0.5       0.1       1.2
 4 Cl dx2y2           0.1       2.1       0.4       0.1       2.0       0.1
 4 Cl dxy             0.0       2.0       1.6       2.9       0.7       1.3
 5 Cl s               0.0       0.0       1.5       1.2       0.4       1.9
 5 Cl pz              1.1       0.2       0.5       0.6       0.1       1.6
 5 Cl px             13.2       0.1       2.2       3.8       0.4       2.7
 5 Cl py             13.1       0.5       9.9       3.5       4.4       3.3
 5 Cl dz2             0.0       0.0       1.0       0.4       0.8       0.1
 5 Cl dxz             0.0       0.0       0.0       0.3       0.1       2.4
 5 Cl dyz             0.0       0.2       0.7       0.3       0.7       1.5
 5 Cl dx2y2           0.1       0.4       1.7       0.1       2.6       0.0
 5 Cl dxy             0.0       0.0       2.9       2.1       1.4       2.3
 6 Cl s               0.0       0.0       1.5       1.2       0.4       1.9
 6 Cl pz              1.1       0.2       0.5       0.6       0.1       1.6
 6 Cl px             13.2       0.1       2.2       3.8       0.4       2.7
 6 Cl py             13.1       0.5       9.9       3.5       4.4       3.3
 6 Cl dz2             0.0       0.0       1.0       0.5       0.8       0.1
 6 Cl dxz             0.0       0.0       0.0       0.3       0.1       2.4
 6 Cl dyz             0.0       0.2       0.7       0.3       0.7       1.5
 6 Cl dx2y2           0.1       0.4       1.7       0.1       2.6       0.1
 6 Cl dxy             0.0       0.0       2.9       2.2       1.4       2.3
 7 H  s               0.0       0.0       0.2       0.0       2.9       0.0
 7 H  pz              0.0       0.0       0.0       0.0       0.7       0.0
 7 H  px              0.0       0.2       0.5       0.0       0.0       0.0
 7 H  py              0.0       0.0       0.0       0.4       0.0       1.6

                     54        55        56        57        58        59   
                   0.07500   0.08927   0.14636   0.17928   0.18131   0.21304
                   0.00000   0.00000   0.00000   0.00000   0.00000   0.00000
                  --------  --------  --------  --------  --------  --------
 0 C  s               4.8      17.0       9.2       0.0       1.2       5.3
 0 C  pz              5.6      22.0       6.7       0.0       0.4       4.4
 0 C  px             14.6       5.2       5.4       0.0      21.2       1.1
 0 C  py              0.0       0.0       0.0      45.9       0.0       0.0
 0 C  dz2             0.5       1.5       1.0       0.0       0.2       0.0
 0 C  dxz             1.9       0.0       0.4       0.0       0.2       0.0
 0 C  dyz             0.0       0.0       0.0       0.6       0.0       0.0
 0 C  dx2y2           1.3       0.5       0.0       0.0       0.1       0.6
 0 C  dxy             0.0       0.0       0.0       0.3       0.0       0.0
 1 C  s               3.9       6.2      15.7       0.0      10.1       3.6
 1 C  pz              2.5       2.5       4.3       0.0       7.8       9.1
 1 C  px             12.7       0.0       6.0       0.0       5.9       4.7
 1 C  py              0.0       0.0       0.0       5.0       0.0       0.0
 1 C  dz2             0.1       0.0       0.0       0.0       0.5       0.5
 1 C  dxz             1.2       0.6       0.4       0.0       0.1       0.2
 1 C  dx2y2           1.9       0.0       0.0       0.0       0.3       0.0
 2 Cl s               0.1       0.7       4.2       0.0       0.4       2.4
 2 Cl pz              0.0       0.3       2.2       0.0       0.8       1.2
 2 Cl px              0.9       0.5       0.1       0.0       2.5       0.1
 2 Cl py              0.0       0.0       0.0       1.5       0.0       0.0
 2 Cl dz2             0.5       1.3       2.3       0.0       1.5       5.6
 2 Cl dxz             3.8       1.6       1.1       0.0       0.2       0.6
 2 Cl dyz             0.0       0.0       0.0       0.4       0.0       0.0
 2 Cl dx2y2           3.6       0.1       0.0       0.0       2.6       7.7
 2 Cl dxy             0.0       0.0       0.0       0.9       0.0       0.0
 3 Cl s               0.4       1.0       2.6       1.7       4.2       0.0
 3 Cl pz              0.3       0.2       0.8       0.8       1.3       0.4
 3 Cl px              0.3       0.1       0.4       0.5       3.1       0.0
 3 Cl py              0.2       0.6       0.7       1.9       0.9       0.1
 3 Cl dz2             0.5       0.0       0.0       0.0       0.8       3.1
 3 Cl dxz             2.7       0.1       0.0       0.8       0.0       4.5
 3 Cl dyz             2.3       0.3       0.5       0.0       5.6       0.4
 3 Cl dx2y2           0.6       0.3       0.2       1.8       0.0       0.1
 3 Cl dxy             2.1       0.1       2.8       0.1       0.0       0.9
 4 Cl s               0.4       1.0       2.6       1.7       4.3       0.0
 4 Cl pz              0.3       0.2       0.8       0.8       1.3       0.4
 4 Cl px              0.3       0.1       0.4       0.5       3.1       0.0
 4 Cl py              0.2       0.6       0.7       1.9       0.9       0.1
 4 Cl dz2             0.5       0.0       0.0       0.0       0.8       3.1
 4 Cl dxz             2.7       0.1       0.0       0.8       0.0       4.5
 4 Cl dyz             2.3       0.3       0.5       0.0       5.6       0.4
 4 Cl dx2y2           0.6       0.3       0.2       1.8       0.0       0.1
 4 Cl dxy             2.1       0.1       2.8       0.1       0.0       0.8
 5 Cl s               0.1       1.7       2.6       2.5       1.2       0.9
 5 Cl pz              0.4       0.1       0.6       0.9       0.1       0.0
 5 Cl px              0.6       0.1       0.0       0.1       1.7       0.3
 5 Cl py              0.1       0.5       0.6       1.8       0.0       0.5
 5 Cl dz2             0.3       0.2       0.2       4.1       1.6       0.2
 5 Cl dxz             1.0       1.8       0.0       0.1       0.1       3.8
 5 Cl dyz             4.8       0.8       1.1       0.4       0.9       1.6
 5 Cl dx2y2           0.1       0.7       0.4       2.0       0.1       4.5
 5 Cl dxy             1.7       0.2       1.8       2.4       0.0       5.0
 6 Cl s               0.1       1.6       2.6       2.5       1.2       0.9
 6 Cl pz              0.4       0.1       0.6       0.8       0.1       0.0
 6 Cl px              0.6       0.1       0.0       0.1       1.7       0.3
 6 Cl py              0.1       0.5       0.6       1.8       0.0       0.5
 6 Cl dz2             0.3       0.2       0.2       4.1       1.6       0.2
 6 Cl dxz             1.0       1.8       0.0       0.1       0.1       3.8
 6 Cl dyz             4.8       0.8       1.1       0.4       0.9       1.6
 6 Cl dx2y2           0.1       0.7       0.4       2.0       0.1       4.5
 6 Cl dxy             1.7       0.3       1.8       2.4       0.0       5.0
 7 H  s               1.4      15.5       6.9       0.0       0.1       0.4
 7 H  pz              0.2       6.2       2.8       0.0       0.0       0.2
 7 H  px              1.6       0.1       0.3       0.0       0.7       0.0
 7 H  py              0.0       0.0       0.0       1.5       0.0       0.0

                     60        61        62        63        64        65   
                   0.22286   0.22705   0.23511   0.24594   0.27325   0.27944
                   0.00000   0.00000   0.00000   0.00000   0.00000   0.00000
                  --------  --------  --------  --------  --------  --------
 0 C  s               0.9       0.0       2.0       5.5       0.0       0.4
 0 C  pz             27.3       0.0       1.7       0.1       0.0       0.7
 0 C  px              0.1       0.0      13.8       1.1       0.0       0.1
 0 C  py              0.0       3.0       0.0       0.0       0.5       0.0
 0 C  dz2             2.4       0.0       0.0       0.3       0.0       0.1
 0 C  dxz             0.3       0.0       0.1       0.7       0.0       0.0
 0 C  dyz             0.0       0.4       0.0       0.0       0.0       0.0
 0 C  dx2y2           0.0       0.0       0.2       0.9       0.0       0.1
 0 C  dxy             0.0       0.0       0.0       0.0       1.3       0.0
 1 C  s               1.8       0.0       1.7       1.0       0.0       0.0
 1 C  pz              0.1       0.0      11.1       2.2       0.0       0.3
 1 C  px              1.9       0.0       1.8      11.5       0.0       0.6
 1 C  py              0.0      25.0       0.0       0.0       0.4       0.0
 1 C  dz2             0.0       0.0       0.0       0.3       0.0       1.2
 1 C  dxz             0.8       0.0       0.4       0.0       0.0       0.0
 1 C  dyz             0.0       0.6       0.0       0.0       0.2       0.0
 1 C  dx2y2           0.0       0.0       1.2       0.6       0.0       0.9
 1 C  dxy             0.0       0.5       0.0       0.0       1.5       0.0
 2 Cl s               1.8       0.0       2.5       0.2       0.0       2.1
 2 Cl pz              1.9       0.0       6.6       2.6       0.0      23.6
 2 Cl px              0.7       0.0       1.3       1.0       0.0       1.6
 2 Cl py              0.0       1.3       0.0       0.0       4.5       0.0
 2 Cl dz2             0.0       0.0       1.8       0.7       0.0       1.1
 2 Cl dxz            10.7       0.0       2.0       0.1       0.0       1.0
 2 Cl dyz             0.0      11.7       0.0       0.0       4.3       0.0
 2 Cl dx2y2           0.1       0.0       3.3       1.7       0.0       0.1
 2 Cl dxy             0.0       1.6       0.0       0.0       1.7       0.0
 3 Cl s               0.0       1.6       0.2       0.0       0.7       0.7
 3 Cl pz              0.4       0.3       0.5       0.3       0.1       2.9
 3 Cl px              0.2       0.4       2.0       1.3       1.7       4.8
 3 Cl py              0.2       1.8       0.1       0.1      15.6       3.1
 3 Cl dz2             0.9       4.8       0.1       0.3       0.0       0.3
 3 Cl dxz             2.8       1.5       1.5       0.0       0.0       2.7
 3 Cl dyz             1.6       0.6       2.7       1.6       0.3       4.4
 3 Cl dx2y2           2.1       1.9       4.6       2.6       6.3       7.1
 3 Cl dxy             0.2       3.4       3.5       6.1       0.2       0.3
 4 Cl s               0.0       1.6       0.2       0.0       0.7       0.7
 4 Cl pz              0.4       0.3       0.5       0.3       0.1       2.9
 4 Cl px              0.2       0.4       2.0       1.3       1.7       4.8
 4 Cl py              0.2       1.8       0.1       0.1      15.6       3.0
 4 Cl dz2             0.9       4.8       0.1       0.3       0.0       0.3
 4 Cl dxz             2.9       1.5       1.5       0.0       0.0       2.7
 4 Cl dyz             1.6       0.6       2.7       1.6       0.3       4.4
 4 Cl dx2y2           2.1       1.9       4.6       2.6       6.3       7.2
 4 Cl dxy             0.2       3.4       3.5       6.1       0.2       0.3
 5 Cl s               0.1       0.1       0.2       2.5       0.2       0.2
 5 Cl pz              1.2       0.2       1.3       1.2       0.4       3.4
 5 Cl px              0.0       0.2       1.0      10.4       0.6       0.1
 5 Cl py              0.0       0.6       0.5       2.7      10.3       0.4
 5 Cl dz2             1.0       6.4       1.9       0.2       0.0       1.0
 5 Cl dxz             3.0       2.0       1.1       1.5       0.0       0.1
 5 Cl dyz             7.8       0.0       1.0       0.2       0.6       0.7
 5 Cl dx2y2           0.1       1.4       0.9       1.7       5.5       0.7
 5 Cl dxy             0.0       0.3       1.3       0.8       0.0       0.1
 6 Cl s               0.1       0.1       0.2       2.5       0.2       0.2
 6 Cl pz              1.2       0.2       1.2       1.2       0.4       3.4
 6 Cl px              0.0       0.2       1.0      10.4       0.6       0.1
 6 Cl py              0.0       0.6       0.5       2.7      10.3       0.4
 6 Cl dz2             1.0       6.4       1.9       0.2       0.0       1.0
 6 Cl dxz             3.0       2.0       1.1       1.5       0.0       0.1
 6 Cl dyz             7.8       0.0       1.0       0.2       0.6       0.7
 6 Cl dx2y2           0.1       1.4       0.9       1.7       5.6       0.7
 6 Cl dxy             0.0       0.3       1.3       0.8       0.0       0.1
 7 H  s               5.8       0.0       0.2       1.5       0.0       0.3
 7 H  pz              0.0       0.0       0.0       0.3       0.0       0.1
 7 H  px              0.1       0.0       0.0       0.7       0.0       0.0
 7 H  py              0.0       0.6       0.0       0.0       0.1       0.0

                     66        67        68        69        70        71   
                   0.28910   0.29934   0.30428   0.31814   0.32707   0.32917
[...]
 3 Cl px              0.6       0.3       2.4       3.5       3.3       8.1
 3 Cl py              1.1       0.7       7.5       5.5      15.6       8.4
 3 Cl dz2             0.1       0.1       0.0       0.1       0.2       0.1
 3 Cl dxz             0.0       0.0       0.0       0.1       0.0       0.1
 3 Cl dyz             0.0       0.2       0.1       0.1       0.1       0.2
 3 Cl dx2y2           0.1       0.1       0.1       0.0       0.1       0.1
 3 Cl dxy             0.1       0.3       0.0       0.6       0.2       0.3
 4 Cl s               0.0       0.1       0.5       1.0       1.6       2.9
 4 Cl pz              0.1       0.2       1.6       1.7       0.1       1.8
 4 Cl px              0.6       0.3       2.4       3.5       3.4       8.3
 4 Cl py              1.1       0.7       7.5       5.5      15.6       8.7
 4 Cl dz2             0.1       0.1       0.0       0.1       0.2       0.1
 4 Cl dxz             0.0       0.0       0.0       0.1       0.0       0.1
 4 Cl dyz             0.0       0.2       0.1       0.1       0.1       0.2
 4 Cl dx2y2           0.1       0.1       0.1       0.0       0.1       0.1
 4 Cl dxy             0.1       0.3       0.0       0.6       0.2       0.3
 5 Cl s               0.0       0.0       0.5       1.4       0.2       1.6
 5 Cl pz              7.9       2.6       0.5       4.3       0.2       0.7
 5 Cl px              2.2       1.4       2.3       3.7       0.4       5.8
 5 Cl py              5.7       0.1       9.8       8.2       2.8       5.6
 5 Cl dz2             0.2       0.0       0.1       0.1       0.1       0.0
 5 Cl dxz             0.0       0.1       0.1       0.1       0.0       0.1
 5 Cl dyz             0.0       0.1       0.1       0.2       0.0       0.1
 5 Cl dx2y2           0.1       0.0       0.1       0.1       0.0       0.1
 5 Cl dxy             0.3       0.0       0.0       0.4       0.0       0.2
 6 Cl s               0.0       0.0       0.5       1.4       0.2       1.5
 6 Cl pz              7.9       2.6       0.5       4.3       0.2       0.7
 6 Cl px              2.2       1.4       2.3       3.7       0.4       5.5
 6 Cl py              5.7       0.1       9.8       8.2       2.8       5.4
 6 Cl dz2             0.2       0.0       0.1       0.1       0.1       0.0
 6 Cl dxz             0.0       0.1       0.1       0.1       0.0       0.0
 6 Cl dyz             0.0       0.1       0.1       0.2       0.0       0.1
 6 Cl dx2y2           0.1       0.0       0.1       0.1       0.0       0.1
 6 Cl dxy             0.3       0.0       0.0       0.4       0.0       0.2
 7 H  s               0.0       0.2       0.6       0.0       0.4       0.0
 7 H  pz              0.0       1.2       6.3       0.0       0.1       0.0
 7 H  px              0.0      37.2       1.9       0.0       0.0       0.0
 7 H  py             30.3       0.0       0.0       9.3       0.0       2.0

                    168       169       170       171       172       173   
                   3.02149   3.14863   3.49521  21.54938  21.82989  25.01399
                   0.00000   0.00000   0.00000   0.00000   0.00000   0.00000
                  --------  --------  --------  --------  --------  --------
 0 C  s               2.3       2.9       2.4      31.1      68.3       0.0
 0 C  pz              0.6       0.2      12.3       0.0       0.0       0.0
 0 C  px              0.4      13.6       0.4       0.0       0.0       0.0
 0 C  dz2             0.0       0.6      22.1       0.0       0.0       0.0
 0 C  dxz             0.1       7.3       1.7       0.0       0.0       0.0
 0 C  dx2y2           0.1      14.5       0.7       0.0       0.0       0.0
 1 C  s               2.9       1.6       0.8      68.5      31.2       0.0
 1 C  pz              2.0       1.6       0.5       0.0       0.0       0.0
 1 C  px              1.8       8.4       1.5       0.0       0.0       0.0
 1 C  dz2             3.2       0.1       0.9       0.0       0.0       0.0
 1 C  dxz             0.7       9.9       1.5       0.0       0.0       0.0
 1 C  dx2y2           1.1      10.2       1.1       0.0       0.0       0.0
 2 Cl s               4.9       0.0       0.4       0.1       0.1       0.0
 2 Cl pz             33.6       0.0       1.5       0.0       0.0       0.0
 2 Cl px              0.1       0.8       0.1       0.0       0.0       0.0
 2 Cl dz2             0.4       0.1       0.1       0.0       0.0       0.0
 2 Cl dxz             0.3       0.0       0.1       0.0       0.0       0.0
 3 Cl s               0.5       0.4       0.0       0.0       0.0       7.9
 3 Cl pz              1.0       0.4       0.0       0.0       0.0       0.0
 3 Cl px              2.0       0.1       0.0       0.0       0.0       0.0
 3 Cl py              2.7       1.5       0.0       0.0       0.0       0.0
 3 Cl dx2y2           0.1       0.1       0.0       0.0       0.0       0.0
 3 Cl dxy             0.1       0.1       0.0       0.0       0.0       0.0
 4 Cl s               0.5       0.4       0.0       0.0       0.0       7.9
 4 Cl pz              1.0       0.4       0.0       0.0       0.0       0.0
 4 Cl px              1.8       0.1       0.0       0.0       0.0       0.0
 4 Cl py              2.5       1.5       0.0       0.0       0.0       0.0
 4 Cl dx2y2           0.1       0.1       0.0       0.0       0.0       0.0
 4 Cl dxy             0.1       0.1       0.0       0.0       0.0       0.0
 5 Cl s               1.4       1.4       0.3       0.1       0.2      42.0
 5 Cl pz              0.1       0.4       0.1       0.0       0.0       0.0
 5 Cl px              4.6       1.2       0.4       0.0       0.0       0.0
 5 Cl py              5.8       6.1       0.8       0.0       0.0       0.0
 5 Cl dyz             0.0       0.2       0.0       0.0       0.0       0.0
 5 Cl dx2y2           0.0       0.2       0.0       0.0       0.0       0.0
 5 Cl dxy             0.1       0.2       0.0       0.0       0.0       0.0
 6 Cl s               1.5       1.4       0.3       0.1       0.2      42.0
 6 Cl pz              0.1       0.4       0.1       0.0       0.0       0.0
 6 Cl px              4.8       1.2       0.4       0.0       0.0       0.0
 6 Cl py              6.0       6.1       0.8       0.0       0.0       0.0
 6 Cl dyz             0.0       0.2       0.0       0.0       0.0       0.0
 6 Cl dx2y2           0.0       0.2       0.0       0.0       0.0       0.0
 6 Cl dxy             0.1       0.2       0.0       0.0       0.0       0.0
 7 H  s               0.9       0.4      12.1       0.0       0.0       0.0
 7 H  pz              7.6       2.1      36.0       0.0       0.0       0.0
 7 H  px              0.0       1.0       0.2       0.0       0.0       0.0

                    174       175       176       177   
                  25.19758  25.28409  25.43758  25.56461
                   0.00000   0.00000   0.00000   0.00000
                  --------  --------  --------  --------
 0 C  s               0.2       0.3       0.0       0.7
 1 C  s               0.1       0.7       0.0       0.5
 1 C  py              0.0       0.0       0.3       0.0
 2 Cl s              27.7      20.0       0.0      51.3
 3 Cl s              26.7      22.3      41.9       0.6
 4 Cl s              26.6      22.3      41.9       0.6
 5 Cl s               9.2      17.0       7.9      23.0
 6 Cl s               9.2      17.1       7.9      23.0


                      *****************************
                      * MAYER POPULATION ANALYSIS *
                      *****************************

  NA   - Mulliken gross atomic population
  ZA   - Total nuclear charge
  QA   - Mulliken gross atomic charge
  VA   - Mayer's total valence
  BVA  - Mayer's bonded valence
  FA   - Mayer's free valence

  ATOM       NA         ZA         QA         VA         BVA        FA
  0 C      6.0590     6.0000    -0.0590     4.0039     4.0039    -0.0000
  1 C      5.8185     6.0000     0.1815     4.0679     4.0679    -0.0000
  2 Cl    17.0569    17.0000    -0.0569     1.1687     1.1687    -0.0000
  3 Cl    17.0582    17.0000    -0.0582     1.1577     1.1577    -0.0000
  4 Cl    17.0581    17.0000    -0.0581     1.1577     1.1577     0.0000
  5 Cl    17.0857    17.0000    -0.0857     1.1391     1.1391     0.0000
  6 Cl    17.0857    17.0000    -0.0857     1.1390     1.1390    -0.0000
  7 H      0.7780     1.0000     0.2220     0.9207     0.9207    -0.0000

  Mayer bond orders larger than 0.100000
B(  0-C ,  1-C ) :   0.9173 B(  0-C ,  5-Cl) :   1.0273 B(  0-C ,  6-Cl) :   1.0272 
B(  0-C ,  7-H ) :   0.9143 B(  1-C ,  2-Cl) :   1.0516 B(  1-C ,  3-Cl) :   1.0183 
B(  1-C ,  4-Cl) :   1.0184 

-------
TIMINGS
-------

Total SCF time: 0 days 0 hours 0 min 13 sec 

Total time                  ....      13.004 sec
Sum of individual times     ....      12.613 sec  ( 97.0%)

SCF preparation             ....       0.161 sec  (  1.2%)
Fock matrix formation       ....      11.614 sec  ( 89.3%)
  Startup                   ....       0.052 sec  (  0.5% of F)
  Split-RI-J                ....       2.088 sec  ( 18.0% of F)
  XC integration            ....       9.003 sec  ( 77.5% of F)
    XC Preparation          ....       0.000 sec  (  0.0% of XC)
    Basis function eval.    ....       1.364 sec  ( 15.1% of XC)
    Density eval.           ....       2.687 sec  ( 29.8% of XC)
    XC-Functional eval.     ....       1.130 sec  ( 12.5% of XC)
    XC-Potential eval.      ....       3.107 sec  ( 34.5% of XC)
Diagonalization             ....       0.000 sec  (  0.0%)
Density matrix formation    ....       0.194 sec  (  1.5%)
Total Energy calculation    ....       0.028 sec  (  0.2%)
Population analysis         ....       0.071 sec  (  0.5%)
Orbital Transformation      ....       0.055 sec  (  0.4%)
Orbital Orthonormalization  ....       0.000 sec  (  0.0%)
DIIS solution               ....       0.440 sec  (  3.4%)
  MO trafo                  ....       0.000 sec  (  0.0 % of DIIS)
  Orb grad                  ....       0.000 sec  (  0.0 % of DIIS)
  Energy W gradient         ....       0.000 sec  (  0.0 % of DIIS)
  DIIS error                ....       0.007 sec  (  1.6 % of DIIS)
  DIIS work                 ....       0.385 sec  ( 87.6 % of DIIS)
  Form Q                    ....       0.000 sec  (  0.0 % of DIIS)
  Form QpQm                 ....       0.000 sec  (  0.0 % of DIIS)
  Exp/Cayley                ....       0.000 sec  (  0.0 % of DIIS)
  Orb update                ....       0.000 sec  (  0.0 % of DIIS)
  Wake-sleep                ....       0.019 sec  (  4.3 % of DIIS)
SOSCF solution              ....       0.050 sec  (  0.4%)
  MO trafo                  ....       0.040 sec  ( 79.4 % of SOSCF)
  Orb grad                  ....       0.001 sec  (  1.3 % of SOSCF)
  Rot update                ....       0.000 sec  (  0.1 % of SOSCF)
  Step                      ....       0.010 sec  ( 19.0 % of SOSCF)
Finished LeanSCF after  13.1 sec

Maximum memory used throughout the entire LEANSCF-calculation: 17.3 MB


-------------------------------------------------------------------------------
                          DFT DISPERSION CORRECTION                            
                                                                               
                                DFTD4 V3.4.0                                   
-------------------------------------------------------------------------------
The R2SCAN3C composite method is recognized
Using three-body term ABC
Active option DFTDOPT                   ...         5   

-------------------------   ----------------
Dispersion correction           -0.004214445
-------------------------   ----------------

------------------   -----------------
gCP correction             0.011079404
------------------   -----------------

-------------------------   --------------------
FINAL SINGLE POINT ENERGY     -2377.661224978972
-------------------------   --------------------


------------------------------------------------------------------------------
                              ORCA PROPERTY CALCULATIONS
------------------------------------------------------------------------------

GBWName                                 ... sp_gas.gbw
Number of atoms                         ...      8
Number of basis functions               ...    178
Max core memory                         ...   1024 MB

Electric properties:
Dipole moment                           ... YES
Quadrupole moment                       ...  NO
Static polarizability (Dipole/Dipole)   ...  NO
Static polarizability (Dipole/Quad.)    ...  NO
Static polarizability (Quad./Quad.)     ...  NO
Static polarizability (Velocity)        ...  NO

Atomic electric properties:
Dipole moment                           ...  NO
Quadrupole moment                       ...  NO
Static polarizability                   ...  NO

Choice of electric origin               ... Center of mass
Position of electric origin             ...    -0.000001     0.000000     0.000003

General magnetic properties:
Magnetizability                         ...  NO

EPR properties:
g-Tensor (aka g-matrix)                 ...  NO
Zero-Field splitting spin-orbit         ...  NO
Zero-field splitting spin-spin          ...  NO
Hyperfine couplings                     ...  NO (   0 nuclei)
Quadrupole couplings                    ...  NO (   0 nuclei)
Contact density                         ...  NO (   0 nuclei)

NMR properties:
Chemical shifts                         ...  NO (   0 nuclei)
Spin-rotation constants                 ...  NO (   0 nuclei)
Spin-spin couplings                     ...  NO (   0 nuclei,    0 pairs)

Choice of magnetic origin               ... GIAO
Position of magnetic origin             ...     0.000000     0.000000     0.000000

Properties with geometric perturbations:
SCF Hessian                             ...  NO
IR spectrum                             ...  NO
VCD spectrum                            ...  NO
X-ray spectroscopy properties:
SCF XES/XAS/RIXS spectra                ...  NO


-------------
DIPOLE MOMENT
-------------

Method             : SCF
Type of density    : Electron Density
Multiplicity       :   1
Irrep              :   0
Energy             : -2377.6680899377465721 Eh
Relativity type    : 
Basis              : AO
                                X                 Y                 Z
Electronic contribution:      0.809576187      -0.000097136      -1.653800564
Nuclear contribution   :     -0.772518988       0.000203547       2.044982233
                        -----------------------------------------
Total Dipole Moment    :      0.037057199       0.000106411       0.391181669
                        -----------------------------------------
Magnitude (a.u.)       :      0.392933004
Magnitude (Debye)      :      0.998756324



--------------------
Rotational spectrum 
--------------------
 
Rotational constants in cm-1:             0.038624             0.032733             0.025076 
Rotational constants in MHz :          1157.912495           981.305800           751.769566 

Dipole components along the rotational axes: 
x,y,z [a.u.] :    -0.037057     0.000106     0.391182 
x,y,z [Debye]:    -0.094191     0.000270     0.994305 

 

Dipole moment calculation done in   0.0 sec 

Maximum memory used throughout the entire PROP-calculation: 10.9 MB

--------------------------------
SUGGESTED CITATIONS FOR THIS RUN
--------------------------------

Below you find a list of papers that are relevant to this ORCA run
We neither can nor want to force you to cite these papers, but we appreciate if you do
You receive ORCA, which is the product of decades of hard work by many enthusiastic individuals, for free
The only thing we kindly ask in return is that you cite our papers,
We deeply appreciate it, if you show your appreciation for ORCA by not just citing the generic ORCA reference.

Please note that relegating all ORCA citations to the supporting information does *not* help us.
SI sections are not indexed - citations you put there will not count into any citation statistics
But we need these citations in order to attract the funding resources that allow us to do what we are doing

Therefore, if you are a happy ORCA user, please consider citing a few of the papers listed below in the main body of your paper

In addition to the list printed below, the program has created the file sp_gas.bibtex that contains the list in bibtex format
You can import this file easily into all common literature databanks and citation aid programs


List of essential papers. We consider these as the minimum necessary citations

  1. Neese,F.
     Software update: the ORCA program system, version 5.0
     WIRES Comput. Molec. Sci., 2022 12(1)e1606
     doi.org/10.1002/wcms.1606
  2. Grimme,S.; Hansen,A.; Ehlert,S.; Mewes,J.
     r2SCAN-3c: A 'Swiss army knife' composite electronic-structure method
     J. Chem. Phys., 2021 154 064103
     doi.org/10.1063/5.0040021

List of papers to cite with high priority. The work reported in these papers was absolutely
necessary for this run to complete.
Our perspective: the developers of density functionals and basis sets usually get cited in chemistry papers
Good! But without the algorithms to do something with them, the functionals or basis sets would not do anything.
Hence, in our opinion, the algorithm design and method developments papers are equally worthy of getting cited

  1. Neese,F.
     An improvement of the resolution of the identity approximation for the formation of the Coulomb matrix
     J. Comp. Chem., 2003 24(14)1740-1747
     doi.org/10.1002/jcc.10318
  2. Neese,F.
     The SHARK Integral Generation and Digestion System
     J. Comp. Chem., 2022  1-16
     doi.org/10.1002/jcc.26942
  3. Lehtola,S.; Steigemann,C.; Oliveira,M.; Marques,M.
     Recent developments in Libxc - A comprehensive library of functionals for density functional theory
     Software X, 2018 7 
     doi.org/10.1016/j.softx.2017.11.002
  4. Caldeweyher,E.; Bannwarth,C.; Grimme,S.
     Extension of the D3 dispersion coefficient model
     J. Chem. Phys., 2017 147 034112-XXXX
     doi.org/10.1063/1.4993215
  5. Caldeweyher,E.; Ehlert,S.; Hansen,A.; Neugebauer,H.; Spicher,S.; Bannwarth,C.; Grimme,S.
     A generally applicable atomic-charge dependent London dispersion correction
     J. Chem. Phys., 2019 150 154122-XXXX
     doi.org/10.1063/1.5090222
  6. Caldeweyher,E.; Mewes,J.; Ehlert,S.; Grimme,S.
     Extension and evaluation of the D4 London-dispersion model for periodic systems
     Phys. Chem. Chem. Phys., 2020 22(16)8499-8512
     doi.org/10.1039/D0CP00502A

List of suggested additional citations. These are papers that are important in the 'surrounding' of 
of this run, or papers that preceded the highly important papers. If you like your results we are grateful for a citation.

  1. Neese,F.
     The ORCA program system
     WIRES Comput. Molec. Sci., 2012 2(1)73-78
     doi.org/10.1002/wcms.81
  2. Neese,F.
     Software update: the ORCA program system, version 4.0
     WIRES Comput. Molec. Sci., 2018 8(1)1-6
     doi.org/10.1002/wcms.1327
  3. Neese,F.; Wennmohs,F.; Becker,U.; Riplinger,C.
     The ORCA quantum chemistry program package
     J. Chem. Phys., 2020 152 Art. No. L224108
     doi.org/10.1063/5.0004608

List of optional additional citations

  1. Neese,F.
     Approximate second-order SCF convergence for spin unrestricted wavefunctions
     Chem. Phys. Lett., 2000 325(1-3)93-98
     doi.org/10.1016/s0009-2614(00)00662-x

Timings for individual modules:

Sum of individual times          ...       14.193 sec (=   0.237 min)
Startup calculation              ...        0.762 sec (=   0.013 min)   5.4 %
SCF iterations                   ...       13.327 sec (=   0.222 min)  93.9 %
Property calculations            ...        0.104 sec (=   0.002 min)   0.7 %
                             ****ORCA TERMINATED NORMALLY****
TOTAL RUN TIME: 0 days 0 hours 0 minutes 14 seconds 792 msec
