
                                 *****************
                                 * O   R   C   A *
                                 *****************

                                            #,                                       
                                            ###                                      
                                            ####                                     
                                            #####                                    
                                            ######                                   
                                           ########,                                 
                                     ,,################,,,,,                         
                               ,,#################################,,                 
                          ,,##########################################,,             
                       ,#########################################, ''#####,          
                    ,#############################################,,   '####,        
                  ,##################################################,,,,####,       
                ,###########''''           ''''###############################       
              ,#####''   ,,,,##########,,,,          '''####'''          '####       
            ,##' ,,,,###########################,,,                        '##       
           ' ,,###''''                  '''############,,,                           
         ,,##''                                '''############,,,,        ,,,,,,###''
      ,#''                                            '''#######################'''  
     '                                                          ''''####''''         
             ,#######,   #######,   ,#######,      ##                                
            ,#'     '#,  ##    ##  ,#'     '#,    #''#        ,####,   ,####,        
            ##       ##  ##   ,#'  ##            #'  '#       #'       #'  '#        
            ##       ##  #######   ##           ,######,      #####,   #    #        
            '#,     ,#'  ##    ##  '#,     ,#' ,#      #,     #,   #   #,  ,#        
             '#######'   ##     ##  '#######'  #'      '#     '####' # '####'        



                #########################################################
                #                        -***-                          #
                #          Department of theory and spectroscopy        #
                #                                                       #
                #                      Frank Neese                      #
                #                                                       #
                #     Directorship, Architecture, Infrastructure        #
                #                    SHARK, DRIVERS                     #
                #        Core code/Algorithms in most modules           #
                #                                                       #
                #        Max Planck Institute fuer Kohlenforschung      #
                #                Kaiser Wilhelm Platz 1                 #
                #                 D-45470 Muelheim/Ruhr                 #
                #                      Germany                          #
                #                                                       #
                #                  All rights reserved                  #
                #                        -***-                          #
                #########################################################


                         Program Version 6.0.0  -   RELEASE  -


 With contributions from (in alphabetic order):
   Daniel Aravena         : Magnetic Suceptibility
   Michael Atanasov       : Ab Initio Ligand Field Theory (pilot matlab implementation)
   Alexander A. Auer      : GIAO ZORA, VPT2 properties, NMR spectrum
   Ute Becker             : All parallelization in ORCA, NUMFREQ, NUMCALC
   Giovanni Bistoni       : ED, misc. LED, open-shell LED, HFLD
   Martin Brehm           : Molecular dynamics
   Dmytro Bykov           : pre 5.0 version of the SCF Hessian
   Marcos Casanova-Páez   : Triplet and SCS-CIS(D). UHF-(DLPNO)-IP/EA/STEOM-CCSD. UHF-CVS-IP/STEOM-CCSD
   Vijay G. Chilkuri      : MRCI spin determinant printing, contributions to CSF-ICE
   Pauline Colinet        : FMM embedding
   Dipayan Datta          : RHF DLPNO-CCSD density
   Achintya Kumar Dutta   : EOM-CC, STEOM-CC
   Nicolas Foglia         : Exact transition moments, OPA infrastructure, MCD improvements
   Dmitry Ganyushin       : Spin-Orbit,Spin-Spin,Magnetic field MRCI
   Miquel Garcia          : C-PCM and meta-GGA Hessian, CCSD/C-PCM, Gaussian charge scheme
   Tiago L. C. Gouveia    : GS-ROHF, GS-ROCIS
   Yang Guo               : DLPNO-NEVPT2, F12-NEVPT2, CIM, IAO-localization
   Andreas Hansen         : Spin unrestricted coupled pair/coupled cluster methods
   Ingolf Harden          : AUTO-CI MPn and infrastructure 
   Benjamin Helmich-Paris : MC-RPA, TRAH-(SCF,CASSCF), AVAS, COSX integrals, SCF dyn. polar.
   Lee Huntington         : MR-EOM, pCC
   Robert Izsak           : Overlap fitted RIJCOSX, COSX-SCS-MP3, EOM
   Riya Kayal             : Wick's Theorem for AUTO-CI, AUTO-CI UHF-CCSDT
   Emily Kempfer          : AUTO-CI, RHF CISDT and CCSDT
   Christian Kollmar      : KDIIS, OOCD, Brueckner-CCSD(T), CCSD density, CASPT2, CASPT2-K, improved NEVPT2
   Axel Koslowski         : Symmetry handling
   Simone Kossmann        : Meta GGA functionals, TD-DFT gradient, OOMP2, (MP2 Hessian; deprecated post 5.0)
   Lucas Lang             : DCDCAS
   Marvin Lechner         : AUTO-CI (C++ implementation), FIC-MRCC
   Spencer Leger          : CASSCF response
   Dagmar Lenk            : GEPOL surface, SMD, ORCA-2-JSON
   Dimitrios Liakos       : Extrapolation schemes; Compound Job, initial MDCI parallelization
   Dimitrios Manganas     : Further ROCIS development; embedding schemes. LFT, Crystal Embedding
   Dimitrios Pantazis     : SARC Basis sets
   Anastasios Papadopoulos: AUTO-CI, single reference methods and gradients
   Taras Petrenko         : pre 6.0 DFT Hessian and TD-DFT gradient, (ASA, deprecated), ECA, 1-Electron XAS/XES, NRVS
   Peter Pinski           : DLPNO-MP2, DLPNO-MP2 Gradient
   Christoph Reimann      : Effective Core Potentials
   Marius Retegan         : Local ZFS, SOC
   Christoph Riplinger    : Optimizer, TS searches, QM/MM, DLPNO-CCSD(T), (RO)-DLPNO pert. Triples
   Michael Roemelt        : Original ROCIS implementation
   Masaaki Saitow         : Open-shell DLPNO-CCSD energy and density
   Barbara Sandhoefer     : DKH picture change effects
   Kantharuban Sivalingam : CASSCF convergence/infrastructure, NEVPT2 and variants, FIC-MRCI
   Bernardo de Souza      : ESD, SOC TD-DFT
   Georgi Stoychev        : AutoAux, RI-MP2 NMR, DLPNO-MP2 response, X2C
   Van Anh Tran           : RI-MP2 g-tensors
   Willem Van den Heuvel  : Paramagnetic NMR
   Zikuan Wang            : NOTCH, Electric field optimization 
   Frank Wennmohs         : Technical directorship and infrastructure
   Hang Xu                : AUTO-CI-Response properties 


 We gratefully acknowledge several colleagues who have allowed us to
 interface, adapt or use parts of their codes:
   Stefan Grimme, W. Hujo, H. Kruse, P. Pracht,  : VdW corrections, initial TS optimization,
                  C. Bannwarth, S. Ehlert,         DFT functionals, gCP, sTDA/sTD-DF
                  L. Wittmann, M. Mueller
   Ed Valeev, F. Pavosevic, A. Kumar             : LibInt (2-el integral package), F12 methods
   Garnet Chan, S. Sharma, J. Yang, R. Olivares  : DMRG
   Ulf Ekstrom                                   : XCFun DFT Library
   Mihaly Kallay                                 : mrcc  (arbitrary order and MRCC methods)
   Frank Weinhold                                : gennbo (NPA and NBO analysis)
   Simon Mueller                                 : openCOSMO-RS
   Christopher J. Cramer and Donald G. Truhlar   : smd solvation model
   Lars Goerigk                                  : TD-DFT with DH, B97 family of functionals
   V. Asgeirsson, H. Jonsson                     : NEB implementation
   FAccTs GmbH                                   : IRC, NEB, NEB-TS, DLPNO-Multilevel, CI-OPT
                                                   MM, QMMM, 2- and 3-layer-ONIOM, Crystal-QMMM,
                                                   LR-CPCM, SF, NACMEs, symmetry and pop. for TD-DFT,
                                                   nearIR, NL-DFT gradient (VV10), updates on ESD,
                                                   ML-optimized integration grids, MBIS, APM,
                                                   GOAT, DOCKER, SOLVATOR, interface openCOSMO-RS
   S Lehtola, MJT Oliveira, MAL Marques          : LibXC Library
   Liviu Ungur et al                             : ANISO software


 Your calculation uses the libint2 library for the computation of 2-el integrals
 For citations please refer to: http://libint.valeyev.net

 Your ORCA version has been built with support for libXC version: 6.2.2
 For citations please refer to: https://libxc.gitlab.io

 This ORCA versions uses:
   CBLAS   interface :  Fast vector & matrix operations
   LAPACKE interface :  Fast linear algebra routines
   SCALAPACK package :  Parallel linear algebra routines
   Shared memory     :  Shared parallel matrices
   BLAS/LAPACK       :  OpenBLAS 0.3.27  USE64BITINT DYNAMIC_ARCH NO_AFFINITY SapphireRapids SINGLE_THREADED
        Core in use  :  SapphireRapids
   Copyright (c) 2011-2014, The OpenBLAS Project


Your calculation utilizes the geometrical counterpoise correction gCP
Please cite in your paper:
H.Kruse, S. Grimme J.Chem.Phys., 136, (2012), 154101 
   

Your calculation utilizes the atom-pairwise dispersion correction
based on EEQ partial charges (D4)


Your calculation utilizes the SMD solvation module
Please cite in your paper:
A.V. Marenich, C.J. Cramer, D.G. Truhlar J. Phys. Chem. B, 113, (2009), 6378 

================================================================================

----- Orbital basis set information -----
Your calculation utilizes the basis: def2-mTZVPP
   Stefan Grimme, Andreas Hansen, Sebastian Ehlert, and Jan-Michael Mewes 
   J. Chem. Phys. 154, 064103 (2021). DOI: 10.1063/5.0040021

----- AuxJ basis set information -----
Your calculation utilizes the auxiliary basis: def2/J
   F. Weigend, Phys. Chem. Chem. Phys. 8, 1057 (2006).

================================================================================
                                        WARNINGS
                       Please study these warnings very carefully!
================================================================================

Using LibXC functional ID 497 : Re-regularized SCAN exchange by Furness et al
[ 1]  J. W. Furness, A. D. Kaplan, J. Ning, J. P. Perdew, and J. Sun.,  J. Phys. Chem. Lett. 11, 8208-8215 (2020)
[ 2]  J. W. Furness, A. D. Kaplan, J. Ning, J. P. Perdew, and J. Sun.,  J. Phys. Chem. Lett. 11, 9248-9248 (2020)
Using LibXC functional ID 498 : Re-regularized SCAN correlation by Furness et al
[ 1]  J. W. Furness, A. D. Kaplan, J. Ning, J. P. Perdew, and J. Sun.,  J. Phys. Chem. Lett. 11, 8208-8215 (2020)
[ 2]  J. W. Furness, A. D. Kaplan, J. Ning, J. P. Perdew, and J. Sun.,  J. Phys. Chem. Lett. 11, 9248-9248 (2020)
Using LibXC functional ID 497 : Re-regularized SCAN exchange by Furness et al
[ 1]  J. W. Furness, A. D. Kaplan, J. Ning, J. P. Perdew, and J. Sun.,  J. Phys. Chem. Lett. 11, 8208-8215 (2020)
[ 2]  J. W. Furness, A. D. Kaplan, J. Ning, J. P. Perdew, and J. Sun.,  J. Phys. Chem. Lett. 11, 9248-9248 (2020)
Using LibXC functional ID 498 : Re-regularized SCAN correlation by Furness et al
[ 1]  J. W. Furness, A. D. Kaplan, J. Ning, J. P. Perdew, and J. Sun.,  J. Phys. Chem. Lett. 11, 8208-8215 (2020)
[ 2]  J. W. Furness, A. D. Kaplan, J. Ning, J. P. Perdew, and J. Sun.,  J. Phys. Chem. Lett. 11, 9248-9248 (2020)

================================================================================
                                       INPUT FILE
================================================================================
NAME = sp_solv.inp
|  1> ! r2scan-3c def2/J RI DEFGRID2 scfconv6 printgap
|  2> %output
|  3>     printlevel normal
|  4> end
|  5> %cpcm
|  6>     smd true
|  7>     smdsolvent "water"
|  8> end
|  9> * xyz 0 1
| 10> C 4.4280693262 -1.8340125295 -0.7430861309
| 11> C 4.6241733948 -0.3530965139 -0.4893432574
| 12> O 3.5734376172 0.2068243391 0.3156217057
| 13> P 2.0737728152 0.3369053061 -0.2002612718
| 14> S 1.9085807884 0.808729288 -2.0986485517
| 15> O 1.4854230951 1.3436459245 0.875499243
| 16> C 1.5032909019 2.771480306 0.6842484897
| 17> C 2.9106078963 3.3241853523 0.6172415671
| 18> S 1.1796685598 -1.4586616513 0.4540632394
| 19> C -0.0156854357 -1.7558270004 -0.902185694
| 20> S -1.6755778542 -2.1374559889 -0.2998274137
| 21> P -2.3484910334 -0.1914384591 0.2399177043
| 22> S -1.3980156311 1.3079189964 -0.6074201923
| 23> O -2.4113295609 -0.1751437438 1.8217245006
| 24> C -1.2397484558 -0.1517593033 2.6582978353
| 25> C -1.672600719 0.2874492246 4.0424487725
| 26> O -3.9105949308 -0.2264629589 0.0283521539
| 27> C -4.5224774964 0.1495502586 -1.2193493077
| 28> C -4.2057259029 -0.8288560214 -2.3325692911
| 29> H 4.2732186041 -2.3617439966 0.1945919704
| 30> H 3.5598468332 -1.9881227179 -1.3825629874
| 31> H 5.3062674701 -2.2314752416 -1.2416834754
| 32> H 4.6618392878 0.1947327866 -1.4364810941
| 33> H 5.5279873578 -0.1592383324 0.089735698
| 34> H 0.9447139523 3.0008627538 -0.2297604254
| 35> H 0.9567254429 3.1560932125 1.5468410792
| 36> H 2.8675841402 4.4082799397 0.5821407519
| 37> H 3.478338979 3.0090944028 1.4889582876
| 38> H 3.4092733405 2.9612930667 -0.2808432118
| 39> H 0.3060946828 -2.6344852192 -1.4544994846
| 40> H -0.0377158607 -0.8700443204 -1.5423200314
| 41> H -0.8064180818 -1.1568197232 2.6778071523
| 42> H -0.5057357639 0.5410271043 2.2315354399
| 43> H -2.4190561466 -0.4001124655 4.4288857695
| 44> H -0.8096842131 0.2927910908 4.7001841661
| 45> H -2.1018608589 1.28452267 4.0004831625
| 46> H -5.5886138767 0.1659569468 -0.9891040927
| 47> H -4.1846795174 1.1569326671 -1.4837346196
| 48> H -3.1501921048 -0.7675611979 -2.5949473616
| 49> H -4.4317670553 -1.8444912099 -2.0180317889
| 50> H -4.7984815494 -0.5804516821 -3.2072176524
| 51> *
| 52> 
| 53>                          ****END OF INPUT****
================================================================================

                       ****************************
                       * Single Point Calculation *
                       ****************************

---------------------------------
CARTESIAN COORDINATES (ANGSTROEM)
---------------------------------
  C      4.428069   -1.834013   -0.743086
  C      4.624173   -0.353097   -0.489343
  O      3.573438    0.206824    0.315622
  P      2.073773    0.336905   -0.200261
  S      1.908581    0.808729   -2.098649
  O      1.485423    1.343646    0.875499
  C      1.503291    2.771480    0.684248
  C      2.910608    3.324185    0.617242
  S      1.179669   -1.458662    0.454063
  C     -0.015685   -1.755827   -0.902186
  S     -1.675578   -2.137456   -0.299827
  P     -2.348491   -0.191438    0.239918
  S     -1.398016    1.307919   -0.607420
  O     -2.411330   -0.175144    1.821725
  C     -1.239748   -0.151759    2.658298
  C     -1.672601    0.287449    4.042449
  O     -3.910595   -0.226463    0.028352
  C     -4.522477    0.149550   -1.219349
  C     -4.205726   -0.828856   -2.332569
  H      4.273219   -2.361744    0.194592
  H      3.559847   -1.988123   -1.382563
  H      5.306267   -2.231475   -1.241683
  H      4.661839    0.194733   -1.436481
  H      5.527987   -0.159238    0.089736
  H      0.944714    3.000863   -0.229760
  H      0.956725    3.156093    1.546841
  H      2.867584    4.408280    0.582141
  H      3.478339    3.009094    1.488958
  H      3.409273    2.961293   -0.280843
  H      0.306095   -2.634485   -1.454499
  H     -0.037716   -0.870044   -1.542320
  H     -0.806418   -1.156820    2.677807
  H     -0.505736    0.541027    2.231535
  H     -2.419056   -0.400112    4.428886
  H     -0.809684    0.292791    4.700184
  H     -2.101861    1.284523    4.000483
  H     -5.588614    0.165957   -0.989104
  H     -4.184680    1.156933   -1.483735
  H     -3.150192   -0.767561   -2.594947
  H     -4.431767   -1.844491   -2.018032
  H     -4.798482   -0.580452   -3.207218

----------------------------
CARTESIAN COORDINATES (A.U.)
----------------------------
  NO LB      ZA    FRAG     MASS         X           Y           Z
   0 C     6.0000    0    12.011    8.367838   -3.465781   -1.404229
   1 C     6.0000    0    12.011    8.738421   -0.667256   -0.924725
   2 O     8.0000    0    15.999    6.752818    0.390841    0.596439
   3 P    15.0000    0    30.974    3.918863    0.636659   -0.378439
   4 S    16.0000    0    32.060    3.606695    1.528277   -3.965871
   5 O     8.0000    0    15.999    2.807043    2.539123    1.654454
   6 C     6.0000    0    12.011    2.840808    5.237339    1.293042
   7 C     6.0000    0    12.011    5.500252    6.281800    1.166418
   8 S    16.0000    0    32.060    2.229251   -2.756471    0.858055
   9 C     6.0000    0    12.011   -0.029641   -3.318032   -1.704884
  10 S    16.0000    0    32.060   -3.166383   -4.039206   -0.566592
  11 P    15.0000    0    30.974   -4.438005   -0.361766    0.453379
  12 S    16.0000    0    32.060   -2.641867    2.471609   -1.147858
  13 O     8.0000    0    15.999   -4.556752   -0.330974    3.442560
  14 C     6.0000    0    12.011   -2.342785   -0.286784    5.023455
  15 C     6.0000    0    12.011   -3.160757    0.543200    7.639121
  16 O     8.0000    0    15.999   -7.389953   -0.427953    0.053578
  17 C     6.0000    0    12.011   -8.546244    0.282609   -2.304236
  18 C     6.0000    0    12.011   -7.947670   -1.566311   -4.407917
  19 H     1.0000    0     1.008    8.075213   -4.463049    0.367726
  20 H     1.0000    0     1.008    6.727136   -3.757007   -2.612665
  21 H     1.0000    0     1.008   10.027392   -4.216877   -2.346442
  22 H     1.0000    0     1.008    8.809600    0.367992   -2.714556
  23 H     1.0000    0     1.008   10.446382   -0.300917    0.169576
  24 H     1.0000    0     1.008    1.785251    5.670809   -0.434184
  25 H     1.0000    0     1.008    1.807949    5.964152    2.923106
  26 H     1.0000    0     1.008    5.418949    8.330442    1.100087
  27 H     1.0000    0     1.008    6.573108    5.686364    2.813723
  28 H     1.0000    0     1.008    6.442593    5.596033   -0.530717
  29 H     1.0000    0     1.008    0.578435   -4.978456   -2.748606
  30 H     1.0000    0     1.008   -0.071273   -1.644145   -2.914562
  31 H     1.0000    0     1.008   -1.523909   -2.186072    5.060322
  32 H     1.0000    0     1.008   -0.955702    1.022393    4.216991
  33 H     1.0000    0     1.008   -4.571354   -0.756103    8.369381
  34 H     1.0000    0     1.008   -1.530081    0.553295    8.882061
  35 H     1.0000    0     1.008   -3.971941    2.427396    7.559818
  36 H     1.0000    0     1.008  -10.560950    0.313613   -1.869136
  37 H     1.0000    0     1.008   -7.907898    2.186286   -2.803852
  38 H     1.0000    0     1.008   -5.953000   -1.450480   -4.903740
  39 H     1.0000    0     1.008   -8.374826   -3.485583   -3.813527
  40 H     1.0000    0     1.008   -9.067816   -1.096895   -6.060763

--------------------------------
INTERNAL COORDINATES (ANGSTROEM)
--------------------------------
 C      0   0   0     0.000000000000     0.00000000     0.00000000
 C      1   0   0     1.515240738904     0.00000000     0.00000000
 O      2   1   0     1.437193663976   112.33005475     0.00000000
 P      3   2   1     1.591241912095   122.63544387   292.75246980
 S      4   3   2     1.963104821476   114.35989642   322.53601224
 O      4   3   2     1.586487551505   100.46001631   194.91227921
 C      6   4   3     1.440696751628   122.29600383    91.05923211
 C      7   6   4     1.513444389004   112.29319458   296.24051088
 S      4   3   2     2.109887125888   103.25401303    91.97998038
 C      9   4   3     1.832099775834   100.65815458   213.32981970
 S     10   9   4     1.806576603331   112.76259931   228.45715023
 P     11  10   9     2.128643033821   100.47923627    77.25055809
 S     12  11  10     1.967093739697   115.77606092    20.81535712
 O     12  11  10     1.583138319638   105.98031200   250.38340999
 C     14  12  11     1.439793062289   123.25850760    72.17799297
 C     15  14  12     1.515301629937   107.63874710   162.69599320
 O     12  11  10     1.576754668290   105.00218782   150.07080016
 C     17  12  11     1.439633686428   122.11124475   268.89466907
 C     18  17  12     1.515542527338   112.28156305    67.83414225
 H      1   2   3     1.087069210842   110.39279086   307.72595441
 H      1   2   3     1.089261629508   109.86141112    67.85885734
 H      1   2   3     1.085268583993   109.27763197   187.24488307
 H      2   1   3     1.094808542025   110.40370327   238.94695220
 H      2   1   3     1.090776379849   111.70571369   116.22069982
 H      7   6   4     1.095461917579   108.17740249    59.26336503
 H      7   6   4     1.091204318301   103.77857137   175.27328792
 H      8   7   6     1.085515631047   109.22600585   186.12779984
 H      8   7   6     1.086964088422   110.13981792   306.59685187
 H      8   7   6     1.089455968031   109.90582040    66.69587418
 H     10   9   4     1.086569479331   108.31439019   111.83033077
 H     10   9   4     1.093100299942   108.37441161   350.93328195
 H     15  14  12     1.094669938443   108.51520331   283.23297920
 H     15  14  12     1.095834741443   109.21000292    41.69335180
 H     16  15  14     1.085942141984   109.74841042    58.75525828
 H     16  15  14     1.085020405192   109.14596055   178.77987608
 H     16  15  14     1.086361282287   110.09711194   298.94881679
 H     18  17  12     1.090838585606   103.67407445   188.50597739
 H     18  17  12     1.094909304335   108.56950862   305.21206676
 H     19  18  17     1.089380973856   110.06571123   291.49457609
 H     19  18  17     1.086988168743   110.31564164    51.67821268
 H     19  18  17     1.085391048501   109.27039151   172.08338675

---------------------------
INTERNAL COORDINATES (A.U.)
---------------------------
 C      0   0   0     0.000000000000     0.00000000     0.00000000
 C      1   0   0     2.863390023489     0.00000000     0.00000000
 O      2   1   0     2.715902426321   112.33005475     0.00000000
 P      3   2   1     3.007011426677   122.63544387   292.75246980
 S      4   3   2     3.709730484769   114.35989642   322.53601224
 O      4   3   2     2.998026987220   100.46001631   194.91227921
 C      6   4   3     2.722522302607   122.29600383    91.05923211
 C      7   6   4     2.859995414138   112.29319458   296.24051088
 S      4   3   2     3.987108841415   103.25401303    91.97998038
 C      9   4   3     3.462166826345   100.65815458   213.32981970
 S     10   9   4     3.413935020245   112.76259931   228.45715023
 P     11  10   9     4.022552370801   100.47923627    77.25055809
 S     12  11  10     3.717268447778   115.77606092    20.81535712
 O     12  11  10     2.991697856232   105.98031200   250.38340999
 C     14  12  11     2.720814577246   123.25850760    72.17799297
 C     15  14  12     2.863505090865   107.63874710   162.69599320
 O     12  11  10     2.979634503450   105.00218782   150.07080016
 C     17  12  11     2.720513400517   122.11124475   268.89466907
 C     18  17  12     2.863960320979   112.28156305    67.83414225
 H      1   2   3     2.054263097109   110.39279086   307.72595441
 H      1   2   3     2.058406167959   109.86141112    67.85885734
 H      1   2   3     2.050860405495   109.27763197   187.24488307
 H      2   1   3     2.068888313505   110.40370327   238.94695220
 H      2   1   3     2.061268631264   111.70571369   116.22069982
 H      7   6   4     2.070123014364   108.17740249    59.26336503
 H      7   6   4     2.062077317741   103.77857137   175.27328792
 H      8   7   6     2.051327256769   109.22600585   186.12779984
 H      8   7   6     2.054064444526   110.13981792   306.59685187
 H      8   7   6     2.058773414545   109.90582040    66.69587418
 H     10   9   4     2.053318741413   108.31439019   111.83033077
 H     10   9   4     2.065660203797   108.37441161   350.93328195
 H     15  14  12     2.068626390693   108.51520331   283.23297920
 H     15  14  12     2.070827549363   109.21000292    41.69335180
 H     16  15  14     2.052133245634   109.74841042    58.75525828
 H     16  15  14     2.050391415529   109.14596055   178.77987608
 H     16  15  14     2.052925306017   110.09711194   298.94881679
 H     18  17  12     2.061386183110   103.67407445   188.50597739
 H     18  17  12     2.069078726676   108.56950862   305.21206676
 H     19  18  17     2.058631696092   110.06571123   291.49457609
 H     19  18  17     2.054109949737   110.31564164    51.67821268
 H     19  18  17     2.051091829876   109.27039151   172.08338675

---------------------
BASIS SET INFORMATION
---------------------
There are 5 groups of distinct atoms

 Group   1 Type C   : 11s6p1d contracted to 5s3p1d pattern {62111/411/1}
 Group   2 Type O   : 11s6p2d contracted to 5s3p2d pattern {62111/411/11}
 Group   3 Type P   : 14s9p2d contracted to 5s4p2d pattern {73211/6111/11}
 Group   4 Type S   : 14s9p2d contracted to 5s4p2d pattern {73211/6111/11}
 Group   5 Type H   : 4s1p contracted to 2s1p pattern {31/1}

Atom   0C    basis set group =>   1
Atom   1C    basis set group =>   1
Atom   2O    basis set group =>   2
Atom   3P    basis set group =>   3
Atom   4S    basis set group =>   4
Atom   5O    basis set group =>   2
Atom   6C    basis set group =>   1
Atom   7C    basis set group =>   1
Atom   8S    basis set group =>   4
Atom   9C    basis set group =>   1
Atom  10S    basis set group =>   4
Atom  11P    basis set group =>   3
Atom  12S    basis set group =>   4
Atom  13O    basis set group =>   2
Atom  14C    basis set group =>   1
Atom  15C    basis set group =>   1
Atom  16O    basis set group =>   2
Atom  17C    basis set group =>   1
Atom  18C    basis set group =>   1
Atom  19H    basis set group =>   5
Atom  20H    basis set group =>   5
Atom  21H    basis set group =>   5
Atom  22H    basis set group =>   5
Atom  23H    basis set group =>   5
Atom  24H    basis set group =>   5
Atom  25H    basis set group =>   5
Atom  26H    basis set group =>   5
Atom  27H    basis set group =>   5
Atom  28H    basis set group =>   5
Atom  29H    basis set group =>   5
Atom  30H    basis set group =>   5
Atom  31H    basis set group =>   5
Atom  32H    basis set group =>   5
Atom  33H    basis set group =>   5
Atom  34H    basis set group =>   5
Atom  35H    basis set group =>   5
Atom  36H    basis set group =>   5
Atom  37H    basis set group =>   5
Atom  38H    basis set group =>   5
Atom  39H    basis set group =>   5
Atom  40H    basis set group =>   5
---------------------------------
AUXILIARY/J BASIS SET INFORMATION
---------------------------------
There are 5 groups of distinct atoms

 Group   1 Type C   : 12s5p4d2f1g contracted to 6s4p3d1f1g pattern {711111/2111/211/2/1}
 Group   2 Type O   : 12s5p4d2f1g contracted to 6s4p3d1f1g pattern {711111/2111/211/2/1}
 Group   3 Type P   : 14s5p5d2f1g contracted to 8s4p3d1f1g pattern {71111111/2111/311/2/1}
 Group   4 Type S   : 14s5p5d2f1g contracted to 8s4p3d1f1g pattern {71111111/2111/311/2/1}
 Group   5 Type H   : 5s2p1d contracted to 3s1p1d pattern {311/2/1}

Atom   0C    basis set group =>   1
Atom   1C    basis set group =>   1
Atom   2O    basis set group =>   2
Atom   3P    basis set group =>   3
Atom   4S    basis set group =>   4
Atom   5O    basis set group =>   2
Atom   6C    basis set group =>   1
Atom   7C    basis set group =>   1
Atom   8S    basis set group =>   4
Atom   9C    basis set group =>   1
Atom  10S    basis set group =>   4
Atom  11P    basis set group =>   3
Atom  12S    basis set group =>   4
Atom  13O    basis set group =>   2
Atom  14C    basis set group =>   1
Atom  15C    basis set group =>   1
Atom  16O    basis set group =>   2
Atom  17C    basis set group =>   1
Atom  18C    basis set group =>   1
Atom  19H    basis set group =>   5
Atom  20H    basis set group =>   5
Atom  21H    basis set group =>   5
Atom  22H    basis set group =>   5
Atom  23H    basis set group =>   5
Atom  24H    basis set group =>   5
Atom  25H    basis set group =>   5
Atom  26H    basis set group =>   5
Atom  27H    basis set group =>   5
Atom  28H    basis set group =>   5
Atom  29H    basis set group =>   5
Atom  30H    basis set group =>   5
Atom  31H    basis set group =>   5
Atom  32H    basis set group =>   5
Atom  33H    basis set group =>   5
Atom  34H    basis set group =>   5
Atom  35H    basis set group =>   5
Atom  36H    basis set group =>   5
Atom  37H    basis set group =>   5
Atom  38H    basis set group =>   5
Atom  39H    basis set group =>   5
Atom  40H    basis set group =>   5

Checking for AutoStart:
The File: sp_solv.gbw exists
Trying to determine its content:
     ... Fine, the file contains calculation information
     ... Fine, the calculation information was read
     ... Fine, the file contains a basis set
     ... Fine, the basis set was read
     ... Fine, the file contains a geometry
     ... Fine, the geometry was read
     ... Fine, the file contains a set of orbitals
     ... Fine, the orbitals can be read
     => possible old guess file was deleted
     => GBW file was renamed to GES file
     => GES file is set as startup file
     => Guess is set to MORead
     ... now leaving AutoStart

------------------------------------------------------------------------------
                             ORCA STARTUP CALCULATIONS
                           -- RI-GTO INTEGRALS CHOSEN --
------------------------------------------------------------------------------
------------------------------------------------------------------------------
                   ___                                                        
                  /   \      - P O W E R E D   B Y -                         
                 /     \                                                     
                 |  |  |   _    _      __       _____    __    __             
                 |  |  |  | |  | |    /  \     |  _  \  |  |  /  |          
                  \  \/   | |  | |   /    \    | | | |  |  | /  /          
                 / \  \   | |__| |  /  /\  \   | |_| |  |  |/  /          
                |  |  |   |  __  | /  /__\  \  |    /   |      \           
                |  |  |   | |  | | |   __   |  |    \   |  |\   \          
                \     /   | |  | | |  |  |  |  | |\  \  |  | \   \       
                 \___/    |_|  |_| |__|  |__|  |_| \__\ |__|  \__/        
                                                                              
                      - O R C A' S   B I G   F R I E N D -                    
                                      &                                       
                       - I N T E G R A L  F E E D E R -                       
                                                                              
 v1 FN, 2020, v2 2021, v3 2022-2024                                           
------------------------------------------------------------------------------


----------------------
SHARK INTEGRAL PACKAGE
----------------------

Number of atoms                             ...     41
Number of basis functions                   ...    539
Number of shells                            ...    253
Maximum angular momentum                    ...      2
Integral batch strategy                     ... SHARK/LIBINT Hybrid
RI-J (if used) integral strategy            ... SPLIT-RIJ (Revised 2003 algorithm where possible)
Printlevel                                  ...      1
Contraction scheme used                     ... SEGMENTED contraction
Prescreening option                         ... SCHWARTZ
   Thresh                                   ... 1.000e-10
   Tcut                                     ... 1.000e-11
   Tpresel                                  ... 1.000e-11 
Coulomb Range Separation                    ... NOT USED
Exchange Range Separation                   ... NOT USED
Multipole approximations                    ... NOT USED
Finite Nucleus Model                        ... NOT USED
CABS basis                                  ... NOT available
Auxiliary Coulomb fitting basis             ... AVAILABLE
   # of basis functions in Aux-J            ...   1185
   # of shells in Aux-J                     ...    407
   Maximum angular momentum in Aux-J        ...      4
Auxiliary J/K fitting basis                 ... NOT available
Auxiliary Correlation fitting basis         ... NOT available
Auxiliary 'external' fitting basis          ... NOT available

Checking pre-screening integrals            ... done (  0.0 sec) Dimension = 253
Check shell pair data                       ... done (  0.0 sec)
Shell pair information
Shell pair cut-off parameter TPreSel        ...   1.0e-11
Total number of shell pairs                 ...     32131
Shell pairs after pre-screening             ...     21276
Total number of primitive shell pairs       ...    124843
Primitive shell pairs kept                  ...     49619
          la=0 lb=0:   5973 shell pairs
          la=1 lb=0:   7721 shell pairs
          la=1 lb=1:   2547 shell pairs
          la=2 lb=0:   2853 shell pairs
          la=2 lb=1:   1833 shell pairs
          la=2 lb=2:    349 shell pairs

Calculating one electron integrals          ... done (  0.1 sec)
Calculating RI/J V-Matrix + Cholesky decomp.... done (  0.1 sec)
Calculating Nuclear repulsion               ... done (  0.0 sec) ENN=   2784.442627882369 Eh

Diagonalization of the overlap matrix:
Smallest eigenvalue                        ... 2.519e-04
Time for diagonalization                   ...    0.033 sec
Threshold for overlap eigenvalues          ... 1.000e-07
Number of eigenvalues below threshold      ... 0
Time for construction of square roots      ...    0.060 sec
Total time needed                          ...    0.102 sec

-------------------
DFT GRID GENERATION
-------------------

General Integration Accuracy     IntAcc      ... 4.388
Radial Grid Type                 RadialGrid  ... OptM3 with GC (2021)
Angular Grid (max. ang.)         AngularGrid ... 4 (Lebedev-302)
Angular grid pruning method      GridPruning ... 4 (adaptive)
Weight generation scheme         WeightScheme... mBecke (2022)
Basis function cutoff            BFCut       ... 1.0000e-10
Integration weight cutoff        WCut        ... 1.0000e-14
Partially contracted basis set               ... off
Rotationally invariant grid construction     ... off
Angular grids for H and He will be reduced by one unit
Diffuse basis detected: some atoms will have their outermost
                        angular grid increased by 1.

Total number of grid points                  ...   192540
Total number of batches                      ...     3031
Average number of points per batch           ...       63
Average number of grid points per atom       ...     4696
Initializing property integral containers    ... done (  0.0 sec)

SHARK setup successfully completed in   2.9 seconds

Maximum memory used throughout the entire STARTUP-calculation: 101.4 MB
-------------------------------------------------------------------------------
                                 ORCA GUESS
                   Start orbitals & Density for SCF / CASSCF
-------------------------------------------------------------------------------

------------
SCF SETTINGS
------------
Hamiltonian:
 Density Functional     Method          .... DFT(GTOs)
  Functional kind                       .... Exchange
  Functional name                       .... Re-regularized SCAN exchange by Furness et al
  Functional family                     .... MGGA
  Functional refs                              
    [ 0] J. W. Furness, A. D. Kaplan, J. Ning, J. P. Perdew, and J. Sun.,  J. Phys. Chem. Lett. 11, 8208-8215 (2020), doi: 10.1021/acs.jpclett.0c02405
    [ 1] J. W. Furness, A. D. Kaplan, J. Ning, J. P. Perdew, and J. Sun.,  J. Phys. Chem. Lett. 11, 9248-9248 (2020), doi: 10.1021/acs.jpclett.0c03077
  Functional external parameters        .... 6
    Parameter  0 _c1        =  6.670000e-01 : c1 parameter        
    Parameter  1 _c2        =  8.000000e-01 : c2 parameter        
    Parameter  2 _d         =  1.240000e+00 : d parameter         
    Parameter  3 _k1        =  6.500000e-02 : k1 parameter        
    Parameter  4 _eta       =  1.000000e-03 : eta parameter       
    Parameter  5 _dp2       =  3.610000e-01 : dp2 parameter       
  Functional kind                       .... Correlation
  Functional name                       .... Re-regularized SCAN correlation by Furness et al
  Functional family                     .... MGGA
  Functional refs                              
    [ 0] J. W. Furness, A. D. Kaplan, J. Ning, J. P. Perdew, and J. Sun.,  J. Phys. Chem. Lett. 11, 8208-8215 (2020), doi: 10.1021/acs.jpclett.0c02405
    [ 1] J. W. Furness, A. D. Kaplan, J. Ning, J. P. Perdew, and J. Sun.,  J. Phys. Chem. Lett. 11, 9248-9248 (2020), doi: 10.1021/acs.jpclett.0c03077
  Functional external parameters        .... 1
    Parameter  0 _eta       =  1.000000e-03 : Regularization parameter
 Gradients option       PostSCFGGA      .... off
 RI-approximation to the Coulomb term is turned on
   Number of AuxJ basis functions       .... 1185


General Settings:
 Integral files         IntName         .... sp_solv
 Hartree-Fock type      HFTyp           .... RHF
 Total Charge           Charge          ....    0
 Multiplicity           Mult            ....    1
 Number of Electrons    NEL             ....  202
 Basis Dimension        Dim             ....  539
 Nuclear Repulsion      ENuc            ....   2784.4426278824 Eh

Convergence Acceleration:
 AO-DIIS                CNVDIIS         .... on
   Start iteration      DIISMaxIt       ....    12
   Startup error        DIISStart       ....  0.200000
   # of expansion vecs  DIISMaxEq       ....     5
   Bias factor          DIISBfac        ....   1.050
   Max. coefficient     DIISMaxC        ....  10.000
 MO-DIIS                CNVKDIIS        .... off
 Trust-Rad. Augm. Hess. CNVTRAH         .... auto
   Auto Start mean grad. ratio tolernc. ....  1.125000
   Auto Start start iteration           ....     1
   Auto Start num. interpolation iter.  ....    10
   Max. Number of Micro iterations      ....    24
   Max. Number of Macro iterations      .... Maxiter - #DIIS iter
   Number of Davidson start vectors     ....     2
   Converg. threshold    (grad. norm)   ....   3.330e-04
   Grad. Scal. Fac. for Micro threshold ....   0.100
   Minimum threshold for Micro iter.    ....   1.000e-02
   NR start threshold (gradient norm)   ....   1.000e-04
   Initial trust radius                 ....   0.400
   Minimum AH scaling param. (alpha)    ....   1.000
   Maximum AH scaling param. (alpha)    .... 1000.000
   Quad. conv. algorithm                .... NR
   White noise on init. David. guess    .... on
   Maximum white noise                  ....   0.010
   Pseudo random numbers                .... off
   Inactive MOs                         .... canonical
   Orbital update algorithm             .... Taylor
   Preconditioner                       .... Diag
   Full preconditioner red. dimension   ....   250
   COSX micro iterations for RIJONX calc.... off
 SOSCF                  CNVSOSCF        .... on
   Start iteration      SOSCFMaxIt      ....   150
   Startup grad/error   SOSCFStart      ....  0.003300
   Hessian update       SOSCFHessUp     .... L-BFGS
 Level Shifting         CNVShift        .... on
   Level shift para.    LevelShift      ....    0.2500
   Turn off err/grad.   ShiftErr        ....    0.0010
 Zerner damping         CNVZerner       .... off
 Static damping         CNVDamp         .... on
   Fraction old density DampFac         ....    0.7000
   Max. Damping (<1)    DampMax         ....    0.9800
   Min. Damping (>=0)   DampMin         ....    0.0000
   Turn off err/grad.   DampErr         ....    0.1000

SCF Procedure:
 Maximum # iterations   MaxIter         ....   125
 SCF integral mode      SCFMode         .... Direct
   Integral package                     .... SHARK and LIBINT hybrid scheme
 Reset frequency        DirectResetFreq ....    20
 Integral Threshold     Thresh          ....  1.000e-10 Eh
 Primitive CutOff       TCut            ....  1.000e-11 Eh

Convergence Tolerance:
 Convergence Check Mode ConvCheckMode   .... Total+1el-Energy
 Convergence forced     ConvForced      .... 0
 Energy Change          TolE            ....  1.000e-06 Eh
 1-El. energy change                    ....  1.000e-03 Eh
 Orbital Gradient       TolG            ....  3.330e-04
 Orbital Rotation angle TolX            ....  3.330e-04
 DIIS Error             TolErr          ....  1.000e-06

---------------------
INITIAL GUESS: MOREAD
---------------------
Guess MOs are being read from file: sp_solv.ges
Input Geometry matches current geometry (good)
Atom 0: N(Shells)= 9 and 6 - projection required
Input basis set needs projection
NBasis(read)= 334
NBasis(calc)= 539
Basis set overlap was calculated
Using GuessMode=FMatrix for the initial guess
C*T matrix was formed
Effective Fockian was calculated
Effective Fockian was diagonalized
Initial density was built
                      ------------------
                      INITIAL GUESS DONE (   0.2 sec)
                      ------------------
             **** ENERGY FILE WAS UPDATED (sp_solv.en.tmp) ****
Finished Guess after   0.6 sec
Maximum memory used throughout the entire GUESS-calculation: 58.9 MB

-------------------------------------------------------------------------------------------
                                      ORCA LEAN-SCF
                              memory conserving SCF solver
-------------------------------------------------------------------------------------------

--------------------
CPCM SOLVATION MODEL
--------------------
CPCM parameters:
  Epsilon                                         ...      78.3550
  Refrac                                          ...       1.3328
  Rsolv                                           ...       1.3000
  Surface type                                    ... GAUSSIAN VDW
  Discretization scheme                           ... Constant charge density
    Threshold for H atoms                         ...       5.0000 (charges/Ang^2)
    Threshold for non-H atoms                     ...       5.0000 (charges/Ang^2)
  Epsilon function type                           ...         CPCM
Solvent:                                          ... WATER
SMD-CDS solvent descriptors:
  Soln                                            ...       1.3328
  Soln25                                          ...       1.3323
  Sola                                            ...       0.0000
  Solb                                            ...       0.0000
  Solg                                            ...       0.0000
  Solc                                            ...       0.0000
  Solh                                            ...       0.0000
Radii:
  Scheme                                          ... Element-dependent radii
  Radius for C  used is    3.4960 Bohr (=   1.8500 Ang.)
  Radius for O  used is    2.8724 Bohr (=   1.5200 Ang.)
  Radius for P  used is    4.0062 Bohr (=   2.1200 Ang.)
  Radius for S  used is    4.7054 Bohr (=   2.4900 Ang.)
  Radius for H  used is    2.2677 Bohr (=   1.2000 Ang.)
Calculating surface                               ...        done! (  0.0s)
Cavity surface points                             ...         3226
Cavity Volume                                     ...    2728.4418
Cavity Surface-area                               ...    1306.5179
Calculating surface distance matrix               ...        done! (  0.1s)
Performing Cholesky decomposition & store         ...        done! (  0.4s)
Overall time for CPCM initialization              ...                 0.4s

----------------------------------------D-I-I-S--------------------------------------------
Iteration    Energy (Eh)           Delta-E    RMSDP     MaxDP     DIISErr   Damp  Time(sec)
-------------------------------------------------------------------------------------------
               ***  Starting incremental Fock matrix formation  ***
    1    -2932.0233041933811364     0.00e+00  2.22e-03  9.02e-02  6.32e-01  0.700  12.9
    2    -2932.1662911529388111    -1.43e-01  1.82e-03  7.08e-02  4.44e-01  0.700  11.0
    3    -2932.2673922077824500    -1.01e-01  1.34e-03  5.21e-02  3.12e-01  0.700  10.8
    4    -2932.3383563444108404    -7.10e-02  9.60e-04  3.73e-02  2.18e-01  0.700  10.5
                               ***Turning on AO-DIIS***
    5    -2932.3881267720321375    -4.98e-02  6.99e-04  2.70e-02  1.53e-01  0.700  10.3
    6    -2932.4230066758623252    -3.49e-02  4.97e-04  1.92e-02  1.07e-01  0.700  10.1
    7    -2932.4474621289978131    -2.45e-02  3.51e-04  1.35e-02  7.48e-02  0.700  10.0
    8    -2932.4645969404077732    -1.71e-02  8.25e-04  3.17e-02  5.24e-02  0.000   9.7
                              *** Initializing SOSCF ***
---------------------------------------S-O-S-C-F--------------------------------------
Iteration    Energy (Eh)           Delta-E    RMSDP     MaxDP     MaxGrad    Time(sec)
--------------------------------------------------------------------------------------
    9    -2932.5046307298839565    -4.00e-02  7.91e-06  4.57e-04  2.20e-04    10.3
               *** Restarting incremental Fock matrix formation ***
   10    -2932.5046314871310642    -7.57e-07  5.80e-06  4.43e-04  3.68e-05    12.6
                  *** Gradient check signals convergence ***

               *****************************************************
               *                     SUCCESS                       *
               *           SCF CONVERGED AFTER  10 CYCLES          *
               *****************************************************


SMD CDS free energy correction energy :                 7.56515     Kcal/mol
Total Energy after SMD CDS correction =             -2932.492575654 Eh
             **** ENERGY FILE WAS UPDATED (sp_solv.en.tmp) ****

----------------
TOTAL SCF ENERGY
----------------

Total Energy       :      -2932.49257565410107 Eh          -79797.17979 eV

Components:
Nuclear Repulsion  :       2784.44262788236892 Eh           75768.53590 eV
Electronic Energy  :      -5716.92522269597976 Eh         -155565.44410 eV
One Electron Energy:      -9591.16490234089360 Eh         -260988.86541 eV
Two Electron Energy:       3874.23967964491385 Eh          105423.42131 eV
CPCM Dielectric    :         -0.02203667351983 Eh              -0.59965 eV
SMD CDS (Gcds)     :          0.01205583303009 Eh               0.32806 eV

Virial components:
Potential Energy   :      -5856.19597913559846 Eh         -159355.19405 eV
Kinetic Energy     :       2923.70340348149784 Eh           79558.01426 eV
Virial Ratio       :          2.00300617776828

DFT components:
N(Alpha)           :      101.000113148843 electrons
N(Beta)            :      101.000113148843 electrons
N(Total)           :      202.000226297686 electrons
E(X)               :     -233.545014183018 Eh       
E(C)               :       -7.123205527349 Eh       
E(XC)              :     -240.668219710367 Eh       

CPCM Solvation Model Properties:
Surface-charge          :         -0.04750031825483
Corrected charge        :         -0.00000000000000
Outlying charge corr.   :          0.00011712064736 Eh               0.00319 eV
Free-energy (cav+disp)  :          0.01205583303009 Eh               0.32806 eV

---------------
SCF CONVERGENCE
---------------

  Last Energy change         ...    7.5725e-07  Tolerance :   1.0000e-06
  Last MAX-Density change    ...    4.4281e-04  Tolerance :   1.0000e-05
  Last RMS-Density change    ...    5.8019e-06  Tolerance :   1.0000e-06
  Last DIIS Error            ...    2.1974e-04  Tolerance :   1.0000e-06
  Last Orbital Gradient      ...    3.6817e-05  Tolerance :   3.3300e-04
  Last Orbital Rotation      ...    1.6547e-04  Tolerance :   3.3300e-04


----------------
ORBITAL ENERGIES
----------------

  NO   OCC          E(Eh)            E(eV) 
   0   2.0000     -88.581102     -2410.4143 
   1   2.0000     -88.575636     -2410.2656 
   2   2.0000     -88.527033     -2408.9430 
   3   2.0000     -88.526064     -2408.9167 
   4   2.0000     -76.918278     -2093.0527 
   5   2.0000     -76.917309     -2093.0264 
   6   2.0000     -18.996215      -516.9133 
   7   2.0000     -18.992389      -516.8092 
   8   2.0000     -18.991731      -516.7913 
   9   2.0000     -18.988814      -516.7119 
  10   2.0000     -10.104767      -274.9647 
  11   2.0000     -10.090892      -274.5871 
  12   2.0000     -10.088076      -274.5105 
  13   2.0000     -10.087796      -274.5029 
  14   2.0000     -10.087768      -274.5021 
  15   2.0000     -10.018684      -272.6223 
  16   2.0000     -10.018524      -272.6179 
  17   2.0000     -10.017858      -272.5998 
  18   2.0000     -10.017389      -272.5870 
  19   2.0000      -7.875332      -214.2987 
  20   2.0000      -7.870213      -214.1594 
  21   2.0000      -7.822031      -212.8483 
  22   2.0000      -7.820987      -212.8199 
  23   2.0000      -6.596979      -179.5129 
  24   2.0000      -6.595763      -179.4798 
  25   2.0000      -5.822363      -158.4346 
  26   2.0000      -5.818928      -158.3411 
  27   2.0000      -5.817029      -158.2894 
  28   2.0000      -5.814222      -158.2130 
  29   2.0000      -5.812577      -158.1683 
  30   2.0000      -5.807185      -158.0215 
  31   2.0000      -5.769643      -157.0000 
  32   2.0000      -5.768598      -156.9715 
  33   2.0000      -5.762468      -156.8047 
  34   2.0000      -5.761875      -156.7886 
  35   2.0000      -5.761177      -156.7696 
  36   2.0000      -5.761103      -156.7676 
  37   2.0000      -4.742326      -129.0452 
  38   2.0000      -4.742100      -129.0391 
  39   2.0000      -4.740983      -129.0087 
  40   2.0000      -4.740650      -128.9997 
  41   2.0000      -4.740565      -128.9973 
  42   2.0000      -4.739925      -128.9799 
  43   2.0000      -1.056781       -28.7565 
  44   2.0000      -1.049720       -28.5643 
  45   2.0000      -1.012825       -27.5604 
  46   2.0000      -1.009290       -27.4642 
  47   2.0000      -0.798986       -21.7415 
  48   2.0000      -0.756140       -20.5756 
  49   2.0000      -0.744986       -20.2721 
  50   2.0000      -0.722354       -19.6563 
  51   2.0000      -0.720855       -19.6155 
  52   2.0000      -0.711117       -19.3505 
  53   2.0000      -0.689605       -18.7651 
  54   2.0000      -0.670454       -18.2440 
  55   2.0000      -0.634045       -17.2532 
  56   2.0000      -0.623157       -16.9570 
  57   2.0000      -0.597933       -16.2706 
  58   2.0000      -0.594146       -16.1675 
  59   2.0000      -0.586796       -15.9675 
  60   2.0000      -0.525773       -14.3070 
  61   2.0000      -0.511517       -13.9191 
  62   2.0000      -0.488662       -13.2972 
  63   2.0000      -0.486057       -13.2263 
  64   2.0000      -0.470399       -12.8002 
  65   2.0000      -0.464820       -12.6484 
  66   2.0000      -0.454966       -12.3802 
  67   2.0000      -0.452472       -12.3124 
  68   2.0000      -0.440849       -11.9961 
  69   2.0000      -0.432065       -11.7571 
  70   2.0000      -0.425550       -11.5798 
  71   2.0000      -0.411563       -11.1992 
  72   2.0000      -0.406134       -11.0515 
  73   2.0000      -0.401057       -10.9133 
  74   2.0000      -0.394630       -10.7384 
  75   2.0000      -0.391869       -10.6633 
  76   2.0000      -0.384715       -10.4686 
  77   2.0000      -0.363882        -9.9017 
  78   2.0000      -0.360799        -9.8178 
  79   2.0000      -0.356192        -9.6925 
  80   2.0000      -0.353981        -9.6323 
  81   2.0000      -0.350295        -9.5320 
  82   2.0000      -0.349783        -9.5181 
  83   2.0000      -0.347136        -9.4461 
  84   2.0000      -0.344853        -9.3839 
  85   2.0000      -0.324461        -8.8290 
  86   2.0000      -0.322166        -8.7666 
  87   2.0000      -0.313694        -8.5360 
  88   2.0000      -0.305508        -8.3133 
  89   2.0000      -0.303189        -8.2502 
  90   2.0000      -0.296253        -8.0615 
  91   2.0000      -0.284690        -7.7468 
  92   2.0000      -0.283282        -7.7085 
  93   2.0000      -0.279975        -7.6185 
  94   2.0000      -0.273536        -7.4433 
  95   2.0000      -0.250495        -6.8163 
  96   2.0000      -0.239278        -6.5111 
  97   2.0000      -0.235482        -6.4078 
  98   2.0000      -0.225199        -6.1280 
  99   2.0000      -0.217988        -5.9317 
 100   2.0000      -0.212901        -5.7933 
 101   0.0000      -0.049375        -1.3436 
 102   0.0000      -0.040463        -1.1010 
 103   0.0000      -0.018455        -0.5022 
 104   0.0000       0.006472         0.1761 
 105   0.0000       0.014572         0.3965 
 106   0.0000       0.015985         0.4350 
 107   0.0000       0.033636         0.9153 
 108   0.0000       0.048471         1.3190 
 109   0.0000       0.051926         1.4130 
 110   0.0000       0.062309         1.6955 
 111   0.0000       0.083193         2.2638 
*Only the first 10 virtual orbitals were printed.

                    ********************************
                    * MULLIKEN POPULATION ANALYSIS *
                    ********************************

-----------------------
MULLIKEN ATOMIC CHARGES
-----------------------
   0 C :   -0.476190
   1 C :   -0.158061
   2 O :   -0.319184
   3 P :    0.705062
   4 S :   -0.517431
   5 O :   -0.311442
   6 C :   -0.152353
   7 C :   -0.491963
   8 S :   -0.139007
   9 C :   -0.206435
  10 S :   -0.135449
  11 P :    0.674106
  12 S :   -0.461585
  13 O :   -0.307801
  14 C :   -0.109851
  15 C :   -0.510260
  16 O :   -0.347600
  17 C :   -0.148255
  18 C :   -0.477718
  19 H :    0.166201
  20 H :    0.171089
  21 H :    0.171423
  22 H :    0.177236
  23 H :    0.173778
  24 H :    0.176305
  25 H :    0.178082
  26 H :    0.171685
  27 H :    0.169606
  28 H :    0.169995
  29 H :    0.234091
  30 H :    0.211485
  31 H :    0.171752
  32 H :    0.178764
  33 H :    0.166135
  34 H :    0.169261
  35 H :    0.166649
  36 H :    0.176080
  37 H :    0.178652
  38 H :    0.171793
  39 H :    0.168267
  40 H :    0.173091
Sum of atomic charges:    0.0000000

--------------------------------
MULLIKEN REDUCED ORBITAL CHARGES
--------------------------------
  0 C s       :     3.327404  s :     3.327404
      pz      :     1.096570  p :     3.123076
      px      :     1.106266
      py      :     0.920240
      dz2     :     0.003447  d :     0.025710
      dxz     :     0.005655
      dyz     :     0.005900
      dx2y2   :     0.007408
      dxy     :     0.003299

  1 C s       :     3.297735  s :     3.297735
      pz      :     1.002007  p :     2.805690
      px      :     0.865915
      py      :     0.937768
      dz2     :     0.008010  d :     0.054636
      dxz     :     0.012463
      dyz     :     0.011214
      dx2y2   :     0.012931
      dxy     :     0.010018

  2 O s       :     3.740433  s :     3.740433
      pz      :     1.646653  p :     4.550019
      px      :     1.162327
      py      :     1.741039
      dz2     :     0.001733  d :     0.028733
      dxz     :     0.009214
      dyz     :     0.004625
      dx2y2   :     0.009940
      dxy     :     0.003220

  3 P s       :     5.112801  s :     5.112801
      pz      :     2.826485  p :     8.467022
      px      :     2.807804
      py      :     2.832733
      dz2     :     0.129145  d :     0.715114
      dxz     :     0.187156
      dyz     :     0.179809
      dx2y2   :     0.107963
      dxy     :     0.111042

  4 S s       :     5.911846  s :     5.911846
      pz      :     3.180454  p :    10.538258
      px      :     3.710824
      py      :     3.646980
      dz2     :     0.030596  d :     0.067327
      dxz     :     0.012954
      dyz     :     0.016701
      dx2y2   :     0.003510
      dxy     :     0.003567

  5 O s       :     3.736291  s :     3.736291
      pz      :     1.619397  p :     4.547057
      px      :     1.767227
      py      :     1.160433
      dz2     :    -0.001148  d :     0.028093
      dxz     :     0.012111
      dyz     :     0.009045
      dx2y2   :     0.001089
      dxy     :     0.006996

  6 C s       :     3.288141  s :     3.288141
      pz      :     1.137101  p :     2.809748
      px      :     1.000178
      py      :     0.672468
      dz2     :     0.007884  d :     0.054464
      dxz     :     0.009484
      dyz     :     0.008839
      dx2y2   :     0.015803
      dxy     :     0.012455

  7 C s       :     3.336967  s :     3.336967
      pz      :     1.093158  p :     3.129229
      px      :     0.938838
      py      :     1.097233
      dz2     :     0.005120  d :     0.025767
      dxz     :     0.007680
      dyz     :     0.002058
      dx2y2   :     0.007006
      dxy     :     0.003903

  8 S s       :     5.899332  s :     5.899332
      pz      :     3.399679  p :    10.139491
      px      :     3.393480
      py      :     3.346332
      dz2     :     0.019587  d :     0.100184
      dxz     :     0.022041
      dyz     :     0.021799
      dx2y2   :     0.021594
      dxy     :     0.015163

  9 C s       :     3.217752  s :     3.217752
      pz      :     0.937918  p :     2.953912
      px      :     0.842524
      py      :     1.173470
      dz2     :     0.004421  d :     0.034771
      dxz     :     0.009241
      dyz     :     0.007794
      dx2y2   :     0.009155
      dxy     :     0.004160

 10 S s       :     5.894667  s :     5.894667
      pz      :     3.708688  p :    10.133914
      px      :     3.120127
      py      :     3.305099
      dz2     :     0.013859  d :     0.106868
      dxz     :     0.018525
      dyz     :     0.015359
      dx2y2   :     0.033813
      dxy     :     0.025313

 11 P s       :     5.131317  s :     5.131317
      pz      :     2.837906  p :     8.491347
      px      :     2.775778
      py      :     2.877662
      dz2     :     0.156809  d :     0.703231
      dxz     :     0.097621
      dyz     :     0.150941
      dx2y2   :     0.171484
      dxy     :     0.126375

 12 S s       :     5.909380  s :     5.909380
      pz      :     3.609527  p :    10.484480
      px      :     3.557560
      py      :     3.317393
      dz2     :     0.008501  d :     0.067726
      dxz     :     0.009828
      dyz     :     0.015295
      dx2y2   :     0.016738
      dxy     :     0.017364

 13 O s       :     3.732625  s :     3.732625
      pz      :     1.210413  p :     4.537685
      px      :     1.516831
      py      :     1.810442
      dz2     :     0.016593  d :     0.037491
      dxz     :     0.007767
      dyz     :    -0.002054
      dx2y2   :     0.008200
      dxy     :     0.006984

 14 C s       :     3.297863  s :     3.297863
      pz      :     0.836260  p :     2.757804
      px      :     0.817044
      py      :     1.104501
      dz2     :     0.011244  d :     0.054185
      dxz     :     0.015632
      dyz     :     0.007166
      dx2y2   :     0.008176
      dxy     :     0.011967

 15 C s       :     3.359381  s :     3.359381
      pz      :     0.952140  p :     3.125171
      px      :     1.087781
      py      :     1.085251
      dz2     :     0.006275  d :     0.025708
      dxz     :     0.006511
      dyz     :     0.004002
      dx2y2   :     0.003657
      dxy     :     0.005262

 16 O s       :     3.745142  s :     3.745142
      pz      :     1.471178  p :     4.567172
      px      :     1.309968
      py      :     1.786026
      dz2     :     0.012958  d :     0.035286
      dxz     :     0.001357
      dyz     :     0.007341
      dx2y2   :     0.015105
      dxy     :    -0.001475

 17 C s       :     3.292174  s :     3.292174
      pz      :     0.751313  p :     2.801697
      px      :     1.035561
      py      :     1.014823
      dz2     :     0.015211  d :     0.054384
      dxz     :     0.011057
      dyz     :     0.013108
      dx2y2   :     0.010659
      dxy     :     0.004349

 18 C s       :     3.327497  s :     3.327497
      pz      :     1.014826  p :     3.124583
      px      :     1.090966
      py      :     1.018792
      dz2     :     0.004275  d :     0.025637
      dxz     :     0.005274
      dyz     :     0.006205
      dx2y2   :     0.007841
      dxy     :     0.002042

 19 H s       :     0.815554  s :     0.815554
      pz      :     0.009182  p :     0.018246
      px      :     0.003731
      py      :     0.005332

 20 H s       :     0.810405  s :     0.810405
      pz      :     0.006163  p :     0.018506
      px      :     0.008655
      py      :     0.003688

 21 H s       :     0.810060  s :     0.810060
      pz      :     0.005310  p :     0.018517
      px      :     0.008528
      py      :     0.004679

 22 H s       :     0.804906  s :     0.804906
      pz      :     0.009915  p :     0.017858
      px      :     0.002724
      py      :     0.005218

 23 H s       :     0.808677  s :     0.808677
      pz      :     0.005180  p :     0.017545
      px      :     0.008861
      py      :     0.003504

 24 H s       :     0.805813  s :     0.805813
      pz      :     0.009619  p :     0.017882
      px      :     0.005722
      py      :     0.002541

 25 H s       :     0.804396  s :     0.804396
      pz      :     0.008595  p :     0.017523
      px      :     0.005647
      py      :     0.003280

 26 H s       :     0.809813  s :     0.809813
      pz      :     0.003702  p :     0.018502
      px      :     0.003486
      py      :     0.011314

 27 H s       :     0.812203  s :     0.812203
      pz      :     0.008371  p :     0.018191
      px      :     0.005688
      py      :     0.004132

 28 H s       :     0.811566  s :     0.811566
      pz      :     0.008792  p :     0.018439
      px      :     0.005192
      py      :     0.004455

 29 H s       :     0.747210  s :     0.747210
      pz      :     0.005633  p :     0.018699
      px      :     0.004121
      py      :     0.008945

 30 H s       :     0.767808  s :     0.767808
      pz      :     0.006692  p :     0.020707
      px      :     0.003464
      py      :     0.010551

 31 H s       :     0.810511  s :     0.810511
      pz      :     0.003005  p :     0.017737
      px      :     0.004175
      py      :     0.010557

 32 H s       :     0.803097  s :     0.803097
      pz      :     0.004318  p :     0.018139
      px      :     0.007044
      py      :     0.006777

 33 H s       :     0.815552  s :     0.815552
      pz      :     0.004541  p :     0.018313
      px      :     0.007242
      py      :     0.006530

 34 H s       :     0.812270  s :     0.812270
      pz      :     0.006504  p :     0.018469
      px      :     0.008297
      py      :     0.003668

 35 H s       :     0.815086  s :     0.815086
      pz      :     0.003427  p :     0.018266
      px      :     0.004822
      py      :     0.010017

 36 H s       :     0.806378  s :     0.806378
      pz      :     0.002623  p :     0.017542
      px      :     0.011537
      py      :     0.003382

 37 H s       :     0.803535  s :     0.803535
      pz      :     0.003016  p :     0.017813
      px      :     0.004037
      py      :     0.010760

 38 H s       :     0.809709  s :     0.809709
      pz      :     0.004044  p :     0.018498
      px      :     0.010926
      py      :     0.003529

 39 H s       :     0.813500  s :     0.813500
      pz      :     0.004030  p :     0.018233
      px      :     0.003821
      py      :     0.010382

 40 H s       :     0.808394  s :     0.808394
      pz      :     0.008734  p :     0.018515
      px      :     0.005872
      py      :     0.003908


------------------------
MULLIKEN OVERLAP CHARGES
------------------------
B(  0-C ,  1-C ) :   0.4120 B(  0-C ,  2-O ) :  -0.1675 B(  0-C , 19-H ) :   0.8036 
B(  0-C , 20-H ) :   0.8503 B(  0-C , 21-H ) :   0.7819 B(  0-C , 22-H ) :  -0.1185 
B(  1-C ,  2-O ) :   0.3548 B(  1-C ,  3-P ) :  -0.1528 B(  1-C , 19-H ) :  -0.0606 
B(  1-C , 20-H ) :  -0.0915 B(  1-C , 21-H ) :  -0.0518 B(  1-C , 22-H ) :   0.8845 
B(  1-C , 23-H ) :   0.7946 B(  2-O ,  3-P ) :   0.4817 B(  2-O ,  4-S ) :  -0.0984 
B(  2-O ,  5-O ) :  -0.2500 B(  2-O ,  7-C ) :   0.0610 B(  2-O ,  8-S ) :  -0.1007 
B(  2-O , 22-H ) :  -0.0807 B(  2-O , 23-H ) :  -0.1019 B(  3-P ,  4-S ) :   1.1711 
B(  3-P ,  5-O ) :   0.6553 B(  3-P ,  6-C ) :  -0.1704 B(  3-P ,  8-S ) :   0.8016 
B(  3-P ,  9-C ) :  -0.0943 B(  4-S ,  5-O ) :  -0.0701 B(  4-S ,  8-S ) :  -0.0967 
B(  5-O ,  6-C ) :   0.3259 B(  5-O ,  7-C ) :  -0.1751 B(  5-O ,  8-S ) :  -0.1507 
B(  5-O , 24-H ) :  -0.0786 B(  5-O , 25-H ) :  -0.0987 B(  6-C ,  7-C ) :   0.3490 
B(  6-C , 24-H ) :   0.8800 B(  6-C , 25-H ) :   0.8007 B(  6-C , 26-H ) :  -0.0520 
B(  6-C , 27-H ) :  -0.0673 B(  6-C , 28-H ) :  -0.0817 B(  7-C , 24-H ) :  -0.1093 
B(  7-C , 26-H ) :   0.7820 B(  7-C , 27-H ) :   0.8151 B(  7-C , 28-H ) :   0.8303 
B(  8-S ,  9-C ) :   0.3372 B(  8-S , 10-S ) :  -0.1268 B(  8-S , 29-H ) :  -0.0766 
B(  8-S , 30-H ) :  -0.0681 B(  9-C , 10-S ) :   0.3878 B(  9-C , 11-P ) :  -0.0820 
B(  9-C , 29-H ) :   0.7634 B(  9-C , 30-H ) :   0.8212 B( 10-S , 11-P ) :   0.7239 
B( 10-S , 12-S ) :  -0.1095 B( 10-S , 13-O ) :  -0.1325 B( 10-S , 16-O ) :  -0.0849 
B( 10-S , 29-H ) :  -0.0660 B( 10-S , 30-H ) :  -0.0539 B( 11-P , 12-S ) :   1.2082 
B( 11-P , 13-O ) :   0.6861 B( 11-P , 14-C ) :  -0.2412 B( 11-P , 16-O ) :   0.6736 
B( 11-P , 17-C ) :  -0.1547 B( 12-S , 13-O ) :  -0.0910 B( 12-S , 16-O ) :  -0.0988 
B( 13-O , 14-C ) :   0.2932 B( 13-O , 15-C ) :  -0.0886 B( 13-O , 16-O ) :  -0.2510 
B( 13-O , 31-H ) :  -0.0789 B( 13-O , 32-H ) :  -0.0865 B( 14-C , 15-C ) :   0.4827 
B( 14-C , 31-H ) :   0.7630 B( 14-C , 32-H ) :   0.8289 B( 14-C , 33-H ) :  -0.0641 
B( 14-C , 34-H ) :  -0.0620 B( 14-C , 35-H ) :  -0.0765 B( 15-C , 32-H ) :  -0.0511 
B( 15-C , 33-H ) :   0.8310 B( 15-C , 34-H ) :   0.8042 B( 15-C , 35-H ) :   0.8408 
B( 16-O , 17-C ) :   0.3581 B( 16-O , 18-C ) :  -0.1698 B( 16-O , 36-H ) :  -0.0999 
B( 16-O , 37-H ) :  -0.0796 B( 17-C , 18-C ) :   0.4007 B( 17-C , 36-H ) :   0.7979 
B( 17-C , 37-H ) :   0.8831 B( 17-C , 38-H ) :  -0.0863 B( 17-C , 39-H ) :  -0.0628 
B( 17-C , 40-H ) :  -0.0509 B( 18-C , 37-H ) :  -0.1171 B( 18-C , 38-H ) :   0.8433 
B( 18-C , 39-H ) :   0.8055 B( 18-C , 40-H ) :   0.7810 B( 19-H , 20-H ) :  -0.0525 
B( 27-H , 28-H ) :  -0.0508 B( 31-H , 32-H ) :  -0.0691 B( 33-H , 35-H ) :  -0.0506 
B( 38-H , 39-H ) :  -0.0526 


                     *******************************
                     * LOEWDIN POPULATION ANALYSIS *
                     *******************************

----------------------
LOEWDIN ATOMIC CHARGES
----------------------
   0 C :   -0.410217
   1 C :    0.023264
   2 O :   -0.681435
   3 P :    0.380772
   4 S :   -0.155950
   5 O :   -0.702926
   6 C :    0.014086
   7 C :   -0.403778
   8 S :    0.159071
   9 C :   -0.409050
  10 S :    0.145240
  11 P :    0.383329
  12 S :   -0.108066
  13 O :   -0.673358
  14 C :    0.017787
  15 C :   -0.389054
  16 O :   -0.666216
  17 C :    0.028036
  18 C :   -0.409236
  19 H :    0.163281
  20 H :    0.160880
  21 H :    0.167077
  22 H :    0.180950
  23 H :    0.190090
  24 H :    0.181707
  25 H :    0.191013
  26 H :    0.168472
  27 H :    0.164563
  28 H :    0.163063
  29 H :    0.194847
  30 H :    0.200022
  31 H :    0.179748
  32 H :    0.189897
  33 H :    0.163447
  34 H :    0.168699
  35 H :    0.163071
  36 H :    0.191621
  37 H :    0.181607
  38 H :    0.161238
  39 H :    0.163995
  40 H :    0.168413

-------------------------------
LOEWDIN REDUCED ORBITAL CHARGES
-------------------------------
  0 C s       :     2.976423  s :     2.976423
      pz      :     1.154197  p :     3.373343
      px      :     1.162613
      py      :     1.056533
      dz2     :     0.008102  d :     0.060452
      dxz     :     0.014310
      dyz     :     0.013435
      dx2y2   :     0.017144
      dxy     :     0.007461

  1 C s       :     2.875119  s :     2.875119
      pz      :     1.024724  p :     2.979148
      px      :     0.926853
      py      :     1.027571
      dz2     :     0.019139  d :     0.122469
      dxz     :     0.029185
      dyz     :     0.024094
      dx2y2   :     0.030308
      dxy     :     0.019742

  2 O s       :     3.465908  s :     3.465908
      pz      :     1.639849  p :     4.742264
      px      :     1.415055
      py      :     1.687360
      dz2     :     0.084005  d :     0.473263
      dxz     :     0.124792
      dyz     :     0.047843
      dx2y2   :     0.119598
      dxy     :     0.097025

  3 P s       :     4.652973  s :     4.652973
      pz      :     2.872988  p :     8.397465
      px      :     2.731123
      py      :     2.793353
      dz2     :     0.348650  d :     1.568790
      dxz     :     0.331326
      dyz     :     0.343206
      dx2y2   :     0.277178
      dxy     :     0.268430

  4 S s       :     5.564694  s :     5.564694
      pz      :     3.228907  p :    10.448685
      px      :     3.633369
      py      :     3.586408
      dz2     :     0.071947  d :     0.142571
      dxz     :     0.021953
      dyz     :     0.033350
      dx2y2   :     0.007686
      dxy     :     0.007634

  5 O s       :     3.466118  s :     3.466118
      pz      :     1.648573  p :     4.742393
      px      :     1.712994
      py      :     1.380826
      dz2     :     0.079978  d :     0.494416
      dxz     :     0.046985
      dyz     :     0.136866
      dx2y2   :     0.123445
      dxy     :     0.107142

  6 C s       :     2.875467  s :     2.875467
      pz      :     1.116282  p :     2.988441
      px      :     1.077066
      py      :     0.795093
      dz2     :     0.018511  d :     0.122006
      dxz     :     0.020145
      dyz     :     0.020989
      dx2y2   :     0.034715
      dxy     :     0.027646

  7 C s       :     2.974792  s :     2.974792
      pz      :     1.158493  p :     3.368479
      px      :     1.073286
      py      :     1.136700
      dz2     :     0.012349  d :     0.060506
      dxz     :     0.017970
      dyz     :     0.004739
      dx2y2   :     0.017243
      dxy     :     0.008206

  8 S s       :     5.439832  s :     5.439832
      pz      :     3.413640  p :    10.113153
      px      :     3.357518
      py      :     3.341994
      dz2     :     0.050324  d :     0.287944
      dxz     :     0.070480
      dyz     :     0.054922
      dx2y2   :     0.057304
      dxy     :     0.054913

  9 C s       :     3.014372  s :     3.014372
      pz      :     1.085451  p :     3.313635
      px      :     1.053389
      py      :     1.174795
      dz2     :     0.008609  d :     0.081042
      dxz     :     0.022043
      dyz     :     0.019496
      dx2y2   :     0.021990
      dxy     :     0.008904

 10 S s       :     5.436883  s :     5.436883
      pz      :     3.643177  p :    10.121595
      px      :     3.157084
      py      :     3.321335
      dz2     :     0.035806  d :     0.296282
      dxz     :     0.054564
      dyz     :     0.038025
      dx2y2   :     0.094911
      dxy     :     0.072977

 11 P s       :     4.656946  s :     4.656946
      pz      :     2.751382  p :     8.384396
      px      :     2.752559
      py      :     2.880455
      dz2     :     0.378074  d :     1.575329
      dxz     :     0.232887
      dyz     :     0.304635
      dx2y2   :     0.358396
      dxy     :     0.301337

 12 S s       :     5.561934  s :     5.561934
      pz      :     3.556826  p :    10.396582
      px      :     3.498148
      py      :     3.341608
      dz2     :     0.016298  d :     0.149549
      dxz     :     0.023836
      dyz     :     0.034175
      dx2y2   :     0.031529
      dxy     :     0.043710

 13 O s       :     3.460136  s :     3.460136
      pz      :     1.446477  p :     4.734211
      px      :     1.542552
      py      :     1.745182
      dz2     :     0.144987  d :     0.479011
      dxz     :     0.126708
      dyz     :     0.083610
      dx2y2   :     0.056576
      dxy     :     0.067130

 14 C s       :     2.874571  s :     2.874571
      pz      :     0.968167  p :     2.986254
      px      :     0.907730
      py      :     1.110358
      dz2     :     0.026623  d :     0.121388
      dxz     :     0.034339
      dyz     :     0.013619
      dx2y2   :     0.018463
      dxy     :     0.028344

 15 C s       :     2.973796  s :     2.973796
      pz      :     1.056901  p :     3.355015
      px      :     1.148089
      py      :     1.150025
      dz2     :     0.013561  d :     0.060242
      dxz     :     0.016280
      dyz     :     0.008164
      dx2y2   :     0.008992
      dxy     :     0.013245

 16 O s       :     3.457598  s :     3.457598
      pz      :     1.514094  p :     4.735855
      px      :     1.502631
      py      :     1.719130
      dz2     :     0.115411  d :     0.472763
      dxz     :     0.112428
      dyz     :     0.071085
      dx2y2   :     0.098572
      dxy     :     0.075266

 17 C s       :     2.875392  s :     2.875392
      pz      :     0.865029  p :     2.974946
      px      :     1.045510
      py      :     1.064408
      dz2     :     0.034678  d :     0.121626
      dxz     :     0.023555
      dyz     :     0.030482
      dx2y2   :     0.025037
      dxy     :     0.007874

 18 C s       :     2.976545  s :     2.976545
      pz      :     1.091714  p :     3.372439
      px      :     1.158203
      py      :     1.122523
      dz2     :     0.009767  d :     0.060252
      dxz     :     0.012482
      dyz     :     0.014261
      dx2y2   :     0.019418
      dxy     :     0.004324

 19 H s       :     0.792782  s :     0.792782
      pz      :     0.023165  p :     0.043937
      px      :     0.008446
      py      :     0.012326

 20 H s       :     0.794583  s :     0.794583
      pz      :     0.015034  p :     0.044537
      px      :     0.021223
      py      :     0.008280

 21 H s       :     0.788287  s :     0.788287
      pz      :     0.012434  p :     0.044636
      px      :     0.021338
      py      :     0.010865

 22 H s       :     0.776616  s :     0.776616
      pz      :     0.023302  p :     0.042434
      px      :     0.006040
      py      :     0.013092

 23 H s       :     0.769320  s :     0.769320
      pz      :     0.013094  p :     0.040589
      px      :     0.019373
      py      :     0.008123

 24 H s       :     0.776072  s :     0.776072
      pz      :     0.023041  p :     0.042221
      px      :     0.013738
      py      :     0.005442

 25 H s       :     0.768466  s :     0.768466
      pz      :     0.021074  p :     0.040521
      px      :     0.013099
      py      :     0.006348

 26 H s       :     0.786917  s :     0.786917
      pz      :     0.008228  p :     0.044611
      px      :     0.008013
      py      :     0.028371

 27 H s       :     0.791538  s :     0.791538
      pz      :     0.021096  p :     0.043899
      px      :     0.013286
      py      :     0.009517

 28 H s       :     0.792414  s :     0.792414
      pz      :     0.022103  p :     0.044523
      px      :     0.012136
      py      :     0.010284

 29 H s       :     0.758391  s :     0.758391
      pz      :     0.014181  p :     0.046763
      px      :     0.008956
      py      :     0.023626

 30 H s       :     0.747797  s :     0.747797
      pz      :     0.017113  p :     0.052182
      px      :     0.007353
      py      :     0.027716

 31 H s       :     0.778603  s :     0.778603
      pz      :     0.006815  p :     0.041649
      px      :     0.009015
      py      :     0.025818

 32 H s       :     0.767097  s :     0.767097
      pz      :     0.010409  p :     0.043006
      px      :     0.015834
      py      :     0.016763

 33 H s       :     0.792747  s :     0.792747
      pz      :     0.010047  p :     0.043806
      px      :     0.017686
      py      :     0.016073

 34 H s       :     0.786859  s :     0.786859
      pz      :     0.015522  p :     0.044442
      px      :     0.020747
      py      :     0.008173

 35 H s       :     0.793134  s :     0.793134
      pz      :     0.007561  p :     0.043795
      px      :     0.011254
      py      :     0.024980

 36 H s       :     0.767759  s :     0.767759
      pz      :     0.006321  p :     0.040620
      px      :     0.026726
      py      :     0.007573

 37 H s       :     0.776012  s :     0.776012
      pz      :     0.006779  p :     0.042380
      px      :     0.009561
      py      :     0.026040

 38 H s       :     0.794196  s :     0.794196
      pz      :     0.009188  p :     0.044567
      px      :     0.027437
      py      :     0.007941

 39 H s       :     0.792041  s :     0.792041
      pz      :     0.009260  p :     0.043964
      px      :     0.008911
      py      :     0.025793

 40 H s       :     0.786951  s :     0.786951
      pz      :     0.021430  p :     0.044637
      px      :     0.014200
      py      :     0.009006


---------------------------------
LOEWDIN BOND ORDERS (THRESH 0.050000)
---------------------------------
B(  0-C ,  1-C ) :   1.0931 B(  0-C ,  2-O ) :   0.1547 B(  0-C , 19-H ) :   0.9200 
B(  0-C , 20-H ) :   0.9166 B(  0-C , 21-H ) :   0.9121 B(  1-C ,  2-O ) :   1.3023 
B(  1-C ,  3-P ) :   0.0936 B(  1-C , 21-H ) :   0.0510 B(  1-C , 22-H ) :   0.8253 
B(  1-C , 23-H ) :   0.8232 B(  2-O ,  3-P ) :   1.5518 B(  2-O ,  4-S ) :   0.1846 
B(  2-O ,  5-O ) :   0.2266 B(  2-O ,  8-S ) :   0.1513 B(  2-O , 22-H ) :   0.0982 
B(  2-O , 23-H ) :   0.1011 B(  3-P ,  4-S ) :   1.9974 B(  3-P ,  5-O ) :   1.5602 
B(  3-P ,  6-C ) :   0.0949 B(  3-P ,  8-S ) :   1.2481 B(  3-P ,  9-C ) :   0.0846 
B(  4-S ,  5-O ) :   0.1731 B(  4-S ,  8-S ) :   0.1467 B(  4-S ,  9-C ) :   0.0503 
B(  5-O ,  6-C ) :   1.2921 B(  5-O ,  7-C ) :   0.1533 B(  5-O ,  8-S ) :   0.1689 
B(  5-O , 12-S ) :   0.0512 B(  5-O , 24-H ) :   0.0976 B(  5-O , 25-H ) :   0.1013 
B(  6-C ,  7-C ) :   1.0954 B(  6-C , 24-H ) :   0.8230 B(  6-C , 25-H ) :   0.8223 
B(  6-C , 26-H ) :   0.0512 B(  7-C , 26-H ) :   0.9114 B(  7-C , 27-H ) :   0.9189 
B(  7-C , 28-H ) :   0.9136 B(  8-S ,  9-C ) :   1.2657 B(  8-S , 10-S ) :   0.1959 
B(  8-S , 29-H ) :   0.0593 B(  8-S , 30-H ) :   0.0561 B(  9-C , 10-S ) :   1.3376 
B(  9-C , 11-P ) :   0.0825 B(  9-C , 29-H ) :   0.8466 B(  9-C , 30-H ) :   0.8235 
B( 10-S , 11-P ) :   1.2303 B( 10-S , 12-S ) :   0.1540 B( 10-S , 13-O ) :   0.1538 
B( 10-S , 16-O ) :   0.1390 B( 10-S , 29-H ) :   0.0610 B( 10-S , 30-H ) :   0.0599 
B( 11-P , 12-S ) :   2.0066 B( 11-P , 13-O ) :   1.5620 B( 11-P , 14-C ) :   0.0999 
B( 11-P , 16-O ) :   1.5790 B( 11-P , 17-C ) :   0.0986 B( 12-S , 13-O ) :   0.1785 
B( 12-S , 16-O ) :   0.1789 B( 13-O , 14-C ) :   1.2820 B( 13-O , 15-C ) :   0.1782 
B( 13-O , 16-O ) :   0.2633 B( 13-O , 31-H ) :   0.0972 B( 13-O , 32-H ) :   0.0953 
B( 14-C , 15-C ) :   1.0908 B( 14-C , 31-H ) :   0.8258 B( 14-C , 32-H ) :   0.8146 
B( 14-C , 34-H ) :   0.0504 B( 15-C , 33-H ) :   0.9184 B( 15-C , 34-H ) :   0.9136 
B( 15-C , 35-H ) :   0.9198 B( 16-O , 17-C ) :   1.2926 B( 16-O , 18-C ) :   0.1544 
B( 16-O , 36-H ) :   0.1006 B( 16-O , 37-H ) :   0.0971 B( 17-C , 18-C ) :   1.0941 
[...]
38 H  px              0.1       0.0       0.0       0.0       0.0       0.0
40 H  pz              0.2       0.0       0.0       0.0       0.0       0.0

                    522       523       524       525       526       527   
                  18.86242  18.94964  19.00515  19.11809  21.92911  21.96752
                   0.00000   0.00000   0.00000   0.00000   0.00000   0.00000
                  --------  --------  --------  --------  --------  --------
 0 C  s               0.0       0.0       0.0       0.0       0.7      36.0
 1 C  s               0.0       0.0       0.0       0.0       0.0       1.0
 3 P  s               0.2       0.1       0.0       0.1       0.0       0.0
 3 P  pz              0.2       0.1       0.0       0.0       0.0       0.0
 4 S  s              70.5      25.3       3.0       0.2       0.0       0.0
 4 S  pz              0.1       0.0       0.0       0.0       0.0       0.0
 6 C  s               0.0       0.0       0.0       0.0       0.1       0.4
 7 C  s               0.0       0.0       0.0       0.0       0.8      56.2
 8 S  s               0.2       0.0      13.8      84.9       0.0       0.0
 9 C  s               0.0       0.1       0.1       0.6       0.0       4.5
10 S  s               6.3      44.6      42.6       5.5       0.0       0.0
11 P  s               0.0       0.0       0.2       0.0       0.0       0.0
12 S  s              22.2      29.2      39.5       8.1       0.0       0.0
14 C  s               0.0       0.0       0.0       0.0      11.5       0.2
15 C  s               0.0       0.0       0.0       0.0      86.0       1.1
17 C  s               0.0       0.0       0.0       0.0       0.5       0.1

                    528       529       530       531       532       533   
                  21.98848  22.01066  22.02682  22.06263  22.06762  22.07635
                   0.00000   0.00000   0.00000   0.00000   0.00000   0.00000
                  --------  --------  --------  --------  --------  --------
 0 C  s               0.9      60.8       0.5       0.0       0.0       0.0
 1 C  s               0.1       0.0       3.9      25.6      28.7       0.4
 6 C  s               0.0       0.1       0.2      25.8      15.3       6.3
 7 C  s               0.0      37.8       2.7       0.7       0.0       0.0
 8 S  s               0.0       0.0       0.1       0.0       0.0       0.0
 9 C  s               6.8       0.2      73.5       4.3       0.2       7.8
14 C  s               0.0       0.0       0.2      35.5      32.9      18.9
15 C  s               0.1       0.0       0.0       5.0       6.2       1.1
17 C  s               0.0       0.0      12.4       2.4      16.1      64.4
18 C  s              91.7       0.6       6.1       0.3       0.2       0.5

                    534       535       536       537       538   
                  22.09686  43.82159  43.82878  43.88327  43.93740
                   0.00000   0.00000   0.00000   0.00000   0.00000
                  --------  --------  --------  --------  --------
 0 C  s               0.7       0.0       0.0       0.0       0.0
 1 C  s              39.8       0.0       0.0       0.0       0.0
 2 O  s               0.0      49.5      30.5      19.9       0.1
 5 O  s               0.0       7.9      12.9      78.6       0.4
 6 C  s              51.4       0.0       0.0       0.0       0.0
 7 C  s               1.2       0.0       0.0       0.0       0.0
 9 C  s               2.1       0.0       0.0       0.0       0.0
13 O  s               0.0      22.5      30.2       0.1      47.2
14 C  s               0.3       0.0       0.0       0.0       0.0
16 O  s               0.0      20.0      26.3       1.4      52.2
17 C  s               3.8       0.0       0.0       0.0       0.0
18 C  s               0.2       0.0       0.0       0.0       0.0


                      *****************************
                      * MAYER POPULATION ANALYSIS *
                      *****************************

  NA   - Mulliken gross atomic population
  ZA   - Total nuclear charge
  QA   - Mulliken gross atomic charge
  VA   - Mayer's total valence
  BVA  - Mayer's bonded valence
  FA   - Mayer's free valence

  ATOM       NA         ZA         QA         VA         BVA        FA
  0 C      6.4762     6.0000    -0.4762     3.7390     3.7390    -0.0000
  1 C      6.1581     6.0000    -0.1581     3.6648     3.6648    -0.0000
  2 O      8.3192     8.0000    -0.3192     1.7991     1.7991     0.0000
  3 P     14.2949    15.0000     0.7051     5.2176     5.2176     0.0000
  4 S     16.5174    16.0000    -0.5174     1.9959     1.9959    -0.0000
  5 O      8.3114     8.0000    -0.3114     1.8541     1.8541    -0.0000
  6 C      6.1524     6.0000    -0.1524     3.6455     3.6455     0.0000
  7 C      6.4920     6.0000    -0.4920     3.7686     3.7686     0.0000
  8 S     16.1390    16.0000    -0.1390     2.1943     2.1943    -0.0000
  9 C      6.2064     6.0000    -0.2064     3.6543     3.6543     0.0000
 10 S     16.1354    16.0000    -0.1354     2.1964     2.1964    -0.0000
 11 P     14.3259    15.0000     0.6741     5.1877     5.1877     0.0000
 12 S     16.4616    16.0000    -0.4616     2.0376     2.0376     0.0000
 13 O      8.3078     8.0000    -0.3078     1.8697     1.8697     0.0000
 14 C      6.1099     6.0000    -0.1099     3.5547     3.5547     0.0000
 15 C      6.5103     6.0000    -0.5103     3.8542     3.8542     0.0000
 16 O      8.3476     8.0000    -0.3476     1.8661     1.8661     0.0000
 17 C      6.1483     6.0000    -0.1483     3.6466     3.6466    -0.0000
 18 C      6.4777     6.0000    -0.4777     3.7410     3.7410     0.0000
 19 H      0.8338     1.0000     0.1662     0.9570     0.9570    -0.0000
 20 H      0.8289     1.0000     0.1711     0.9575     0.9575    -0.0000
 21 H      0.8286     1.0000     0.1714     0.9576     0.9576     0.0000
 22 H      0.8228     1.0000     0.1772     0.9500     0.9500     0.0000
 23 H      0.8262     1.0000     0.1738     0.9443     0.9443    -0.0000
 24 H      0.8237     1.0000     0.1763     0.9506     0.9506     0.0000
 25 H      0.8219     1.0000     0.1781     0.9437     0.9437     0.0000
 26 H      0.8283     1.0000     0.1717     0.9568     0.9568    -0.0000
 27 H      0.8304     1.0000     0.1696     0.9568     0.9568    -0.0000
 28 H      0.8300     1.0000     0.1700     0.9581     0.9581     0.0000
 29 H      0.7659     1.0000     0.2341     0.9190     0.9190     0.0000
 30 H      0.7885     1.0000     0.2115     0.9712     0.9712     0.0000
 31 H      0.8282     1.0000     0.1718     0.9421     0.9421    -0.0000
 32 H      0.8212     1.0000     0.1788     0.9491     0.9491    -0.0000
 33 H      0.8339     1.0000     0.1661     0.9563     0.9563    -0.0000
 34 H      0.8307     1.0000     0.1693     0.9576     0.9576     0.0000
 35 H      0.8334     1.0000     0.1666     0.9562     0.9562     0.0000
 36 H      0.8239     1.0000     0.1761     0.9438     0.9438     0.0000
 37 H      0.8213     1.0000     0.1787     0.9503     0.9503    -0.0000
 38 H      0.8282     1.0000     0.1718     0.9564     0.9564     0.0000
 39 H      0.8317     1.0000     0.1683     0.9562     0.9562    -0.0000
 40 H      0.8269     1.0000     0.1731     0.9575     0.9575     0.0000

  Mayer bond orders larger than 0.100000
B(  0-C ,  1-C ) :   0.9087 B(  0-C , 19-H ) :   0.9647 B(  0-C , 20-H ) :   0.9664 
B(  0-C , 21-H ) :   0.9546 B(  1-C ,  2-O ) :   0.8095 B(  1-C , 22-H ) :   0.9662 
B(  1-C , 23-H ) :   0.9487 B(  2-O ,  3-P ) :   1.0619 B(  3-P ,  4-S ) :   1.6934 
B(  3-P ,  5-O ) :   1.1657 B(  3-P ,  8-S ) :   1.1362 B(  5-O ,  6-C ) :   0.8018 
B(  6-C ,  7-C ) :   0.9066 B(  6-C , 24-H ) :   0.9612 B(  6-C , 25-H ) :   0.9494 
B(  7-C , 26-H ) :   0.9536 B(  7-C , 27-H ) :   0.9696 B(  7-C , 28-H ) :   0.9615 
B(  8-S ,  9-C ) :   0.8759 B(  9-C , 10-S ) :   0.9095 B(  9-C , 29-H ) :   0.8969 
B(  9-C , 30-H ) :   0.9065 B( 10-S , 11-P ) :   1.0792 B( 11-P , 12-S ) :   1.7466 
B( 11-P , 13-O ) :   1.1354 B( 11-P , 16-O ) :   1.1306 B( 13-O , 14-C ) :   0.7637 
B( 14-C , 15-C ) :   0.9396 B( 14-C , 31-H ) :   0.9325 B( 14-C , 32-H ) :   0.9396 
B( 15-C , 33-H ) :   0.9721 B( 15-C , 34-H ) :   0.9584 B( 15-C , 35-H ) :   0.9722 
B( 16-O , 17-C ) :   0.8057 B( 17-C , 18-C ) :   0.9090 B( 17-C , 36-H ) :   0.9502 
B( 17-C , 37-H ) :   0.9663 B( 18-C , 38-H ) :   0.9645 B( 18-C , 39-H ) :   0.9651 
B( 18-C , 40-H ) :   0.9537 

-------
TIMINGS
-------

Total SCF time: 0 days 0 hours 1 min 49 sec 

Total time                  ....     109.569 sec
Sum of individual times     ....     109.032 sec  ( 99.5%)

SCF preparation             ....       0.787 sec  (  0.7%)
Fock matrix formation       ....     104.999 sec  ( 95.8%)
  Startup                   ....       0.160 sec  (  0.2% of F)
  Split-RI-J                ....      25.179 sec  ( 24.0% of F)
  XC integration            ....      47.627 sec  ( 45.4% of F)
    Basis function eval.    ....       7.597 sec  ( 16.0% of XC)
    Density eval.           ....      17.822 sec  ( 37.4% of XC)
    XC-Functional eval.     ....       3.456 sec  (  7.3% of XC)
    XC-Potential eval.      ....      17.550 sec  ( 36.8% of XC)
  CPCM terms                ....      30.615 sec  ( 29.2% of F)
Diagonalization             ....       0.000 sec  (  0.0%)
Density matrix formation    ....       0.869 sec  (  0.8%)
Total Energy calculation    ....       0.067 sec  (  0.1%)
Population analysis         ....       0.460 sec  (  0.4%)
Orbital Transformation      ....       0.246 sec  (  0.2%)
Orbital Orthonormalization  ....       0.000 sec  (  0.0%)
DIIS solution               ....       1.387 sec  (  1.3%)
  MO trafo                  ....       0.000 sec  (  0.0 % of DIIS)
  Orb grad                  ....       0.000 sec  (  0.0 % of DIIS)
  Energy W gradient         ....       0.000 sec  (  0.0 % of DIIS)
  DIIS error                ....       0.113 sec  (  8.1 % of DIIS)
  DIIS work                 ....       1.124 sec  ( 81.0 % of DIIS)
  Form Q                    ....       0.000 sec  (  0.0 % of DIIS)
  Form QpQm                 ....       0.000 sec  (  0.0 % of DIIS)
  Exp/Cayley                ....       0.000 sec  (  0.0 % of DIIS)
  Orb update                ....       0.000 sec  (  0.0 % of DIIS)
  Wake-sleep                ....       0.023 sec  (  1.7 % of DIIS)
SOSCF solution              ....       0.216 sec  (  0.2%)
  MO trafo                  ....       0.162 sec  ( 74.8 % of SOSCF)
  Orb grad                  ....       0.011 sec  (  5.2 % of SOSCF)
  Rot update                ....       0.000 sec  (  0.1 % of SOSCF)
  Step                      ....       0.043 sec  ( 19.8 % of SOSCF)
Finished LeanSCF after 109.8 sec

Maximum memory used throughout the entire LEANSCF-calculation: 126.3 MB


-------------------------------------------------------------------------------
                          DFT DISPERSION CORRECTION                            
                                                                               
                                DFTD4 V3.4.0                                   
-------------------------------------------------------------------------------
The R2SCAN3C composite method is recognized
Using three-body term ABC
Active option DFTDOPT                   ...         5   

-------------------------   ----------------
Dispersion correction           -0.021906435
-------------------------   ----------------

------------------   -----------------
gCP correction             0.046535149
------------------   -----------------

-------------------------   --------------------
FINAL SINGLE POINT ENERGY     -2932.467946940324
-------------------------   --------------------


------------------------------------------------------------------------------
                              ORCA PROPERTY CALCULATIONS
------------------------------------------------------------------------------

GBWName                                 ... sp_solv.gbw
Number of atoms                         ...     41
Number of basis functions               ...    539
Max core memory                         ...   1024 MB

Electric properties:
Dipole moment                           ... YES
Quadrupole moment                       ...  NO
Static polarizability (Dipole/Dipole)   ...  NO
Static polarizability (Dipole/Quad.)    ...  NO
Static polarizability (Quad./Quad.)     ...  NO
Static polarizability (Velocity)        ...  NO

Atomic electric properties:
Dipole moment                           ...  NO
Quadrupole moment                       ...  NO
Static polarizability                   ...  NO

Choice of electric origin               ... Center of mass
Position of electric origin             ...     0.000005     0.000000    -0.000004

General magnetic properties:
Magnetizability                         ...  NO

EPR properties:
g-Tensor (aka g-matrix)                 ...  NO
Zero-Field splitting spin-orbit         ...  NO
Zero-field splitting spin-spin          ...  NO
Hyperfine couplings                     ...  NO (   0 nuclei)
Quadrupole couplings                    ...  NO (   0 nuclei)
Contact density                         ...  NO (   0 nuclei)

NMR properties:
Chemical shifts                         ...  NO (   0 nuclei)
Spin-rotation constants                 ...  NO (   0 nuclei)
Spin-spin couplings                     ...  NO (   0 nuclei,    0 pairs)

Choice of magnetic origin               ... GIAO
Position of magnetic origin             ...     0.000000     0.000000     0.000000

Properties with geometric perturbations:
SCF Hessian                             ...  NO
IR spectrum                             ...  NO
VCD spectrum                            ...  NO
X-ray spectroscopy properties:
SCF XES/XAS/RIXS spectra                ...  NO


-------------
DIPOLE MOMENT
-------------

Method             : SCF
Type of density    : Electron Density
Multiplicity       :   1
Irrep              :   0
Energy             : -2932.4925756541010742 Eh
Relativity type    : 
Basis              : AO
                                X                 Y                 Z
Electronic contribution:     -5.660542767      -5.305706285      -3.430521396
Nuclear contribution   :      6.284749718       4.786819486       3.911195581
                        -----------------------------------------
Total Dipole Moment    :      0.624206951      -0.518886799       0.480674185
                        -----------------------------------------
Magnitude (a.u.)       :      0.943358627
Magnitude (Debye)      :      2.397827073



--------------------
Rotational spectrum 
--------------------
 
Rotational constants in cm-1:             0.011797             0.005188             0.004921 
Rotational constants in MHz :           353.657982           155.526587           147.540023 

Dipole components along the rotational axes: 
x,y,z [a.u.] :     0.531639     0.018624     0.779063 
x,y,z [Debye]:     1.351318     0.047339     1.980220 

 

Dipole moment calculation done in   0.1 sec 

Maximum memory used throughout the entire PROP-calculation: 51.6 MB

--------------------------------
SUGGESTED CITATIONS FOR THIS RUN
--------------------------------

Below you find a list of papers that are relevant to this ORCA run
We neither can nor want to force you to cite these papers, but we appreciate if you do
You receive ORCA, which is the product of decades of hard work by many enthusiastic individuals, for free
The only thing we kindly ask in return is that you cite our papers,
We deeply appreciate it, if you show your appreciation for ORCA by not just citing the generic ORCA reference.

Please note that relegating all ORCA citations to the supporting information does *not* help us.
SI sections are not indexed - citations you put there will not count into any citation statistics
But we need these citations in order to attract the funding resources that allow us to do what we are doing

Therefore, if you are a happy ORCA user, please consider citing a few of the papers listed below in the main body of your paper

In addition to the list printed below, the program has created the file sp_solv.bibtex that contains the list in bibtex format
You can import this file easily into all common literature databanks and citation aid programs


List of essential papers. We consider these as the minimum necessary citations

  1. Neese,F.
     Software update: the ORCA program system, version 5.0
     WIRES Comput. Molec. Sci., 2022 12(1)e1606
     doi.org/10.1002/wcms.1606
  2. Grimme,S.; Hansen,A.; Ehlert,S.; Mewes,J.
     r2SCAN-3c: A 'Swiss army knife' composite electronic-structure method
     J. Chem. Phys., 2021 154 064103
     doi.org/10.1063/5.0040021

List of papers to cite with high priority. The work reported in these papers was absolutely
necessary for this run to complete.
Our perspective: the developers of density functionals and basis sets usually get cited in chemistry papers
Good! But without the algorithms to do something with them, the functionals or basis sets would not do anything.
Hence, in our opinion, the algorithm design and method developments papers are equally worthy of getting cited

  1. Neese,F.
     An improvement of the resolution of the identity approximation for the formation of the Coulomb matrix
     J. Comp. Chem., 2003 24(14)1740-1747
     doi.org/10.1002/jcc.10318
  2. Garcia-Rates,M.; Neese,F.
     Effect of the Solute Cavity on the Solvation Energy and its Derivatives within the Framework of the Gaussian Charge Scheme
     J. Comput. Chem., 2020 41 922-939
     doi.org/10.1002/jcc.26139
  3. Neese,F.
     The SHARK Integral Generation and Digestion System
     J. Comp. Chem., 2022  1-16
     doi.org/10.1002/jcc.26942
  4. Lehtola,S.; Steigemann,C.; Oliveira,M.; Marques,M.
     Recent developments in Libxc - A comprehensive library of functionals for density functional theory
     Software X, 2018 7 
     doi.org/10.1016/j.softx.2017.11.002
  5. Caldeweyher,E.; Bannwarth,C.; Grimme,S.
     Extension of the D3 dispersion coefficient model
     J. Chem. Phys., 2017 147 034112-XXXX
     doi.org/10.1063/1.4993215
  6. Caldeweyher,E.; Ehlert,S.; Hansen,A.; Neugebauer,H.; Spicher,S.; Bannwarth,C.; Grimme,S.
     A generally applicable atomic-charge dependent London dispersion correction
     J. Chem. Phys., 2019 150 154122-XXXX
     doi.org/10.1063/1.5090222
  7. Caldeweyher,E.; Mewes,J.; Ehlert,S.; Grimme,S.
     Extension and evaluation of the D4 London-dispersion model for periodic systems
     Phys. Chem. Chem. Phys., 2020 22(16)8499-8512
     doi.org/10.1039/D0CP00502A

List of suggested additional citations. These are papers that are important in the 'surrounding' of 
of this run, or papers that preceded the highly important papers. If you like your results we are grateful for a citation.

  1. Neese,F.
     The ORCA program system
     WIRES Comput. Molec. Sci., 2012 2(1)73-78
     doi.org/10.1002/wcms.81
  2. Neese,F.
     Software update: the ORCA program system, version 4.0
     WIRES Comput. Molec. Sci., 2018 8(1)1-6
     doi.org/10.1002/wcms.1327
  3. Neese,F.; Wennmohs,F.; Becker,U.; Riplinger,C.
     The ORCA quantum chemistry program package
     J. Chem. Phys., 2020 152 Art. No. L224108
     doi.org/10.1063/5.0004608

List of optional additional citations

  1. Neese,F.
     Approximate second-order SCF convergence for spin unrestricted wavefunctions
     Chem. Phys. Lett., 2000 325(1-3)93-98
     doi.org/10.1016/s0009-2614(00)00662-x

Timings for individual modules:

Sum of individual times          ...      113.575 sec (=   1.893 min)
Startup calculation              ...        2.953 sec (=   0.049 min)   2.6 %
SCF iterations                   ...      110.416 sec (=   1.840 min)  97.2 %
Property calculations            ...        0.206 sec (=   0.003 min)   0.2 %
                             ****ORCA TERMINATED NORMALLY****
TOTAL RUN TIME: 0 days 0 hours 1 minutes 54 seconds 390 msec
