41
 energy: -2932.486666623528 gnorm: 0.001437170169 xtb: 6.7.1 (edcfbbe)
C            5.36779789615697       -2.12977711019984       -1.54061120961492
C            4.57195434775033       -0.88798217453910       -1.23211690953181
O            3.42744004607369       -1.30102048319993       -0.40777853914188
P            2.34589001376062       -0.21767406712869        0.09992626483284
S            3.03018257773215        1.45066468000566        0.83295092446350
O            1.44767423341413       -1.13076462282227        1.06630489679293
C            1.66895610907449       -1.18493558791647        2.51932857998628
C            2.90431804855088       -1.97734491672017        2.86849948845996
S            1.11548086572830       -0.05500875443857       -1.61855771663188
C            0.23028856086249        1.51211726717613       -1.25926897915313
S           -0.92848379641639        1.50871388752876        0.16269297045965
P           -2.49247082381886        0.27467250526056       -0.58617014429596
S           -2.87974586177250        0.47884691693841       -2.47974853650196
O           -3.65190361089001        0.61265938511736        0.47748877848061
C           -4.38552529689674        1.88572078726325        0.43125278893846
C           -5.51494138188040        1.78186398449392        1.42304668663313
O           -2.16018093167335       -1.24756827056741       -0.22103684742667
C           -1.86548728687889       -1.68877102304305        1.15659698598552
C           -3.06738558042619       -2.38243402353755        1.74601380276300
H            6.23127869564966       -1.85199182624932       -2.15264042572825
H            5.73220159236407       -2.59809281302236       -0.62150320736345
H            4.76699521667342       -2.85385969670855       -2.09837632849906
H            4.19186051744420       -0.41307152561880       -2.14314430914935
H            5.15704145916547       -0.15961991114797       -0.66231897825409
H            1.71447508044367       -0.15927262103370        2.89809036121284
H            0.76214294453726       -1.66383072254856        2.89502582290659
H            3.81583673336154       -1.47347886407298        2.53337970639860
H            2.95535542950326       -2.08365100358060        3.95698653471953
H            2.86509710488283       -2.97657179728958        2.42555585942566
H           -0.31831868895903        1.75703801382678       -2.17372323378688
H            0.95785013277653        2.29986098016073       -1.04422329320331
H           -3.69168371664369        2.69279436985721        0.68800854650307
H           -4.75211872484756        2.03352052618287       -0.58958737009617
H           -6.06568052648478        2.72712748539587        1.43108787212751
H           -6.20602456916558        0.98061969432571        1.14647560676729
H           -5.13472453922247        1.59581363998675        2.43148908601700
H           -1.01841818405924       -2.36903947809705        1.04839127491413
H           -1.54959080572906       -0.82827176067425        1.75479341276305
H           -3.90806447562855       -1.69474469989110        1.86734029210821
H           -3.37849326123548       -3.22287891786056        1.11908355301270
H           -2.79514274596722       -2.77295075369839        2.73214495688092
41
 energy: -2932.486667307877 gnorm: 0.001522004775 xtb: 6.7.1 (edcfbbe)
C            5.36636128704574       -2.12852148206391       -1.54105137065136
C            4.57109581859235       -0.88719177126909       -1.23131608055528
O            3.42658010982860       -1.30114983329248       -0.40681823340733
P            2.34421141864806       -0.21875499421934        0.10036116795099
S            3.02851635110737        1.45030705809331        0.83295227166211
O            1.44686534624161       -1.13169820204518        1.06723076764363
C            1.66887925320519       -1.18599319180285        2.52028268402783
C            2.90461069832831       -1.97802499417532        2.86882258734083
S            1.11366626188968       -0.05442673037832       -1.61809336165914
C            0.22744419375214        1.51206518247557       -1.25925156613716
S           -0.92617322801468        1.50886475216038        0.16652876631880
P           -2.48963456859965        0.27625071828492       -0.58767820474393
S           -2.88404994890469        0.47439054118750       -2.48050675116140
O           -3.64811857994839        0.61410907407607        0.47722073550672
C           -4.38405803989281        1.88626748079510        0.43031679480087
C           -5.51267685071887        1.78225211257892        1.42243021787509
O           -2.15778853479074       -1.24624191163425       -0.22187347187227
C           -1.86479749593516       -1.68868402212986        1.15636817458751
C           -3.06702332011817       -2.38225842586957        1.74530849209386
H            6.23037645478287       -1.85125817743624       -2.15253798376660
H            5.72976713179323       -2.59772655658609       -0.62243033602459
H            4.76518328805931       -2.85144348330074       -2.09927587092304
H            4.19059750620470       -0.41154008490749       -2.14140053627962
H            5.15591008442994       -0.15932898619700       -0.66122848978081
H            1.71412887251332       -0.16034005514360        2.89902028062706
H            0.76246054653710       -1.66542440410304        2.89615847331287
H            3.81577613559555       -1.47442591832328        2.53220861021717
H            2.95663330136528       -2.08268856243881        3.95751476509109
H            2.86505034143324       -2.97794911505724        2.42739845587935
H           -0.32083737538442        1.75760764343039       -2.17380524706908
H            0.95604792108240        2.29903956648219       -1.04475052815710
H           -3.69104560013715        2.69390246820677        0.68597051027215
H           -4.75108517215630        2.03239763764646       -0.59024041986411
H           -6.06646612315566        2.72604050700341        1.42782043769322
H           -6.20120807622083        0.97822934729105        1.14809745188680
H           -5.13157213135284        1.60012638500540        2.43121615259863
H           -1.01857442983628       -2.36989700587136        1.04819744899802
H           -1.54843785136329       -0.82907568929203        1.75550941532471
H           -3.90774435803142       -1.69464825387055        1.86646309064302
H           -3.37784757126206       -3.22280616097715        1.11842451191638
H           -2.79528045863214       -2.77291206349773        2.73159744223390
41
 energy: -2932.486677351957 gnorm: 0.000627792348 xtb: 6.7.1 (edcfbbe)
C            5.36446255078317       -2.12715583229798       -1.54148597361522
C            4.56996200264387       -0.88595754706797       -1.23060082816674
O            3.42524488137789       -1.30050304966131       -0.40613315486530
P            2.34256065433003       -0.21874918387071        0.10092259664328
S            3.02657609452997        1.45050367900676        0.83400686035667
O            1.44579943907006       -1.13184473065157        1.06781180929178
C            1.66857472631739       -1.18690105237156        2.52092682455702
C            2.90468790704296       -1.97857832699650        2.86886138998920
S            1.11371972087000       -0.05583261737185       -1.61895443424805
C            0.23037262373556        1.51257927030971       -1.26120197938782
S           -0.92557544838439        1.50920096220999        0.16187885909185
P           -2.49027711637040        0.27544421567995       -0.58683499109085
S           -2.88234633516891        0.47588191267081       -2.47977061524903
O           -3.64814185597806        0.61385466557747        0.47861339606652
C           -4.38391558725216        1.88631047128454        0.43007875674366
C           -5.51173046207082        1.78291768257137        1.42261279887180
O           -2.15725967464007       -1.24706607994897       -0.22120002803663
C           -1.86421287936922       -1.68978664098737        1.15718265676049
C           -3.06703311809801       -2.38280420082257        1.74544807814986
H            6.22904021240844       -1.85018506928247       -2.15229829340528
H            5.72697913727768       -2.59752952457537       -0.62332811255075
H            4.76297464808170       -2.84891878034918       -2.10053716927839
H            4.18925862725629       -0.40930215186117       -2.13985271539802
H            5.15470184125061       -0.15883594384201       -0.65984642464270
H            1.71361316332554       -0.16136192061918        2.89993304386195
H            0.76250613345890       -1.66689391803059        2.89688732019633
H            3.81553743294527       -1.47535240412264        2.53077580048304
H            2.95779648758936       -2.08169967397097        3.95771517106931
H            2.86474153014870       -2.97916113520128        2.42893060750423
H           -0.31754276467946        1.75819173110010       -2.17595099821472
H            0.95917813264815        2.29929520268928       -1.04650832690259
H           -3.69076865260393        2.69401618776270        0.68446401900267
H           -4.75101201569483        2.03085010598429       -0.59049453118727
H           -6.06801134945506        2.72539709820992        1.42490927780822
H           -6.19799506470163        0.97617811562218        1.15084342298105
H           -5.12972008845791        1.60499353478494        2.43179860948132
H           -1.01854473212998       -2.37155139794594        1.04858657207719
H           -1.54745449003634       -0.83035832603279        1.75633507829557
H           -3.90767422411791       -1.69504175838128        1.86619332168425
H           -3.37764068706692       -3.22341591171739        1.11855813497267
H           -2.79567425815784       -2.77336329679206        2.73190212392010
41
 energy: -2932.486681250719 gnorm: 0.000613409624 xtb: 6.7.1 (edcfbbe)
C            5.36250235053485       -2.12599665326250       -1.54237121036270
C            4.56921282487285       -0.88450431557203       -1.22955391514889
O            3.42513086045422       -1.30027351253157       -0.40469309676366
P            2.34212982227738       -0.21910417781596        0.10225275001978
S            3.02328190570527        1.45117759002278        0.83483425940854
O            1.44489399384797       -1.13233937584800        1.06821598026751
C            1.66785828008905       -1.18823804534888        2.52146337368615
C            2.90451994061384       -1.97927472609329        2.86889548772684
S            1.11408851002343       -0.05684766898601       -1.61793161602312
C            0.23027961808910        1.51190644147458       -1.26218784419375
S           -0.92689470776475        1.51250441409277        0.15961446411471
P           -2.48945749494426        0.27482025266501       -0.58616016674195
S           -2.88060855687283        0.47670818373864       -2.47921503133043
O           -3.64638539344135        0.61389968873899        0.47992064346453
C           -4.38279922262899        1.88612924426432        0.42925271929819
C           -5.50992187660778        1.78363111732308        1.42280621676970
O           -2.15564852235928       -1.24769938710481       -0.22068936970737
C           -1.86329644277098       -1.69069966711903        1.15775625053508
C           -3.06689291354936       -2.38298312005444        1.74523261901510
H            6.22734608528692       -1.84838852495502       -2.15247177883875
H            5.72455499874581       -2.59840579710531       -0.62481361375643
H            4.76042069334883       -2.84629466201667       -2.10306334918594
H            4.18759295437025       -0.40623068032488       -2.13781124618159
H            5.15431031048471       -0.15841335984313       -0.65753546509507
H            1.71257337292798       -0.16287810326130        2.90098659543438
H            0.76206663217557       -1.66884453127066        2.89731571448918
H            3.81496316740283       -1.47657746449571        2.52903233362728
H            2.95906232130063       -2.08073629271888        3.95780912193073
H            2.86415245006507       -2.98050487835750        2.43057094289161
H           -0.31656810604188        1.75690898893168       -2.17771197146957
H            0.95964876140040        2.29841677080223       -1.04852222970729
H           -3.68995066686015        2.69500139631103        0.68152563387876
H           -4.75077888718156        2.02842272474932       -0.59149302697338
H           -6.06935507742981        2.72409679285180        1.42090818626501
H           -6.19379221831701        0.97339223316511        1.15509354436086
H           -5.12731815195047        1.61176990484979        2.43282130152655
H           -1.01794710073824       -2.37286221540354        1.04898006222084
H           -1.54619304241830       -0.83121771097347        1.75660982611279
H           -3.90738114299194       -1.69493436888967        1.86528107309270
H           -3.37735574228074       -3.22364302639315        1.11831835318380
H           -2.79626842471397       -2.77339864119867        2.73192863118644
41
 energy: -2932.486681250719 gnorm: 0.000613409624 xtb: 6.7.1 (edcfbbe)
C            5.36250235053485       -2.12599665326250       -1.54237121036270
C            4.56921282487285       -0.88450431557203       -1.22955391514889
O            3.42513086045422       -1.30027351253157       -0.40469309676366
P            2.34212982227738       -0.21910417781596        0.10225275001978
S            3.02328190570527        1.45117759002278        0.83483425940854
O            1.44489399384797       -1.13233937584800        1.06821598026751
C            1.66785828008905       -1.18823804534888        2.52146337368615
C            2.90451994061384       -1.97927472609329        2.86889548772684
S            1.11408851002343       -0.05684766898601       -1.61793161602312
C            0.23027961808910        1.51190644147458       -1.26218784419375
S           -0.92689470776475        1.51250441409277        0.15961446411471
P           -2.48945749494426        0.27482025266501       -0.58616016674195
S           -2.88060855687283        0.47670818373864       -2.47921503133043
O           -3.64638539344135        0.61389968873899        0.47992064346453
C           -4.38279922262899        1.88612924426432        0.42925271929819
C           -5.50992187660778        1.78363111732308        1.42280621676970
O           -2.15564852235928       -1.24769938710481       -0.22068936970737
C           -1.86329644277098       -1.69069966711903        1.15775625053508
C           -3.06689291354936       -2.38298312005444        1.74523261901510
H            6.22734608528692       -1.84838852495502       -2.15247177883875
H            5.72455499874581       -2.59840579710531       -0.62481361375643
H            4.76042069334883       -2.84629466201667       -2.10306334918594
H            4.18759295437025       -0.40623068032488       -2.13781124618159
H            5.15431031048471       -0.15841335984313       -0.65753546509507
H            1.71257337292798       -0.16287810326130        2.90098659543438
H            0.76206663217557       -1.66884453127066        2.89731571448918
H            3.81496316740283       -1.47657746449571        2.52903233362728
H            2.95906232130063       -2.08073629271888        3.95780912193073
H            2.86415245006507       -2.98050487835750        2.43057094289161
H           -0.31656810604188        1.75690898893168       -2.17771197146957
H            0.95964876140040        2.29841677080223       -1.04852222970729
H           -3.68995066686015        2.69500139631103        0.68152563387876
H           -4.75077888718156        2.02842272474932       -0.59149302697338
H           -6.06935507742981        2.72409679285180        1.42090818626501
H           -6.19379221831701        0.97339223316511        1.15509354436086
H           -5.12731815195047        1.61176990484979        2.43282130152655
H           -1.01794710073824       -2.37286221540354        1.04898006222084
H           -1.54619304241830       -0.83121771097347        1.75660982611279
H           -3.90738114299194       -1.69493436888967        1.86528107309270
H           -3.37735574228074       -3.22364302639315        1.11831835318380
H           -2.79626842471397       -2.77339864119867        2.73192863118644
