      -----------------------------------------------------------      
     |                   =====================                   |     
     |                           x T B                           |     
     |                   =====================                   |     
     |                         S. Grimme                         |     
     |          Mulliken Center for Theoretical Chemistry        |     
     |                    University of Bonn                     |     
      -----------------------------------------------------------      

   * xtb version 6.7.1 (edcfbbe) compiled by 'albert@albert-system' on 2024-07-22

   xtb is free software: you can redistribute it and/or modify it under
   the terms of the GNU Lesser General Public License as published by
   the Free Software Foundation, either version 3 of the License, or
   (at your option) any later version.
   
   xtb is distributed in the hope that it will be useful,
   but WITHOUT ANY WARRANTY; without even the implied warranty of
   MERCHANTABILITY or FITNESS FOR A PARTICULAR PURPOSE.  See the
   GNU Lesser General Public License for more details.
   
   Cite this work as:
   * C. Bannwarth, E. Caldeweyher, S. Ehlert, A. Hansen, P. Pracht,
     J. Seibert, S. Spicher, S. Grimme, WIREs Comput. Mol. Sci., 2020, 11,
     e01493. DOI: 10.1002/wcms.1493
   
   for GFN2-xTB:
   * C. Bannwarth, S. Ehlert and S. Grimme., J. Chem. Theory Comput., 2019,
     15, 1652-1671. DOI: 10.1021/acs.jctc.8b01176
   for GFN1-xTB:
   * S. Grimme, C. Bannwarth, P. Shushkov, J. Chem. Theory Comput., 2017,
     13, 1989-2009. DOI: 10.1021/acs.jctc.7b00118
   for GFN0-xTB:
   * P. Pracht, E. Caldeweyher, S. Ehlert, S. Grimme, ChemRxiv, 2019, preprint.
     DOI: 10.26434/chemrxiv.8326202.v1
   for GFN-FF:
   * S. Spicher and S. Grimme, Angew. Chem. Int. Ed., 2020, 59, 15665-15673.
     DOI: 10.1002/anie.202004239
   
   for ALPB and GBSA implicit solvation:
   * S. Ehlert, M. Stahn, S. Spicher, S. Grimme, J. Chem. Theory Comput.,
     2021, 17, 4250-4261. DOI: 10.1021/acs.jctc.1c00471
   
   for ddCOSMO and CPCM-X implicit solvation:
   * M. Stahn, S. Ehlert, S. Grimme, J. Phys. Chem. A,
     2023, XX, XXXX-XXXX. DOI: 10.1021/acs.jpca.3c04382
   
   for DFT-D4:
   * E. Caldeweyher, C. Bannwarth and S. Grimme, J. Chem. Phys., 2017,
     147, 034112. DOI: 10.1063/1.4993215
   * E. Caldeweyher, S. Ehlert, A. Hansen, H. Neugebauer, S. Spicher,
     C. Bannwarth and S. Grimme, J. Chem. Phys., 2019, 150, 154122.
     DOI: 10.1063/1.5090222
   * E. Caldeweyher, J.-M. Mewes, S. Ehlert and S. Grimme, Phys. Chem. Chem. Phys.
     2020, 22, 8499-8512. DOI: 10.1039/D0CP00502A
   
   for sTDA-xTB:
   * S. Grimme and C. Bannwarth, J. Chem. Phys., 2016, 145, 054103.
     DOI: 10.1063/1.4959605
   
   in the mass-spec context:
   * V. Asgeirsson, C. Bauer and S. Grimme, Chem. Sci., 2017, 8, 4879.
     DOI: 10.1039/c7sc00601b
   * J. Koopman and S. Grimme, ACS Omega 2019, 4, 12, 15120-15133.
     DOI: 10.1021/acsomega.9b02011
   
   for metadynamics refer to:
   * S. Grimme, J. Chem. Theory Comput., 2019, 155, 2847-2862
     DOI: 10.1021/acs.jctc.9b00143
   
   for SPH calculations refer to:
   * S. Spicher and S. Grimme, J. Chem. Theory Comput., 2021, 17, 1701-1714
     DOI: 10.1021/acs.jctc.0c01306
   
   for ONIOM refer to:
   * C. Plett, A. Katbashev, S. Ehlert, S. Grimme, M. Bursch,
     Phys. Chem. Chem. Phys., 2023, 25, 17860-17868. DOI: 10.1039/D3CP02178E
   
   for DIPRO refer to:
   * J. Kohn, N. Gildemeister, S. Grimme, D. Fazzi, A. Hansen,
     J. Chem. Phys., 2023, just accepted.
   
   for PTB refer to:
   * S. Grimme, M. Mueller, A. Hansen, J. Chem. Phys., 2023, 158, 124111.
     DOI: 10.1063/5.0137838
   
   with help from (in alphabetical order)
   P. Atkinson, C. Bannwarth, F. Bohle, G. Brandenburg, E. Caldeweyher
   M. Checinski, S. Dohm, S. Ehlert, S. Ehrlich, I. Gerasimov, C. Hölzer
   A. Katbashev, J. Kohn, J. Koopman, C. Lavigne, S. Lehtola, F. März, M. Müller,
   F. Musil, H. Neugebauer, J. Pisarek, C. Plett, P. Pracht, F. Pultar,
   J. Seibert, P. Shushkov, S. Spicher, M. Stahn, M. Steiner, T. Strunk,
   J. Stückrath, T. Rose, and J. Unsleber
   
 * started run on 2025/04/10 at 21:10:39.986     
   ID    Z sym.   atoms
    1    6 C      1, 2, 7, 8, 10, 15, 16, 18, 19
    2    8 O      3, 6, 14, 17
    3   15 P      4, 12
    4   16 S      5, 9, 11, 13
    5    1 H      20-41

           -------------------------------------------------
          |                Calculation Setup                |
           -------------------------------------------------

          program call               : /srv/scratch/z5358697/.xtb/bin/xtb xtb_opt.coord --opt normal --orca -I xtb_opt-xcontrol-inp
          hostname                   : k163
          coordinate file            : xtb_opt.coord
          omp threads                :                    24

           -------------------------------------------------
          |                   Orca driver                   |
           -------------------------------------------------
orca executable           : /apps/z_install_tree/linux-rocky8-ivybridge/gcc-12.2.0/orca-6.0.0-srtngmq3qlimg2qxbl6avaaiffipurdx/bin/orca
orca input file           : xtb_opt.inp
orca input line           : 
orca parallel             : true
orca number of threads    : 24
                         * ORCA takes the control...
  ------------------------------------------------------------------------

                                 *****************
                                 * O   R   C   A *
                                 *****************

                                            #,                                       
                                            ###                                      
                                            ####                                     
                                            #####                                    
                                            ######                                   
                                           ########,                                 
                                     ,,################,,,,,                         
                               ,,#################################,,                 
                          ,,##########################################,,             
                       ,#########################################, ''#####,          
                    ,#############################################,,   '####,        
                  ,##################################################,,,,####,       
                ,###########''''           ''''###############################       
              ,#####''   ,,,,##########,,,,          '''####'''          '####       
            ,##' ,,,,###########################,,,                        '##       
           ' ,,###''''                  '''############,,,                           
         ,,##''                                '''############,,,,        ,,,,,,###''
      ,#''                                            '''#######################'''  
     '                                                          ''''####''''         
             ,#######,   #######,   ,#######,      ##                                
            ,#'     '#,  ##    ##  ,#'     '#,    #''#        ,####,   ,####,        
            ##       ##  ##   ,#'  ##            #'  '#       #'       #'  '#        
            ##       ##  #######   ##           ,######,      #####,   #    #        
            '#,     ,#'  ##    ##  '#,     ,#' ,#      #,     #,   #   #,  ,#        
             '#######'   ##     ##  '#######'  #'      '#     '####' # '####'        



                #########################################################
                #                        -***-                          #
                #          Department of theory and spectroscopy        #
                #                                                       #
                #                      Frank Neese                      #
                #                                                       #
                #     Directorship, Architecture, Infrastructure        #
                #                    SHARK, DRIVERS                     #
                #        Core code/Algorithms in most modules           #
                #                                                       #
                #        Max Planck Institute fuer Kohlenforschung      #
                #                Kaiser Wilhelm Platz 1                 #
                #                 D-45470 Muelheim/Ruhr                 #
                #                      Germany                          #
                #                                                       #
                #                  All rights reserved                  #
                #                        -***-                          #
                #########################################################


                         Program Version 6.0.0  -   RELEASE  -


 With contributions from (in alphabetic order):
   Daniel Aravena         : Magnetic Suceptibility
   Michael Atanasov       : Ab Initio Ligand Field Theory (pilot matlab implementation)
   Alexander A. Auer      : GIAO ZORA, VPT2 properties, NMR spectrum
   Ute Becker             : All parallelization in ORCA, NUMFREQ, NUMCALC
   Giovanni Bistoni       : ED, misc. LED, open-shell LED, HFLD
   Martin Brehm           : Molecular dynamics
   Dmytro Bykov           : pre 5.0 version of the SCF Hessian
   Marcos Casanova-Páez   : Triplet and SCS-CIS(D). UHF-(DLPNO)-IP/EA/STEOM-CCSD. UHF-CVS-IP/STEOM-CCSD
   Vijay G. Chilkuri      : MRCI spin determinant printing, contributions to CSF-ICE
   Pauline Colinet        : FMM embedding
   Dipayan Datta          : RHF DLPNO-CCSD density
   Achintya Kumar Dutta   : EOM-CC, STEOM-CC
   Nicolas Foglia         : Exact transition moments, OPA infrastructure, MCD improvements
   Dmitry Ganyushin       : Spin-Orbit,Spin-Spin,Magnetic field MRCI
   Miquel Garcia          : C-PCM and meta-GGA Hessian, CCSD/C-PCM, Gaussian charge scheme
   Tiago L. C. Gouveia    : GS-ROHF, GS-ROCIS
   Yang Guo               : DLPNO-NEVPT2, F12-NEVPT2, CIM, IAO-localization
   Andreas Hansen         : Spin unrestricted coupled pair/coupled cluster methods
   Ingolf Harden          : AUTO-CI MPn and infrastructure 
   Benjamin Helmich-Paris : MC-RPA, TRAH-(SCF,CASSCF), AVAS, COSX integrals, SCF dyn. polar.
   Lee Huntington         : MR-EOM, pCC
   Robert Izsak           : Overlap fitted RIJCOSX, COSX-SCS-MP3, EOM
   Riya Kayal             : Wick's Theorem for AUTO-CI, AUTO-CI UHF-CCSDT
   Emily Kempfer          : AUTO-CI, RHF CISDT and CCSDT
   Christian Kollmar      : KDIIS, OOCD, Brueckner-CCSD(T), CCSD density, CASPT2, CASPT2-K, improved NEVPT2
   Axel Koslowski         : Symmetry handling
   Simone Kossmann        : Meta GGA functionals, TD-DFT gradient, OOMP2, (MP2 Hessian; deprecated post 5.0)
   Lucas Lang             : DCDCAS
   Marvin Lechner         : AUTO-CI (C++ implementation), FIC-MRCC
   Spencer Leger          : CASSCF response
   Dagmar Lenk            : GEPOL surface, SMD, ORCA-2-JSON
   Dimitrios Liakos       : Extrapolation schemes; Compound Job, initial MDCI parallelization
   Dimitrios Manganas     : Further ROCIS development; embedding schemes. LFT, Crystal Embedding
   Dimitrios Pantazis     : SARC Basis sets
   Anastasios Papadopoulos: AUTO-CI, single reference methods and gradients
   Taras Petrenko         : pre 6.0 DFT Hessian and TD-DFT gradient, (ASA, deprecated), ECA, 1-Electron XAS/XES, NRVS
   Peter Pinski           : DLPNO-MP2, DLPNO-MP2 Gradient
   Christoph Reimann      : Effective Core Potentials
   Marius Retegan         : Local ZFS, SOC
   Christoph Riplinger    : Optimizer, TS searches, QM/MM, DLPNO-CCSD(T), (RO)-DLPNO pert. Triples
   Michael Roemelt        : Original ROCIS implementation
   Masaaki Saitow         : Open-shell DLPNO-CCSD energy and density
   Barbara Sandhoefer     : DKH picture change effects
   Kantharuban Sivalingam : CASSCF convergence/infrastructure, NEVPT2 and variants, FIC-MRCI
   Bernardo de Souza      : ESD, SOC TD-DFT
   Georgi Stoychev        : AutoAux, RI-MP2 NMR, DLPNO-MP2 response, X2C
   Van Anh Tran           : RI-MP2 g-tensors
   Willem Van den Heuvel  : Paramagnetic NMR
   Zikuan Wang            : NOTCH, Electric field optimization 
   Frank Wennmohs         : Technical directorship and infrastructure
   Hang Xu                : AUTO-CI-Response properties 


 We gratefully acknowledge several colleagues who have allowed us to
 interface, adapt or use parts of their codes:
   Stefan Grimme, W. Hujo, H. Kruse, P. Pracht,  : VdW corrections, initial TS optimization,
                  C. Bannwarth, S. Ehlert,         DFT functionals, gCP, sTDA/sTD-DF
                  L. Wittmann, M. Mueller
   Ed Valeev, F. Pavosevic, A. Kumar             : LibInt (2-el integral package), F12 methods
   Garnet Chan, S. Sharma, J. Yang, R. Olivares  : DMRG
   Ulf Ekstrom                                   : XCFun DFT Library
   Mihaly Kallay                                 : mrcc  (arbitrary order and MRCC methods)
   Frank Weinhold                                : gennbo (NPA and NBO analysis)
   Simon Mueller                                 : openCOSMO-RS
   Christopher J. Cramer and Donald G. Truhlar   : smd solvation model
   Lars Goerigk                                  : TD-DFT with DH, B97 family of functionals
   V. Asgeirsson, H. Jonsson                     : NEB implementation
   FAccTs GmbH                                   : IRC, NEB, NEB-TS, DLPNO-Multilevel, CI-OPT
                                                   MM, QMMM, 2- and 3-layer-ONIOM, Crystal-QMMM,
                                                   LR-CPCM, SF, NACMEs, symmetry and pop. for TD-DFT,
                                                   nearIR, NL-DFT gradient (VV10), updates on ESD,
                                                   ML-optimized integration grids, MBIS, APM,
                                                   GOAT, DOCKER, SOLVATOR, interface openCOSMO-RS
   S Lehtola, MJT Oliveira, MAL Marques          : LibXC Library
   Liviu Ungur et al                             : ANISO software


 Your calculation uses the libint2 library for the computation of 2-el integrals
 For citations please refer to: http://libint.valeyev.net

 Your ORCA version has been built with support for libXC version: 6.2.2
 For citations please refer to: https://libxc.gitlab.io

 This ORCA versions uses:
   CBLAS   interface :  Fast vector & matrix operations
   LAPACKE interface :  Fast linear algebra routines
   SCALAPACK package :  Parallel linear algebra routines
   Shared memory     :  Shared parallel matrices
   BLAS/LAPACK       :  OpenBLAS 0.3.27  USE64BITINT DYNAMIC_ARCH NO_AFFINITY SapphireRapids SINGLE_THREADED
        Core in use  :  SapphireRapids
   Copyright (c) 2011-2014, The OpenBLAS Project




***************************************
The coordinates will be read from file: xtb_opt.xyz
***************************************


Your calculation utilizes the geometrical counterpoise correction gCP
Please cite in your paper:
H.Kruse, S. Grimme J.Chem.Phys., 136, (2012), 154101 
   

Your calculation utilizes the atom-pairwise dispersion correction
based on EEQ partial charges (D4)


Your calculation utilizes the SMD solvation module
Please cite in your paper:
A.V. Marenich, C.J. Cramer, D.G. Truhlar J. Phys. Chem. B, 113, (2009), 6378 

================================================================================

----- Orbital basis set information -----
Your calculation utilizes the basis: def2-mTZVPP
   Stefan Grimme, Andreas Hansen, Sebastian Ehlert, and Jan-Michael Mewes 
   J. Chem. Phys. 154, 064103 (2021). DOI: 10.1063/5.0040021

----- AuxJ basis set information -----
Your calculation utilizes the auxiliary basis: def2/J
   F. Weigend, Phys. Chem. Chem. Phys. 8, 1057 (2006).

================================================================================
                                        WARNINGS
                       Please study these warnings very carefully!
================================================================================

WARNING: Old DensityContainer found on disk!
         Will remove this file - 
         If you want to keep old densities, please start your calculation with a different basename. 

Using LibXC functional ID 497 : Re-regularized SCAN exchange by Furness et al
[ 1]  J. W. Furness, A. D. Kaplan, J. Ning, J. P. Perdew, and J. Sun.,  J. Phys. Chem. Lett. 11, 8208-8215 (2020)
[ 2]  J. W. Furness, A. D. Kaplan, J. Ning, J. P. Perdew, and J. Sun.,  J. Phys. Chem. Lett. 11, 9248-9248 (2020)
Using LibXC functional ID 498 : Re-regularized SCAN correlation by Furness et al
[ 1]  J. W. Furness, A. D. Kaplan, J. Ning, J. P. Perdew, and J. Sun.,  J. Phys. Chem. Lett. 11, 8208-8215 (2020)
[ 2]  J. W. Furness, A. D. Kaplan, J. Ning, J. P. Perdew, and J. Sun.,  J. Phys. Chem. Lett. 11, 9248-9248 (2020)
Using LibXC functional ID 497 : Re-regularized SCAN exchange by Furness et al
[ 1]  J. W. Furness, A. D. Kaplan, J. Ning, J. P. Perdew, and J. Sun.,  J. Phys. Chem. Lett. 11, 8208-8215 (2020)
[ 2]  J. W. Furness, A. D. Kaplan, J. Ning, J. P. Perdew, and J. Sun.,  J. Phys. Chem. Lett. 11, 9248-9248 (2020)
Using LibXC functional ID 498 : Re-regularized SCAN correlation by Furness et al
[ 1]  J. W. Furness, A. D. Kaplan, J. Ning, J. P. Perdew, and J. Sun.,  J. Phys. Chem. Lett. 11, 8208-8215 (2020)
[ 2]  J. W. Furness, A. D. Kaplan, J. Ning, J. P. Perdew, and J. Sun.,  J. Phys. Chem. Lett. 11, 9248-9248 (2020)

================================================================================
                                       INPUT FILE
================================================================================
NAME = xtb_opt.inp
|  1> ! r2scan-3c def2/J RI DEFGRID2 scfconv7 ENGRAD tightSCF miniprint
|  2> %cpcm
|  3>     smd true
|  4>     smdsolvent "water"
|  5> end
|  6> * xyzfile 0 1 xtb_opt.xyz
|  7> 
|  8>                          ****END OF INPUT****
================================================================================

                     *******************************
                     * Energy+Gradient Calculation *
                     *******************************

---------------------------------
CARTESIAN COORDINATES (ANGSTROEM)
---------------------------------
  C      5.971507   -0.277826   -0.039059
  C      4.664182   -0.781544   -0.593312
  O      3.581263   -0.101068    0.131883
  P      2.159234    0.197259   -0.563305
  S      2.200662    0.958623   -2.356265
  O      1.455382    1.073531    0.581105
  C      1.685949    2.525946    0.662158
  C      0.957699    3.017754    1.885689
  S      1.207152   -1.679433   -0.350712
  C     -0.216909   -1.514553   -1.522055
  S     -1.849972   -1.844315   -0.764137
  P     -2.328050    0.060032    0.063144
  S     -2.079596    1.580203   -1.119091
  O     -1.474306    0.231699    1.407968
  C     -1.532730   -0.741510    2.510049
  C     -0.386243   -0.433352    3.438298
  O     -3.801692   -0.259745    0.621009
  C     -5.033749    0.110244   -0.095005
  C     -5.343325   -0.842908   -1.221223
  H      6.792136   -0.798047   -0.542747
  H      6.082259    0.795783   -0.216162
  H      6.046751   -0.474030    1.034243
  H      4.537770   -1.856449   -0.433010
  H      4.568856   -0.560647   -1.661031
  H      2.764068    2.703094    0.731646
  H      1.300495    2.981460   -0.254757
  H      1.336424    2.531416    2.788927
  H      1.117703    4.096167    1.980144
  H     -0.117106    2.833744    1.801940
  H     -0.095849   -2.270048   -2.301569
  H     -0.205175   -0.520838   -1.982652
  H     -2.501720   -0.628739    3.005138
  H     -1.453411   -1.750383    2.091521
  H     -0.465478    0.582785    3.835482
  H     -0.416421   -1.134987    4.277731
  H      0.574492   -0.545313    2.927288
  H     -5.797838    0.075170    0.683844
  H     -4.926748    1.140590   -0.446181
  H     -5.398106   -1.874115   -0.860998
  H     -6.317262   -0.573345   -1.642573
  H     -4.599416   -0.780266   -2.020301

----------------------------
CARTESIAN COORDINATES (A.U.)
----------------------------
  NO LB      ZA    FRAG     MASS         X           Y           Z
   0 C     6.0000    0    12.011   11.284512   -0.525014   -0.073811
   1 C     6.0000    0    12.011    8.814026   -1.476904   -1.121197
   2 O     8.0000    0    15.999    6.767606   -0.190990    0.249222
   3 P    15.0000    0    30.974    4.080360    0.372765   -1.064492
   4 S    16.0000    0    32.060    4.158648    1.811535   -4.452695
   5 O     8.0000    0    15.999    2.750273    2.028679    1.098129
   6 C     6.0000    0    12.011    3.185982    4.773346    1.251297
   7 C     6.0000    0    12.011    1.809790    5.702729    3.563436
   8 S    16.0000    0    32.060    2.281186   -3.173668   -0.662750
   9 C     6.0000    0    12.011   -0.409899   -2.862091   -2.876266
  10 S    16.0000    0    32.060   -3.495941   -3.485249   -1.444009
  11 P    15.0000    0    30.974   -4.399378    0.113443    0.119326
  12 S    16.0000    0    32.060   -3.929867    2.986150   -2.114776
  13 O     8.0000    0    15.999   -2.786035    0.437848    2.660674
  14 C     6.0000    0    12.011   -2.896440   -1.401251    4.743306
  15 C     6.0000    0    12.011   -0.729893   -0.818917    6.497442
  16 O     8.0000    0    15.999   -7.184157   -0.490846    1.173537
  17 C     6.0000    0    12.011   -9.512407    0.208331   -0.179533
  18 C     6.0000    0    12.011  -10.097422   -1.592865   -2.307778
  19 H     1.0000    0     1.008   12.835278   -1.508090   -1.025644
  20 H     1.0000    0     1.008   11.493804    1.503812   -0.408488
  21 H     1.0000    0     1.008   11.426704   -0.895787    1.954435
  22 H     1.0000    0     1.008    8.575143   -3.508180   -0.818270
  23 H     1.0000    0     1.008    8.633886   -1.059470   -3.138894
  24 H     1.0000    0     1.008    5.223332    5.108107    1.382611
  25 H     1.0000    0     1.008    2.457579    5.634144   -0.481420
  26 H     1.0000    0     1.008    2.525476    4.783683    5.270308
  27 H     1.0000    0     1.008    2.112153    7.740633    3.741931
  28 H     1.0000    0     1.008   -0.221299    5.355000    3.405173
  29 H     1.0000    0     1.008   -0.181129   -4.289769   -4.349335
  30 H     1.0000    0     1.008   -0.387725   -0.984241   -3.746668
  31 H     1.0000    0     1.008   -4.727566   -1.188145    5.678888
  32 H     1.0000    0     1.008   -2.746548   -3.307744    3.952402
  33 H     1.0000    0     1.008   -0.879625    1.101305    7.248010
  34 H     1.0000    0     1.008   -0.786922   -2.144814    8.083740
  35 H     1.0000    0     1.008    1.085633   -1.030491    5.531773
  36 H     1.0000    0     1.008  -10.956325    0.142051    1.292278
  37 H     1.0000    0     1.008   -9.310204    2.155402   -0.843160
  38 H     1.0000    0     1.008  -10.200942   -3.541565   -1.627051
  39 H     1.0000    0     1.008  -11.937895   -1.083464   -3.104013
  40 H     1.0000    0     1.008   -8.691636   -1.474488   -3.817816

------------------------------------------------------------------------------
                   ___                                                        
                  /   \      - P O W E R E D   B Y -                         
                 /     \                                                     
                 |  |  |   _    _      __       _____    __    __             
                 |  |  |  | |  | |    /  \     |  _  \  |  |  /  |          
                  \  \/   | |  | |   /    \    | | | |  |  | /  /          
                 / \  \   | |__| |  /  /\  \   | |_| |  |  |/  /          
                |  |  |   |  __  | /  /__\  \  |    /   |      \           
                |  |  |   | |  | | |   __   |  |    \   |  |\   \          
                \     /   | |  | | |  |  |  |  | |\  \  |  | \   \       
                 \___/    |_|  |_| |__|  |__|  |_| \__\ |__|  \__/        
                                                                              
                      - O R C A' S   B I G   F R I E N D -                    
                                      &                                       
                       - I N T E G R A L  F E E D E R -                       
                                                                              
 v1 FN, 2020, v2 2021, v3 2022-2024                                           
------------------------------------------------------------------------------


----------------------
SHARK INTEGRAL PACKAGE
----------------------

Number of atoms                             ...     41
Number of basis functions                   ...    539
Number of shells                            ...    253
Maximum angular momentum                    ...      2
Integral batch strategy                     ... SHARK/LIBINT Hybrid
RI-J (if used) integral strategy            ... SPLIT-RIJ (Revised 2003 algorithm where possible)
Printlevel                                  ...      1
Contraction scheme used                     ... SEGMENTED contraction
Prescreening option                         ... SCHWARTZ
   Thresh                                   ... 3.000e-11
   Tcut                                     ... 1.000e-12
   Tpresel                                  ... 1.000e-12 
Coulomb Range Separation                    ... NOT USED
Exchange Range Separation                   ... NOT USED
Multipole approximations                    ... NOT USED
Finite Nucleus Model                        ... NOT USED
CABS basis                                  ... NOT available
Auxiliary Coulomb fitting basis             ... AVAILABLE
   # of basis functions in Aux-J            ...   1185
   # of shells in Aux-J                     ...    407
   Maximum angular momentum in Aux-J        ...      4
Auxiliary J/K fitting basis                 ... NOT available
Auxiliary Correlation fitting basis         ... NOT available
Auxiliary 'external' fitting basis          ... NOT available

Checking pre-screening integrals            ... done (  0.0 sec) Dimension = 253
Check shell pair data                       ... done (  0.0 sec)
Shell pair information
Shell pair cut-off parameter TPreSel        ...   1.0e-12
Total number of shell pairs                 ...     32131
Shell pairs after pre-screening             ...     21666
Total number of primitive shell pairs       ...    124843
Primitive shell pairs kept                  ...     50870
          la=0 lb=0:   6123 shell pairs
          la=1 lb=0:   7891 shell pairs
          la=1 lb=1:   2566 shell pairs
          la=2 lb=0:   2877 shell pairs
          la=2 lb=1:   1851 shell pairs
          la=2 lb=2:    358 shell pairs

Calculating one electron integrals          ... done (  0.1 sec)
Calculating RI/J V-Matrix + Cholesky decomp.... done (  0.1 sec)
Calculating Nuclear repulsion               ... done (  0.0 sec) ENN=   2722.402887273093 Eh

Diagonalization of the overlap matrix:
Smallest eigenvalue                        ... 2.514e-04
Time for diagonalization                   ...    0.031 sec
Threshold for overlap eigenvalues          ... 1.000e-07
Number of eigenvalues below threshold      ... 0
Time for construction of square roots      ...    0.058 sec
Total time needed                          ...    0.105 sec

-------------------
DFT GRID GENERATION
-------------------

General Integration Accuracy     IntAcc      ... 4.388
Radial Grid Type                 RadialGrid  ... OptM3 with GC (2021)
Angular Grid (max. ang.)         AngularGrid ... 4 (Lebedev-302)
Angular grid pruning method      GridPruning ... 4 (adaptive)
Weight generation scheme         WeightScheme... mBecke (2022)
Basis function cutoff            BFCut       ... 1.0000e-11
Integration weight cutoff        WCut        ... 1.0000e-14
Partially contracted basis set               ... off
Rotationally invariant grid construction     ... off
Angular grids for H and He will be reduced by one unit
Diffuse basis detected: some atoms will have their outermost
                        angular grid increased by 1.

Total number of grid points                  ...   192873
Total number of batches                      ...     3033
Average number of points per batch           ...       63
Average number of grid points per atom       ...     4704
Initializing property integral containers    ... done (  0.0 sec)

SHARK setup successfully completed in   3.2 seconds

Maximum memory used throughout the entire STARTUP-calculation: 102.4 MB
Occupation numbers will be reassigned to an Aufbau configuration
             **** ENERGY FILE WAS UPDATED (xtb_opt.en.tmp) ****
Finished Guess after   0.6 sec
Maximum memory used throughout the entire GUESS-calculation: 56.0 MB
--------------------
CPCM SOLVATION MODEL
--------------------
CPCM parameters:
  Epsilon                                         ...      78.3550
  Refrac                                          ...       1.3328
  Rsolv                                           ...       1.3000
  Surface type                                    ... GAUSSIAN VDW
  Discretization scheme                           ... Constant charge density
    Threshold for H atoms                         ...       5.0000 (charges/Ang^2)
    Threshold for non-H atoms                     ...       5.0000 (charges/Ang^2)
  Epsilon function type                           ...         CPCM
Solvent:                                          ... WATER
SMD-CDS solvent descriptors:
  Soln                                            ...       1.3328
  Soln25                                          ...       1.3323
  Sola                                            ...       0.0000
  Solb                                            ...       0.0000
  Solg                                            ...       0.0000
  Solc                                            ...       0.0000
  Solh                                            ...       0.0000
Radii:
  Scheme                                          ... Element-dependent radii
  Radius for C  used is    3.4960 Bohr (=   1.8500 Ang.)
  Radius for O  used is    2.8724 Bohr (=   1.5200 Ang.)
  Radius for P  used is    4.0062 Bohr (=   2.1200 Ang.)
  Radius for S  used is    4.7054 Bohr (=   2.4900 Ang.)
  Radius for H  used is    2.2677 Bohr (=   1.2000 Ang.)
Calculating surface                               ...        done! (  0.0s)
Cavity surface points                             ...         3559
Cavity Volume                                     ...    2845.0315
Cavity Surface-area                               ...    1457.1946
Calculating surface distance matrix               ...        done! (  0.1s)
Performing Cholesky decomposition & store         ...        done! (  0.5s)
Overall time for CPCM initialization              ...                 0.6s

----------------------------------------D-I-I-S--------------------------------------------
Iteration    Energy (Eh)           Delta-E    RMSDP     MaxDP     DIISErr   Damp  Time(sec)
-------------------------------------------------------------------------------------------
               ***  Starting incremental Fock matrix formation  ***
                              *** Initializing SOSCF ***
---------------------------------------S-O-S-C-F--------------------------------------
Iteration    Energy (Eh)           Delta-E    RMSDP     MaxDP     MaxGrad    Time(sec)
--------------------------------------------------------------------------------------
    1    -2932.5198008458773984     0.00e+00  1.89e-06  1.51e-04  1.31e-05    14.2
               *** Restarting incremental Fock matrix formation ***
    2    -2932.5198007795306694     6.63e-08  3.48e-06  2.62e-04  5.42e-05    13.8
    3    -2932.5198001783119253     6.01e-07  2.57e-06  1.73e-04  1.10e-04     9.1
    4    -2932.5198009562072912    -7.78e-07  1.80e-07  1.56e-05  1.47e-06     8.9
                  *** Gradient check signals convergence ***

               *****************************************************
               *                     SUCCESS                       *
               *           SCF CONVERGED AFTER   4 CYCLES          *
               *****************************************************


SMD CDS free energy correction energy :                 6.94671     Kcal/mol
Total Energy after SMD CDS correction =             -2932.508730676 Eh
             **** ENERGY FILE WAS UPDATED (xtb_opt.en.tmp) ****

----------------
TOTAL SCF ENERGY
----------------

Total Energy       :      -2932.50873067561679 Eh          -79797.61939 eV

Components:
Nuclear Repulsion  :       2722.40288727309326 Eh           74080.34873 eV
Electronic Energy  :      -5654.89366738529588 Eh         -153877.47967 eV
One Electron Energy:      -9468.12715709365875 Eh         -257640.83815 eV
Two Electron Energy:       3813.23348970836287 Eh          103763.35848 eV
CPCM Dielectric    :         -0.02902084400444 Eh              -0.78970 eV
SMD CDS (Gcds)     :          0.01107028059068 Eh               0.30124 eV

Virial components:
Potential Energy   :      -5855.61498543107973 Eh         -159339.38441 eV
Kinetic Energy     :       2923.10625475546294 Eh           79541.76502 eV
Virial Ratio       :          2.00321660422192

DFT components:
N(Alpha)           :      101.000157541074 electrons
N(Beta)            :      101.000157541074 electrons
N(Total)           :      202.000315082147 electrons
E(X)               :     -233.396095545595 Eh       
E(C)               :       -7.102264022097 Eh       
E(XC)              :     -240.498359567692 Eh       

CPCM Solvation Model Properties:
Surface-charge          :         -0.04554188074837
Corrected charge        :         -0.00000000000000
Outlying charge corr.   :          0.00010543367374 Eh               0.00287 eV
Free-energy (cav+disp)  :          0.01107028059068 Eh               0.30124 eV

---------------
SCF CONVERGENCE
---------------

  Last Energy change         ...    7.7790e-07  Tolerance :   1.0000e-07
  Last MAX-Density change    ...    1.5626e-05  Tolerance :   1.0000e-07
  Last RMS-Density change    ...    1.8000e-07  Tolerance :   5.0000e-09
  Last DIIS Error            ...    2.1827e-04  Tolerance :   1.0000e-07
  Last Orbital Gradient      ...    1.4670e-06  Tolerance :   1.0000e-04
  Last Orbital Rotation      ...    3.1324e-06  Tolerance :   1.0000e-04


----------------
ORBITAL ENERGIES
----------------

  NO   OCC          E(Eh)            E(eV) 
   0   2.0000     -88.583059     -2410.4676 
   1   2.0000     -88.582974     -2410.4653 
   2   2.0000     -88.532478     -2409.0912 
   3   2.0000     -88.531094     -2409.0536 
   4   2.0000     -76.922300     -2093.1622 
   5   2.0000     -76.921531     -2093.1413 
   6   2.0000     -18.996278      -516.9150 
   7   2.0000     -18.995159      -516.8845 
   8   2.0000     -18.994592      -516.8691 
   9   2.0000     -18.992819      -516.8209 
  10   2.0000     -10.110768      -275.1280 
  11   2.0000     -10.093886      -274.6686 
  12   2.0000     -10.092140      -274.6211 
  13   2.0000     -10.091845      -274.6131 
  14   2.0000     -10.091658      -274.6080 
  15   2.0000     -10.022215      -272.7183 
  16   2.0000     -10.022142      -272.7164 
  17   2.0000     -10.022098      -272.7151 
  18   2.0000     -10.021797      -272.7070 
  19   2.0000      -7.876557      -214.3320 
  20   2.0000      -7.876537      -214.3315 
  21   2.0000      -7.827724      -213.0032 
  22   2.0000      -7.826377      -212.9666 
  23   2.0000      -6.599995      -179.5950 
  24   2.0000      -6.599262      -179.5750 
  25   2.0000      -5.823544      -158.4667 
  26   2.0000      -5.823540      -158.4666 
  27   2.0000      -5.820375      -158.3805 
  28   2.0000      -5.820180      -158.3751 
  29   2.0000      -5.813875      -158.2036 
  30   2.0000      -5.813776      -158.2009 
  31   2.0000      -5.775210      -157.1514 
  32   2.0000      -5.773803      -157.1132 
  33   2.0000      -5.768064      -156.9570 
  34   2.0000      -5.767735      -156.9480 
  35   2.0000      -5.766787      -156.9223 
  36   2.0000      -5.766370      -156.9109 
  37   2.0000      -4.745732      -129.1379 
  38   2.0000      -4.744816      -129.1130 
  39   2.0000      -4.744667      -129.1089 
  40   2.0000      -4.744225      -129.0969 
  41   2.0000      -4.743789      -129.0851 
  42   2.0000      -4.743190      -129.0688 
  43   2.0000      -1.041947       -28.3528 
  44   2.0000      -1.040607       -28.3164 
  45   2.0000      -1.001900       -27.2631 
  46   2.0000      -1.000698       -27.2304 
  47   2.0000      -0.794270       -21.6132 
  48   2.0000      -0.757439       -20.6110 
  49   2.0000      -0.745582       -20.2883 
  50   2.0000      -0.726765       -19.7763 
  51   2.0000      -0.724935       -19.7265 
  52   2.0000      -0.711879       -19.3712 
  53   2.0000      -0.692998       -18.8574 
  54   2.0000      -0.675510       -18.3816 
  55   2.0000      -0.625001       -17.0071 
  56   2.0000      -0.610128       -16.6024 
  57   2.0000      -0.595028       -16.1915 
  58   2.0000      -0.592716       -16.1286 
  59   2.0000      -0.586705       -15.9651 
  60   2.0000      -0.531551       -14.4642 
  61   2.0000      -0.525978       -14.3126 
  62   2.0000      -0.493324       -13.4240 
  63   2.0000      -0.489195       -13.3117 
  64   2.0000      -0.467806       -12.7297 
  65   2.0000      -0.457420       -12.4470 
  66   2.0000      -0.450014       -12.2455 
  67   2.0000      -0.447668       -12.1817 
  68   2.0000      -0.441456       -12.0126 
  69   2.0000      -0.432265       -11.7625 
  70   2.0000      -0.420304       -11.4371 
  71   2.0000      -0.414523       -11.2797 
  72   2.0000      -0.405668       -11.0388 
  73   2.0000      -0.392286       -10.6747 
  74   2.0000      -0.390694       -10.6313 
  75   2.0000      -0.381326       -10.3764 
  76   2.0000      -0.379303       -10.3214 
  77   2.0000      -0.365604        -9.9486 
  78   2.0000      -0.361098        -9.8260 
  79   2.0000      -0.356102        -9.6900 
  80   2.0000      -0.353036        -9.6066 
  81   2.0000      -0.349688        -9.5155 
  82   2.0000      -0.344546        -9.3756 
  83   2.0000      -0.343791        -9.3550 
  84   2.0000      -0.340239        -9.2584 
  85   2.0000      -0.329958        -8.9786 
  86   2.0000      -0.324190        -8.8216 
  87   2.0000      -0.321746        -8.7551 
  88   2.0000      -0.314257        -8.5514 
  89   2.0000      -0.307705        -8.3731 
  90   2.0000      -0.305598        -8.3157 
  91   2.0000      -0.285758        -7.7759 
  92   2.0000      -0.282460        -7.6861 
  93   2.0000      -0.280299        -7.6273 
  94   2.0000      -0.277301        -7.5458 
  95   2.0000      -0.257015        -6.9937 
  96   2.0000      -0.246696        -6.7129 
  97   2.0000      -0.238866        -6.4999 
  98   2.0000      -0.231591        -6.3019 
  99   2.0000      -0.226549        -6.1647 
 100   2.0000      -0.219601        -5.9757 
 101   0.0000      -0.047498        -1.2925 
 102   0.0000      -0.038063        -1.0357 
 103   0.0000      -0.024750        -0.6735 
 104   0.0000       0.005554         0.1511 
 105   0.0000       0.009531         0.2594 
 106   0.0000       0.011556         0.3145 
 107   0.0000       0.022312         0.6071 
 108   0.0000       0.031507         0.8573 
 109   0.0000       0.048174         1.3109 
 110   0.0000       0.054398         1.4803 
 111   0.0000       0.069464         1.8902 
*Only the first 10 virtual orbitals were printed.
Total SCF time: 0 days 0 hours 0 min 47 sec 
Finished LeanSCF after  47.8 sec

Maximum memory used throughout the entire LEANSCF-calculation: 144.2 MB


-------------------------------------------------------------------------------
                          DFT DISPERSION CORRECTION                            
                                                                               
                                DFTD4 V3.4.0                                   
-------------------------------------------------------------------------------
-------------------------   ----------------
Dispersion correction           -0.020830294
-------------------------   ----------------

------------------   -----------------
gCP correction             0.044761728
------------------   -----------------

-------------------------   --------------------
FINAL SINGLE POINT ENERGY     -2932.484799241907
-------------------------   --------------------

------------------------------------------------------------------------------
                         ORCA SCF GRADIENT CALCULATION
------------------------------------------------------------------------------

Nuc. rep. gradient        (SHARK) ... done (  0.0 sec)
HCore & Overlap gradient  (SHARK) ... done (  2.1 sec)
Split-RIJ-J gradient      (SHARK) ... done (  9.5 sec)
XC gradient                       ... done ( 23.1 sec)
CPCM gradient                     ... done (  8.4 sec)
SMD gradient                      ... done (  0.0 sec)
Dispersion correction             ... done (  0.0 sec)

-------------------
DISPERSION GRADIENT
-------------------

   1   C   :    0.000135151   -0.000015367    0.000022290
   2   C   :    0.000109346   -0.000049383   -0.000013959
   3   O   :    0.000110969   -0.000030533    0.000008085
   4   P   :    0.000236093    0.000004447   -0.000151804
   5   S   :    0.000131758    0.000112051   -0.000292267
   6   O   :    0.000101413    0.000107330    0.000034687
   7   C   :    0.000075073    0.000173371    0.000034788
   8   C   :    0.000041536    0.000182314    0.000101249
   9   S   :    0.000111685   -0.000308155   -0.000106835
  10   C   :    0.000003588   -0.000127097   -0.000128171
  11   S   :   -0.000071770   -0.000258829   -0.000122208
  12   P   :   -0.000258356    0.000005397   -0.000027178
  13   S   :   -0.000230117    0.000270646   -0.000199490
  14   O   :   -0.000089946   -0.000005438    0.000122728
  15   C   :   -0.000058947   -0.000065589    0.000169162
  16   C   :   -0.000004073   -0.000050878    0.000214721
  17   O   :   -0.000111650    0.000008261    0.000029832
  18   C   :   -0.000122758    0.000025672   -0.000007757
  19   C   :   -0.000126910   -0.000031396   -0.000049279
  20   H   :    0.000035755   -0.000006125    0.000002880
  21   H   :    0.000058632    0.000001292    0.000008098
  22   H   :    0.000045135   -0.000007000    0.000016339
  23   H   :    0.000047007   -0.000031553    0.000008723
  24   H   :    0.000045279   -0.000008562   -0.000015380
  25   H   :    0.000012621    0.000057869    0.000025534
  26   H   :    0.000023073    0.000073168    0.000002366
  27   H   :    0.000020267    0.000059866    0.000042627
  28   H   :    0.000006341    0.000044856    0.000022136
  29   H   :    0.000017362    0.000086997    0.000042383
  30   H   :   -0.000004709   -0.000064904   -0.000041645
  31   H   :   -0.000001504   -0.000032549   -0.000059819
  32   H   :   -0.000012388   -0.000009238    0.000066630
  33   H   :   -0.000015158   -0.000038169    0.000063682
  34   H   :   -0.000006939   -0.000009530    0.000076400
  35   H   :    0.000002866   -0.000016267    0.000053042
  36   H   :   -0.000000428   -0.000030143    0.000100586
  37   H   :   -0.000054999    0.000004011    0.000012816
  38   H   :   -0.000044273    0.000021438   -0.000003149
  39   H   :   -0.000054337   -0.000023181   -0.000013408
  40   H   :   -0.000043762   -0.000006471   -0.000018404
  41   H   :   -0.000057927   -0.000012629   -0.000031033

Difference to translation invariance:
           :    0.0000000000    0.0000000000    0.0000000000

Difference to rotation invariance:
           :   -0.0000000000   -0.0000000000    0.0000000000

Norm of the Dispersion gradient    ...    0.0010360069
RMS gradient                       ...    0.0000934136
MAX gradient                       ...    0.0003081554
gCP correction                   ... done

------------------
CARTESIAN GRADIENT
------------------

   1   C   :    0.000087406    0.000033324   -0.000006560
   2   C   :   -0.000223642    0.000094550    0.000078222
   3   O   :   -0.000271947   -0.000045129   -0.000200442
   4   P   :    0.000002855   -0.000098465   -0.000112507
   5   S   :    0.000099834    0.000120722    0.000085274
   6   O   :    0.000037041    0.000094274   -0.000092029
   7   C   :    0.000058746   -0.000030399    0.000040708
   8   C   :   -0.000017879    0.000059195    0.000056429
   9   S   :    0.000000965   -0.000383842    0.000408374
  10   C   :    0.000172758   -0.000024366   -0.000350893
  11   S   :    0.000351100    0.000274957    0.000122349
  12   P   :    0.000053940    0.000014004   -0.000065328
  13   S   :    0.000054782   -0.000125046    0.000100231
  14   O   :    0.000001754   -0.000248724    0.000129613
  15   C   :   -0.000018535    0.000274380   -0.000294718
  16   C   :    0.000057683   -0.000058307    0.000072917
  17   O   :   -0.000321954    0.000029103    0.000131487
  18   C   :   -0.000089785    0.000039511   -0.000045647
  19   C   :   -0.000007500   -0.000088191   -0.000029325
  20   H   :    0.000003220    0.000010206   -0.000043203
  21   H   :    0.000040339    0.000042081   -0.000053128
  22   H   :    0.000070117    0.000022854    0.000019662
  23   H   :    0.000017610   -0.000027776    0.000037616
  24   H   :    0.000019829   -0.000027619   -0.000050131
  25   H   :   -0.000016460    0.000038840    0.000001099
  26   H   :   -0.000022968   -0.000011081   -0.000010921
  27   H   :   -0.000035772   -0.000012977   -0.000073426
  28   H   :    0.000015433   -0.000080167    0.000017182
  29   H   :    0.000043952    0.000033194   -0.000005952
  30   H   :    0.000011850    0.000073562    0.000021880
  31   H   :   -0.000108324    0.000007736    0.000039669
  32   H   :   -0.000145021    0.000047350    0.000083719
  33   H   :   -0.000060200   -0.000143427   -0.000015461
  34   H   :    0.000031138    0.000113150    0.000074326
  35   H   :    0.000003784   -0.000024481   -0.000006298
  36   H   :    0.000151454   -0.000027523   -0.000066758
  37   H   :    0.000006935   -0.000026717    0.000013189
  38   H   :   -0.000009860   -0.000015975   -0.000013232
  39   H   :   -0.000080718    0.000098296   -0.000056061
  40   H   :    0.000092944    0.000032902    0.000034074
  41   H   :   -0.000056905   -0.000053979    0.000024004

Difference to translation invariance:
           :    0.0000000000    0.0000000000   -0.0000000001

Difference to rotation invariance:
           :   -0.0000952814    0.0010154065    0.0002694998

Norm of the Cartesian gradient     ...    0.0012606182
RMS gradient                       ...    0.0001136661
MAX gradient                       ...    0.0004083742

-------
TIMINGS
-------

Total SCF gradient time     ....       49.403 sec

Densities                   ....       0.007 sec  (  0.0%)
One electron gradient       ....       2.123 sec  (  4.3%)
RI-J Coulomb gradient       ....       9.546 sec  ( 19.3%)
XC gradient                 ....      23.129 sec  ( 46.8%)
CPCM gradient               ....       8.418 sec  ( 17.0%)
   A-Matrix (El+Nuc)        ....       0.283 sec  (  0.6%)
   Potential                ....       8.135 sec  ( 16.5%)
SMD gradient                ....       0.021 sec  (  0.0%)

Maximum memory used throughout the entire SCFGRAD-calculation: 85.3 MB

------------------------------------------------------------------------------
                              ORCA PROPERTY CALCULATIONS
------------------------------------------------------------------------------

GBWName                                 ... xtb_opt.gbw
Number of atoms                         ...     41
Number of basis functions               ...    539
Max core memory                         ...   1024 MB

Electric properties:
Dipole moment                           ... YES
Quadrupole moment                       ...  NO
Static polarizability (Dipole/Dipole)   ...  NO
Static polarizability (Dipole/Quad.)    ...  NO
Static polarizability (Quad./Quad.)     ...  NO
Static polarizability (Velocity)        ...  NO

Atomic electric properties:
Dipole moment                           ...  NO
Quadrupole moment                       ...  NO
Static polarizability                   ...  NO

Choice of electric origin               ... Center of mass
Position of electric origin             ...    -0.067496     0.040630    -0.223769

General magnetic properties:
Magnetizability                         ...  NO

EPR properties:
g-Tensor (aka g-matrix)                 ...  NO
Zero-Field splitting spin-orbit         ...  NO
Zero-field splitting spin-spin          ...  NO
Hyperfine couplings                     ...  NO (   0 nuclei)
Quadrupole couplings                    ...  NO (   0 nuclei)
Contact density                         ...  NO (   0 nuclei)

NMR properties:
Chemical shifts                         ...  NO (   0 nuclei)
Spin-rotation constants                 ...  NO (   0 nuclei)
Spin-spin couplings                     ...  NO (   0 nuclei,    0 pairs)

Choice of magnetic origin               ... GIAO
Position of magnetic origin             ...     0.000000     0.000000     0.000000

Properties with geometric perturbations:
SCF Hessian                             ...  NO
IR spectrum                             ...  NO
VCD spectrum                            ...  NO
X-ray spectroscopy properties:
SCF XES/XAS/RIXS spectra                ...  NO


-------------
DIPOLE MOMENT
-------------

Method             : SCF
Type of density    : Electron Density
Multiplicity       :   1
Irrep              :   0
Energy             : -2932.5087306756167891 Eh
Relativity type    : 
Basis              : AO
                                X                 Y                 Z
Electronic contribution:     -3.686954605      -4.365259845     -13.309462178
Nuclear contribution   :      3.485435385       3.135846547      14.850892105
                        -----------------------------------------
Total Dipole Moment    :     -0.201519220      -1.229413298       1.541429926
                        -----------------------------------------
Magnitude (a.u.)       :      1.981936748
Magnitude (Debye)      :      5.037682861



--------------------
Rotational spectrum 
--------------------
 
Rotational constants in cm-1:             0.012753             0.004665             0.004476 
Rotational constants in MHz :           382.323494           139.857003           134.188966 

Dipole components along the rotational axes: 
x,y,z [a.u.] :    -0.354377    -0.619976    -1.848816 
x,y,z [Debye]:    -0.900754    -1.575855    -4.699316 

 

Dipole moment calculation done in   0.1 sec 

Maximum memory used throughout the entire PROP-calculation: 52.3 MB

--------------------------------
SUGGESTED CITATIONS FOR THIS RUN
--------------------------------

Below you find a list of papers that are relevant to this ORCA run
We neither can nor want to force you to cite these papers, but we appreciate if you do
You receive ORCA, which is the product of decades of hard work by many enthusiastic individuals, for free
The only thing we kindly ask in return is that you cite our papers,
We deeply appreciate it, if you show your appreciation for ORCA by not just citing the generic ORCA reference.

Please note that relegating all ORCA citations to the supporting information does *not* help us.
SI sections are not indexed - citations you put there will not count into any citation statistics
But we need these citations in order to attract the funding resources that allow us to do what we are doing

Therefore, if you are a happy ORCA user, please consider citing a few of the papers listed below in the main body of your paper

In addition to the list printed below, the program has created the file xtb_opt.bibtex that contains the list in bibtex format
You can import this file easily into all common literature databanks and citation aid programs


List of essential papers. We consider these as the minimum necessary citations

  1. Neese,F.
     Software update: the ORCA program system, version 5.0
     WIRES Comput. Molec. Sci., 2022 12(1)e1606
     doi.org/10.1002/wcms.1606
  2. Grimme,S.; Hansen,A.; Ehlert,S.; Mewes,J.
     r2SCAN-3c: A 'Swiss army knife' composite electronic-structure method
     J. Chem. Phys., 2021 154 064103
     doi.org/10.1063/5.0040021

List of papers to cite with high priority. The work reported in these papers was absolutely
necessary for this run to complete.
Our perspective: the developers of density functionals and basis sets usually get cited in chemistry papers
Good! But without the algorithms to do something with them, the functionals or basis sets would not do anything.
Hence, in our opinion, the algorithm design and method developments papers are equally worthy of getting cited

  1. Neese,F.
     An improvement of the resolution of the identity approximation for the formation of the Coulomb matrix
     J. Comp. Chem., 2003 24(14)1740-1747
     doi.org/10.1002/jcc.10318
  2. Garcia-Rates,M.; Neese,F.
     Effect of the Solute Cavity on the Solvation Energy and its Derivatives within the Framework of the Gaussian Charge Scheme
     J. Comput. Chem., 2020 41 922-939
     doi.org/10.1002/jcc.26139
  3. Neese,F.
     The SHARK Integral Generation and Digestion System
     J. Comp. Chem., 2022  1-16
     doi.org/10.1002/jcc.26942
  4. Lehtola,S.; Steigemann,C.; Oliveira,M.; Marques,M.
     Recent developments in Libxc - A comprehensive library of functionals for density functional theory
     Software X, 2018 7 
     doi.org/10.1016/j.softx.2017.11.002
  5. Caldeweyher,E.; Bannwarth,C.; Grimme,S.
     Extension of the D3 dispersion coefficient model
     J. Chem. Phys., 2017 147 034112-XXXX
     doi.org/10.1063/1.4993215
  6. Caldeweyher,E.; Ehlert,S.; Hansen,A.; Neugebauer,H.; Spicher,S.; Bannwarth,C.; Grimme,S.
     A generally applicable atomic-charge dependent London dispersion correction
     J. Chem. Phys., 2019 150 154122-XXXX
     doi.org/10.1063/1.5090222
  7. Caldeweyher,E.; Mewes,J.; Ehlert,S.; Grimme,S.
     Extension and evaluation of the D4 London-dispersion model for periodic systems
     Phys. Chem. Chem. Phys., 2020 22(16)8499-8512
     doi.org/10.1039/D0CP00502A

List of suggested additional citations. These are papers that are important in the 'surrounding' of 
of this run, or papers that preceded the highly important papers. If you like your results we are grateful for a citation.

  1. Neese,F.
     The ORCA program system
     WIRES Comput. Molec. Sci., 2012 2(1)73-78
     doi.org/10.1002/wcms.81
  2. Neese,F.
     Software update: the ORCA program system, version 4.0
     WIRES Comput. Molec. Sci., 2018 8(1)1-6
     doi.org/10.1002/wcms.1327
  3. Neese,F.; Wennmohs,F.; Becker,U.; Riplinger,C.
     The ORCA quantum chemistry program package
     J. Chem. Phys., 2020 152 Art. No. L224108
     doi.org/10.1063/5.0004608

List of optional additional citations

  1. Neese,F.
     Approximate second-order SCF convergence for spin unrestricted wavefunctions
     Chem. Phys. Lett., 2000 325(1-3)93-98
     doi.org/10.1016/s0009-2614(00)00662-x

Timings for individual modules:

Sum of individual times          ...      101.496 sec (=   1.692 min)
Startup calculation              ...        3.234 sec (=   0.054 min)   3.2 %
SCF iterations                   ...       48.435 sec (=   0.807 min)  47.7 %
Property calculations            ...        0.224 sec (=   0.004 min)   0.2 %
SCF Gradient evaluation          ...       49.603 sec (=   0.827 min)  48.9 %
                             ****ORCA TERMINATED NORMALLY****
TOTAL RUN TIME: 0 days 0 hours 1 minutes 42 seconds 370 msec
  ------------------------------------------------------------------------
          * successful ORCA run, taking over control again...

         :::::::::::::::::::::::::::::::::::::::::::::::::::::
         ::                  ORCA SUMMARY                   ::
         :::::::::::::::::::::::::::::::::::::::::::::::::::::
         :: total energy           -2932.484799241907 Eh    ::
         :: gradient norm              0.001260618163 Eh/a0 ::
         :: HOMO-LUMO gap              0.000000000000 eV    ::
         :::::::::::::::::::::::::::::::::::::::::::::::::::::

      ----------------------------------------------------------- 
     |                       L-ANC optimizer                     |
      ----------------------------------------------------------- 
          low memory version by Sebastian Ehlert

          ...................................................
          :                      SETUP                      :
          :.................................................:
          :   energy convergence        0.5000000E-05 Eh    :
          :   grad. convergence         0.1000000E-02 Eh/a0 :
          :   optimization log               true           :
          :   writing optlog all                1     steps :
          :   Hessian reset                     8     steps :
          :   maximium step len.        1.0000000     a0    :
          :   LBFGS images                      8           :
          ...................................................
 * calculating model hessian...
Using Lindh-Hessian (1995)
 Shifting diagonal of input Hessian by   1.000000000000000E-002
 Lowest  eigenvalues of input Hessian
    0.000000    0.000000    0.000000    0.000000    0.000000    0.000000
    0.010029    0.010194    0.010518    0.010721    0.010856    0.011399
    0.011621    0.011679    0.012186    0.012342    0.012525    0.012659
 Highest eigenvalues
    1.291376    1.299643    1.728809    1.730431    1.870781    1.919670
 

........................................................................
.............................. CYCLE    1 ..............................
........................................................................
                         * ORCA takes the control...
  ------------------------------------------------------------------------

                                 *****************
                                 * O   R   C   A *
                                 *****************

                                            #,                                       
                                            ###                                      
                                            ####                                     
                                            #####                                    
                                            ######                                   
                                           ########,                                 
                                     ,,################,,,,,                         
                               ,,#################################,,                 
                          ,,##########################################,,             
                       ,#########################################, ''#####,          
                    ,#############################################,,   '####,        
                  ,##################################################,,,,####,       
                ,###########''''           ''''###############################       
              ,#####''   ,,,,##########,,,,          '''####'''          '####       
            ,##' ,,,,###########################,,,                        '##       
           ' ,,###''''                  '''############,,,                           
         ,,##''                                '''############,,,,        ,,,,,,###''
      ,#''                                            '''#######################'''  
     '                                                          ''''####''''         
             ,#######,   #######,   ,#######,      ##                                
            ,#'     '#,  ##    ##  ,#'     '#,    #''#        ,####,   ,####,        
            ##       ##  ##   ,#'  ##            #'  '#       #'       #'  '#        
            ##       ##  #######   ##           ,######,      #####,   #    #        
            '#,     ,#'  ##    ##  '#,     ,#' ,#      #,     #,   #   #,  ,#        
             '#######'   ##     ##  '#######'  #'      '#     '####' # '####'        



                #########################################################
                #                        -***-                          #
                #          Department of theory and spectroscopy        #
                #                                                       #
                #                      Frank Neese                      #
                #                                                       #
                #     Directorship, Architecture, Infrastructure        #
                #                    SHARK, DRIVERS                     #
                #        Core code/Algorithms in most modules           #
                #                                                       #
                #        Max Planck Institute fuer Kohlenforschung      #
                #                Kaiser Wilhelm Platz 1                 #
                #                 D-45470 Muelheim/Ruhr                 #
                #                      Germany                          #
                #                                                       #
                #                  All rights reserved                  #
                #                        -***-                          #
                #########################################################


                         Program Version 6.0.0  -   RELEASE  -


 With contributions from (in alphabetic order):
   Daniel Aravena         : Magnetic Suceptibility
   Michael Atanasov       : Ab Initio Ligand Field Theory (pilot matlab implementation)
   Alexander A. Auer      : GIAO ZORA, VPT2 properties, NMR spectrum
   Ute Becker             : All parallelization in ORCA, NUMFREQ, NUMCALC
   Giovanni Bistoni       : ED, misc. LED, open-shell LED, HFLD
   Martin Brehm           : Molecular dynamics
   Dmytro Bykov           : pre 5.0 version of the SCF Hessian
   Marcos Casanova-Páez   : Triplet and SCS-CIS(D). UHF-(DLPNO)-IP/EA/STEOM-CCSD. UHF-CVS-IP/STEOM-CCSD
   Vijay G. Chilkuri      : MRCI spin determinant printing, contributions to CSF-ICE
   Pauline Colinet        : FMM embedding
   Dipayan Datta          : RHF DLPNO-CCSD density
   Achintya Kumar Dutta   : EOM-CC, STEOM-CC
   Nicolas Foglia         : Exact transition moments, OPA infrastructure, MCD improvements
   Dmitry Ganyushin       : Spin-Orbit,Spin-Spin,Magnetic field MRCI
   Miquel Garcia          : C-PCM and meta-GGA Hessian, CCSD/C-PCM, Gaussian charge scheme
   Tiago L. C. Gouveia    : GS-ROHF, GS-ROCIS
   Yang Guo               : DLPNO-NEVPT2, F12-NEVPT2, CIM, IAO-localization
   Andreas Hansen         : Spin unrestricted coupled pair/coupled cluster methods
   Ingolf Harden          : AUTO-CI MPn and infrastructure 
   Benjamin Helmich-Paris : MC-RPA, TRAH-(SCF,CASSCF), AVAS, COSX integrals, SCF dyn. polar.
   Lee Huntington         : MR-EOM, pCC
   Robert Izsak           : Overlap fitted RIJCOSX, COSX-SCS-MP3, EOM
   Riya Kayal             : Wick's Theorem for AUTO-CI, AUTO-CI UHF-CCSDT
   Emily Kempfer          : AUTO-CI, RHF CISDT and CCSDT
   Christian Kollmar      : KDIIS, OOCD, Brueckner-CCSD(T), CCSD density, CASPT2, CASPT2-K, improved NEVPT2
   Axel Koslowski         : Symmetry handling
   Simone Kossmann        : Meta GGA functionals, TD-DFT gradient, OOMP2, (MP2 Hessian; deprecated post 5.0)
   Lucas Lang             : DCDCAS
   Marvin Lechner         : AUTO-CI (C++ implementation), FIC-MRCC
   Spencer Leger          : CASSCF response
   Dagmar Lenk            : GEPOL surface, SMD, ORCA-2-JSON
   Dimitrios Liakos       : Extrapolation schemes; Compound Job, initial MDCI parallelization
   Dimitrios Manganas     : Further ROCIS development; embedding schemes. LFT, Crystal Embedding
   Dimitrios Pantazis     : SARC Basis sets
   Anastasios Papadopoulos: AUTO-CI, single reference methods and gradients
   Taras Petrenko         : pre 6.0 DFT Hessian and TD-DFT gradient, (ASA, deprecated), ECA, 1-Electron XAS/XES, NRVS
   Peter Pinski           : DLPNO-MP2, DLPNO-MP2 Gradient
   Christoph Reimann      : Effective Core Potentials
   Marius Retegan         : Local ZFS, SOC
   Christoph Riplinger    : Optimizer, TS searches, QM/MM, DLPNO-CCSD(T), (RO)-DLPNO pert. Triples
   Michael Roemelt        : Original ROCIS implementation
   Masaaki Saitow         : Open-shell DLPNO-CCSD energy and density
   Barbara Sandhoefer     : DKH picture change effects
   Kantharuban Sivalingam : CASSCF convergence/infrastructure, NEVPT2 and variants, FIC-MRCI
   Bernardo de Souza      : ESD, SOC TD-DFT
   Georgi Stoychev        : AutoAux, RI-MP2 NMR, DLPNO-MP2 response, X2C
   Van Anh Tran           : RI-MP2 g-tensors
   Willem Van den Heuvel  : Paramagnetic NMR
   Zikuan Wang            : NOTCH, Electric field optimization 
   Frank Wennmohs         : Technical directorship and infrastructure
   Hang Xu                : AUTO-CI-Response properties 


 We gratefully acknowledge several colleagues who have allowed us to
 interface, adapt or use parts of their codes:
   Stefan Grimme, W. Hujo, H. Kruse, P. Pracht,  : VdW corrections, initial TS optimization,
                  C. Bannwarth, S. Ehlert,         DFT functionals, gCP, sTDA/sTD-DF
                  L. Wittmann, M. Mueller
   Ed Valeev, F. Pavosevic, A. Kumar             : LibInt (2-el integral package), F12 methods
   Garnet Chan, S. Sharma, J. Yang, R. Olivares  : DMRG
   Ulf Ekstrom                                   : XCFun DFT Library
   Mihaly Kallay                                 : mrcc  (arbitrary order and MRCC methods)
   Frank Weinhold                                : gennbo (NPA and NBO analysis)
   Simon Mueller                                 : openCOSMO-RS
   Christopher J. Cramer and Donald G. Truhlar   : smd solvation model
   Lars Goerigk                                  : TD-DFT with DH, B97 family of functionals
   V. Asgeirsson, H. Jonsson                     : NEB implementation
   FAccTs GmbH                                   : IRC, NEB, NEB-TS, DLPNO-Multilevel, CI-OPT
                                                   MM, QMMM, 2- and 3-layer-ONIOM, Crystal-QMMM,
                                                   LR-CPCM, SF, NACMEs, symmetry and pop. for TD-DFT,
                                                   nearIR, NL-DFT gradient (VV10), updates on ESD,
                                                   ML-optimized integration grids, MBIS, APM,
                                                   GOAT, DOCKER, SOLVATOR, interface openCOSMO-RS
   S Lehtola, MJT Oliveira, MAL Marques          : LibXC Library
   Liviu Ungur et al                             : ANISO software


 Your calculation uses the libint2 library for the computation of 2-el integrals
 For citations please refer to: http://libint.valeyev.net

 Your ORCA version has been built with support for libXC version: 6.2.2
 For citations please refer to: https://libxc.gitlab.io

 This ORCA versions uses:
   CBLAS   interface :  Fast vector & matrix operations
   LAPACKE interface :  Fast linear algebra routines
   SCALAPACK package :  Parallel linear algebra routines
   Shared memory     :  Shared parallel matrices
   BLAS/LAPACK       :  OpenBLAS 0.3.27  USE64BITINT DYNAMIC_ARCH NO_AFFINITY SapphireRapids SINGLE_THREADED
        Core in use  :  SapphireRapids
   Copyright (c) 2011-2014, The OpenBLAS Project




***************************************
The coordinates will be read from file: xtb_opt.xyz
***************************************


Your calculation utilizes the geometrical counterpoise correction gCP
Please cite in your paper:
H.Kruse, S. Grimme J.Chem.Phys., 136, (2012), 154101 
   

Your calculation utilizes the atom-pairwise dispersion correction
based on EEQ partial charges (D4)


Your calculation utilizes the SMD solvation module
Please cite in your paper:
A.V. Marenich, C.J. Cramer, D.G. Truhlar J. Phys. Chem. B, 113, (2009), 6378 

================================================================================

----- Orbital basis set information -----
Your calculation utilizes the basis: def2-mTZVPP
   Stefan Grimme, Andreas Hansen, Sebastian Ehlert, and Jan-Michael Mewes 
   J. Chem. Phys. 154, 064103 (2021). DOI: 10.1063/5.0040021

----- AuxJ basis set information -----
Your calculation utilizes the auxiliary basis: def2/J
   F. Weigend, Phys. Chem. Chem. Phys. 8, 1057 (2006).

================================================================================
                                        WARNINGS
                       Please study these warnings very carefully!
================================================================================

WARNING: Old DensityContainer found on disk!
         Will remove this file - 
         If you want to keep old densities, please start your calculation with a different basename. 

Using LibXC functional ID 497 : Re-regularized SCAN exchange by Furness et al
[ 1]  J. W. Furness, A. D. Kaplan, J. Ning, J. P. Perdew, and J. Sun.,  J. Phys. Chem. Lett. 11, 8208-8215 (2020)
[ 2]  J. W. Furness, A. D. Kaplan, J. Ning, J. P. Perdew, and J. Sun.,  J. Phys. Chem. Lett. 11, 9248-9248 (2020)
Using LibXC functional ID 498 : Re-regularized SCAN correlation by Furness et al
[ 1]  J. W. Furness, A. D. Kaplan, J. Ning, J. P. Perdew, and J. Sun.,  J. Phys. Chem. Lett. 11, 8208-8215 (2020)
[ 2]  J. W. Furness, A. D. Kaplan, J. Ning, J. P. Perdew, and J. Sun.,  J. Phys. Chem. Lett. 11, 9248-9248 (2020)
Using LibXC functional ID 497 : Re-regularized SCAN exchange by Furness et al
[ 1]  J. W. Furness, A. D. Kaplan, J. Ning, J. P. Perdew, and J. Sun.,  J. Phys. Chem. Lett. 11, 8208-8215 (2020)
[ 2]  J. W. Furness, A. D. Kaplan, J. Ning, J. P. Perdew, and J. Sun.,  J. Phys. Chem. Lett. 11, 9248-9248 (2020)
Using LibXC functional ID 498 : Re-regularized SCAN correlation by Furness et al
[ 1]  J. W. Furness, A. D. Kaplan, J. Ning, J. P. Perdew, and J. Sun.,  J. Phys. Chem. Lett. 11, 8208-8215 (2020)
[ 2]  J. W. Furness, A. D. Kaplan, J. Ning, J. P. Perdew, and J. Sun.,  J. Phys. Chem. Lett. 11, 9248-9248 (2020)

================================================================================
                                       INPUT FILE
================================================================================
NAME = xtb_opt.inp
|  1> ! r2scan-3c def2/J RI DEFGRID2 scfconv7 ENGRAD tightSCF miniprint
|  2> %cpcm
|  3>     smd true
|  4>     smdsolvent "water"
|  5> end
|  6> * xyzfile 0 1 xtb_opt.xyz
|  7> 
|  8>                          ****END OF INPUT****
================================================================================

                     *******************************
                     * Energy+Gradient Calculation *
                     *******************************

---------------------------------
CARTESIAN COORDINATES (ANGSTROEM)
---------------------------------
  C      5.972537   -0.278974   -0.037719
  C      4.665795   -0.781508   -0.593434
  O      3.584241   -0.100055    0.133026
  P      2.162003    0.199308   -0.561723
  S      2.197648    0.954479   -2.357547
  O      1.457125    1.074142    0.583047
  C      1.686076    2.526782    0.663038
  C      0.957449    3.018475    1.886313
  S      1.205326   -1.674442   -0.356655
  C     -0.224339   -1.515211   -1.521451
  S     -1.858455   -1.847612   -0.766076
  P     -2.325728    0.060205    0.061360
  S     -2.080903    1.581950   -1.120365
  O     -1.472596    0.232194    1.406613
  C     -1.531114   -0.741918    2.508570
  C     -0.386705   -0.432632    3.438370
  O     -3.798643   -0.260587    0.619784
  C     -5.031626    0.109724   -0.094514
  C     -5.342027   -0.843048   -1.220793
  H      6.793558   -0.798897   -0.540982
  H      6.083133    0.794813   -0.213464
  H      6.045971   -0.476259    1.035434
  H      4.538024   -1.856380   -0.434364
  H      4.570237   -0.559003   -1.660730
  H      2.764151    2.704360    0.732257
  H      1.300396    2.981466   -0.254182
  H      1.337107    2.533520    2.790052
  H      1.115981    4.097334    1.979621
  H     -0.117192    2.832822    1.802865
  H     -0.101405   -2.271401   -2.300172
  H     -0.211528   -0.522447   -1.984137
  H     -2.500576   -0.630829    3.002520
  H     -1.449675   -1.750177    2.089671
  H     -0.467622    0.583310    3.835011
  H     -0.417063   -1.134110    4.277910
  H      0.574418   -0.543585    2.928494
  H     -5.795184    0.074262    0.684859
  H     -4.925408    1.140335   -0.445210
  H     -5.394387   -1.874637   -0.860661
  H     -6.317133   -0.575026   -1.640921
  H     -4.598977   -0.778710   -2.020664

----------------------------
CARTESIAN COORDINATES (A.U.)
----------------------------
  NO LB      ZA    FRAG     MASS         X           Y           Z
   0 C     6.0000    0    12.011   11.286459   -0.527185   -0.071278
   1 C     6.0000    0    12.011    8.817074   -1.476837   -1.121427
   2 O     8.0000    0    15.999    6.773233   -0.189076    0.251382
   3 P    15.0000    0    30.974    4.085594    0.376638   -1.061503
   4 S    16.0000    0    32.060    4.152954    1.803705   -4.455119
   5 O     8.0000    0    15.999    2.753567    2.029835    1.101800
   6 C     6.0000    0    12.011    3.186221    4.774925    1.252961
   7 C     6.0000    0    12.011    1.809316    5.704090    3.564615
   8 S    16.0000    0    32.060    2.277735   -3.164237   -0.673980
   9 C     6.0000    0    12.011   -0.423940   -2.863333   -2.875127
  10 S    16.0000    0    32.060   -3.511971   -3.491481   -1.447674
  11 P    15.0000    0    30.974   -4.394990    0.113771    0.115953
  12 S    16.0000    0    32.060   -3.932336    2.989452   -2.117183
  13 O     8.0000    0    15.999   -2.782804    0.438782    2.658114
  14 C     6.0000    0    12.011   -2.893387   -1.402022    4.740509
  15 C     6.0000    0    12.011   -0.730767   -0.817557    6.497577
  16 O     8.0000    0    15.999   -7.178395   -0.492438    1.171222
  17 C     6.0000    0    12.011   -9.508396    0.207347   -0.178606
  18 C     6.0000    0    12.011  -10.094968   -1.593130   -2.306965
  19 H     1.0000    0     1.008   12.837965   -1.509697   -1.022309
  20 H     1.0000    0     1.008   11.495455    1.501979   -0.403389
  21 H     1.0000    0     1.008   11.425229   -0.900000    1.956686
  22 H     1.0000    0     1.008    8.575622   -3.508051   -0.820828
  23 H     1.0000    0     1.008    8.636496   -1.056363   -3.138324
  24 H     1.0000    0     1.008    5.223488    5.110500    1.383765
  25 H     1.0000    0     1.008    2.457392    5.634154   -0.480335
  26 H     1.0000    0     1.008    2.526767    4.787658    5.272435
  27 H     1.0000    0     1.008    2.108898    7.742839    3.740941
  28 H     1.0000    0     1.008   -0.221460    5.353257    3.406920
  29 H     1.0000    0     1.008   -0.191627   -4.292325   -4.346696
  30 H     1.0000    0     1.008   -0.399729   -0.987282   -3.749475
  31 H     1.0000    0     1.008   -4.725404   -1.192094    5.673941
  32 H     1.0000    0     1.008   -2.739489   -3.307355    3.948906
  33 H     1.0000    0     1.008   -0.883677    1.102296    7.247120
  34 H     1.0000    0     1.008   -0.788136   -2.143157    8.084078
  35 H     1.0000    0     1.008    1.085492   -1.027226    5.534052
  36 H     1.0000    0     1.008  -10.951311    0.140336    1.294197
  37 H     1.0000    0     1.008   -9.307673    2.154921   -0.841324
  38 H     1.0000    0     1.008  -10.193914   -3.542550   -1.626413
  39 H     1.0000    0     1.008  -11.937652   -1.086641   -3.100891
  40 H     1.0000    0     1.008   -8.690806   -1.471548   -3.818503

------------------------------------------------------------------------------
                   ___                                                        
                  /   \      - P O W E R E D   B Y -                         
                 /     \                                                     
                 |  |  |   _    _      __       _____    __    __             
                 |  |  |  | |  | |    /  \     |  _  \  |  |  /  |          
                  \  \/   | |  | |   /    \    | | | |  |  | /  /          
                 / \  \   | |__| |  /  /\  \   | |_| |  |  |/  /          
                |  |  |   |  __  | /  /__\  \  |    /   |      \           
                |  |  |   | |  | | |   __   |  |    \   |  |\   \          
                \     /   | |  | | |  |  |  |  | |\  \  |  | \   \       
                 \___/    |_|  |_| |__|  |__|  |_| \__\ |__|  \__/        
                                                                              
                      - O R C A' S   B I G   F R I E N D -                    
                                      &                                       
                       - I N T E G R A L  F E E D E R -                       
                                                                              
 v1 FN, 2020, v2 2021, v3 2022-2024                                           
------------------------------------------------------------------------------


----------------------
SHARK INTEGRAL PACKAGE
----------------------

Number of atoms                             ...     41
Number of basis functions                   ...    539
Number of shells                            ...    253
Maximum angular momentum                    ...      2
Integral batch strategy                     ... SHARK/LIBINT Hybrid
RI-J (if used) integral strategy            ... SPLIT-RIJ (Revised 2003 algorithm where possible)
Printlevel                                  ...      1
Contraction scheme used                     ... SEGMENTED contraction
Prescreening option                         ... SCHWARTZ
   Thresh                                   ... 3.000e-11
   Tcut                                     ... 1.000e-12
   Tpresel                                  ... 1.000e-12 
Coulomb Range Separation                    ... NOT USED
Exchange Range Separation                   ... NOT USED
Multipole approximations                    ... NOT USED
Finite Nucleus Model                        ... NOT USED
CABS basis                                  ... NOT available
Auxiliary Coulomb fitting basis             ... AVAILABLE
   # of basis functions in Aux-J            ...   1185
   # of shells in Aux-J                     ...    407
   Maximum angular momentum in Aux-J        ...      4
Auxiliary J/K fitting basis                 ... NOT available
Auxiliary Correlation fitting basis         ... NOT available
Auxiliary 'external' fitting basis          ... NOT available

Checking pre-screening integrals            ... done (  0.0 sec) Dimension = 253
Check shell pair data                       ... done (  0.0 sec)
Shell pair information
Shell pair cut-off parameter TPreSel        ...   1.0e-12
Total number of shell pairs                 ...     32131
Shell pairs after pre-screening             ...     21668
Total number of primitive shell pairs       ...    124843
Primitive shell pairs kept                  ...     50877
          la=0 lb=0:   6125 shell pairs
          la=1 lb=0:   7892 shell pairs
          la=1 lb=1:   2566 shell pairs
          la=2 lb=0:   2876 shell pairs
          la=2 lb=1:   1851 shell pairs
          la=2 lb=2:    358 shell pairs

[...]
CPCM gradient                     ... done (  8.2 sec)
SMD gradient                      ... done (  0.0 sec)
Dispersion correction             ... done (  0.0 sec)

-------------------
DISPERSION GRADIENT
-------------------

   1   C   :    0.000135005   -0.000015553    0.000022515
   2   C   :    0.000109218   -0.000049239   -0.000014027
   3   O   :    0.000111086   -0.000030565    0.000007935
   4   P   :    0.000236421    0.000004730   -0.000151951
   5   S   :    0.000132019    0.000112249   -0.000292333
   6   O   :    0.000101437    0.000107314    0.000034830
   7   C   :    0.000075133    0.000173357    0.000034809
   8   C   :    0.000041513    0.000182281    0.000101237
   9   S   :    0.000111567   -0.000308012   -0.000107215
  10   C   :    0.000003637   -0.000127271   -0.000128214
  11   S   :   -0.000072068   -0.000258461   -0.000122412
  12   P   :   -0.000258505    0.000005470   -0.000027198
  13   S   :   -0.000230195    0.000270690   -0.000199708
  14   O   :   -0.000089724   -0.000005571    0.000122899
  15   C   :   -0.000058764   -0.000065794    0.000169108
  16   C   :   -0.000004132   -0.000050757    0.000214655
  17   O   :   -0.000111709    0.000008269    0.000029994
  18   C   :   -0.000122896    0.000025670   -0.000007617
  19   C   :   -0.000126855   -0.000031460   -0.000049135
  20   H   :    0.000035677   -0.000006154    0.000002934
  21   H   :    0.000058542    0.000001206    0.000008215
  22   H   :    0.000045140   -0.000007115    0.000016402
  23   H   :    0.000047013   -0.000031548    0.000008603
  24   H   :    0.000045301   -0.000008509   -0.000015376
  25   H   :    0.000012668    0.000057871    0.000025526
  26   H   :    0.000023125    0.000073171    0.000002368
  27   H   :    0.000020208    0.000059769    0.000042511
  28   H   :    0.000006352    0.000044904    0.000022128
  29   H   :    0.000017388    0.000086957    0.000042479
  30   H   :   -0.000004693   -0.000064917   -0.000041569
  31   H   :   -0.000001431   -0.000032612   -0.000059854
  32   H   :   -0.000012339   -0.000009398    0.000066672
  33   H   :   -0.000015078   -0.000038399    0.000063759
  34   H   :   -0.000006971   -0.000009497    0.000076297
  35   H   :    0.000002848   -0.000016258    0.000052993
  36   H   :   -0.000000469   -0.000029979    0.000100536
  37   H   :   -0.000055017    0.000004008    0.000012922
  38   H   :   -0.000044294    0.000021461   -0.000003059
  39   H   :   -0.000054411   -0.000023248   -0.000013382
  40   H   :   -0.000043847   -0.000006532   -0.000018334
  41   H   :   -0.000057900   -0.000012527   -0.000030943

Difference to translation invariance:
           :    0.0000000000    0.0000000000    0.0000000000

Difference to rotation invariance:
           :    0.0000000000    0.0000000000    0.0000000000

Norm of the Dispersion gradient    ...    0.0010362145
RMS gradient                       ...    0.0000934323
MAX gradient                       ...    0.0003080124
gCP correction                   ... done

------------------
CARTESIAN GRADIENT
------------------

   1   C   :   -0.000003121    0.000014170   -0.000043573
   2   C   :    0.000089624   -0.000024861   -0.000036475
   3   O   :   -0.000041710   -0.000023644    0.000055247
   4   P   :   -0.000112029    0.000041224   -0.000072795
   5   S   :    0.000017065    0.000021241    0.000016487
   6   O   :    0.000016762   -0.000011011   -0.000007543
   7   C   :    0.000008166    0.000011289    0.000007346
   8   C   :    0.000003711   -0.000002714   -0.000011413
   9   S   :    0.000018576   -0.000066008    0.000106444
  10   C   :    0.000086103   -0.000180894   -0.000128624
  11   S   :    0.000184726    0.000359273   -0.000040613
  12   P   :   -0.000271640   -0.000039558    0.000179519
  13   S   :    0.000041139   -0.000143702   -0.000068617
  14   O   :    0.000049262    0.000035546    0.000040193
  15   C   :    0.000013637   -0.000058382    0.000061472
  16   C   :    0.000006167   -0.000003236   -0.000036786
  17   O   :   -0.000101929    0.000003990   -0.000033170
  18   C   :    0.000046839    0.000001848    0.000055497
  19   C   :   -0.000010737    0.000005833   -0.000000421
  20   H   :    0.000008701    0.000017005   -0.000012755
  21   H   :   -0.000007027    0.000017454   -0.000038495
  22   H   :    0.000016647    0.000031323   -0.000007617
  23   H   :    0.000011014    0.000000464    0.000038434
  24   H   :   -0.000015086   -0.000032308   -0.000004766
  25   H   :    0.000005719    0.000007365    0.000002595
  26   H   :    0.000000167   -0.000005258    0.000000133
  27   H   :   -0.000001192   -0.000012273    0.000008822
  28   H   :    0.000011394    0.000003699    0.000012279
  29   H   :   -0.000004236    0.000007032   -0.000000808
  30   H   :    0.000021184    0.000033982   -0.000021822
  31   H   :   -0.000069026   -0.000003224    0.000035548
  32   H   :   -0.000008153    0.000053428   -0.000000787
  33   H   :   -0.000049532   -0.000001185    0.000006964
  34   H   :    0.000024733   -0.000005759   -0.000003751
  35   H   :   -0.000004613   -0.000009389   -0.000009963
  36   H   :    0.000000916   -0.000027677   -0.000019244
  37   H   :    0.000009667    0.000010807    0.000004864
  38   H   :    0.000012531   -0.000005051   -0.000006544
  39   H   :   -0.000019351   -0.000011761    0.000001605
  40   H   :    0.000000596    0.000011781   -0.000023053
  41   H   :    0.000014334   -0.000020860   -0.000003813

Difference to translation invariance:
           :   -0.0000000000    0.0000000000   -0.0000000000

Difference to rotation invariance:
           :   -0.0000307077    0.0009959569    0.0002615718

Norm of the Cartesian gradient     ...    0.0006835242
RMS gradient                       ...    0.0000616313
MAX gradient                       ...    0.0003592730

-------
TIMINGS
-------

Total SCF gradient time     ....       49.218 sec

Densities                   ....       0.007 sec  (  0.0%)
One electron gradient       ....       2.315 sec  (  4.7%)
RI-J Coulomb gradient       ....       9.480 sec  ( 19.3%)
XC gradient                 ....      23.051 sec  ( 46.8%)
CPCM gradient               ....       8.201 sec  ( 16.7%)
   A-Matrix (El+Nuc)        ....       0.281 sec  (  0.6%)
   Potential                ....       7.920 sec  ( 16.1%)
SMD gradient                ....       0.015 sec  (  0.0%)

Maximum memory used throughout the entire SCFGRAD-calculation: 85.1 MB

------------------------------------------------------------------------------
                              ORCA PROPERTY CALCULATIONS
------------------------------------------------------------------------------

GBWName                                 ... xtb_opt.gbw
Number of atoms                         ...     41
Number of basis functions               ...    539
Max core memory                         ...   1024 MB

Electric properties:
Dipole moment                           ... YES
Quadrupole moment                       ...  NO
Static polarizability (Dipole/Dipole)   ...  NO
Static polarizability (Dipole/Quad.)    ...  NO
Static polarizability (Quad./Quad.)     ...  NO
Static polarizability (Velocity)        ...  NO

Atomic electric properties:
Dipole moment                           ...  NO
Quadrupole moment                       ...  NO
Static polarizability                   ...  NO

Choice of electric origin               ... Center of mass
Position of electric origin             ...    -0.068543     0.042075    -0.225780

General magnetic properties:
Magnetizability                         ...  NO

EPR properties:
g-Tensor (aka g-matrix)                 ...  NO
Zero-Field splitting spin-orbit         ...  NO
Zero-field splitting spin-spin          ...  NO
Hyperfine couplings                     ...  NO (   0 nuclei)
Quadrupole couplings                    ...  NO (   0 nuclei)
Contact density                         ...  NO (   0 nuclei)

NMR properties:
Chemical shifts                         ...  NO (   0 nuclei)
Spin-rotation constants                 ...  NO (   0 nuclei)
Spin-spin couplings                     ...  NO (   0 nuclei,    0 pairs)

Choice of magnetic origin               ... GIAO
Position of magnetic origin             ...     0.000000     0.000000     0.000000

Properties with geometric perturbations:
SCF Hessian                             ...  NO
IR spectrum                             ...  NO
VCD spectrum                            ...  NO
X-ray spectroscopy properties:
SCF XES/XAS/RIXS spectra                ...  NO


-------------
DIPOLE MOMENT
-------------

Method             : SCF
Type of density    : Electron Density
Multiplicity       :   1
Irrep              :   0
Energy             : -2932.5087447593477918 Eh
Relativity type    : 
Basis              : AO
                                X                 Y                 Z
Electronic contribution:     -3.698404741      -4.342649777     -13.339408394
Nuclear contribution   :      3.500055718       3.109383321      14.884396444
                        -----------------------------------------
Total Dipole Moment    :     -0.198349023      -1.233266456       1.544988050
                        -----------------------------------------
Magnitude (a.u.)       :      1.986775418
Magnitude (Debye)      :      5.049981783



--------------------
Rotational spectrum 
--------------------
 
Rotational constants in cm-1:             0.012748             0.004668             0.004478 
Rotational constants in MHz :           382.182866           139.957592           134.254957 

Dipole components along the rotational axes: 
x,y,z [a.u.] :    -0.351203    -0.621438    -1.854116 
x,y,z [Debye]:    -0.892687    -1.579570    -4.712789 

 

Dipole moment calculation done in   0.1 sec 

Maximum memory used throughout the entire PROP-calculation: 52.3 MB

--------------------------------
SUGGESTED CITATIONS FOR THIS RUN
--------------------------------

Below you find a list of papers that are relevant to this ORCA run
We neither can nor want to force you to cite these papers, but we appreciate if you do
You receive ORCA, which is the product of decades of hard work by many enthusiastic individuals, for free
The only thing we kindly ask in return is that you cite our papers,
We deeply appreciate it, if you show your appreciation for ORCA by not just citing the generic ORCA reference.

Please note that relegating all ORCA citations to the supporting information does *not* help us.
SI sections are not indexed - citations you put there will not count into any citation statistics
But we need these citations in order to attract the funding resources that allow us to do what we are doing

Therefore, if you are a happy ORCA user, please consider citing a few of the papers listed below in the main body of your paper

In addition to the list printed below, the program has created the file xtb_opt.bibtex that contains the list in bibtex format
You can import this file easily into all common literature databanks and citation aid programs


List of essential papers. We consider these as the minimum necessary citations

  1. Neese,F.
     Software update: the ORCA program system, version 5.0
     WIRES Comput. Molec. Sci., 2022 12(1)e1606
     doi.org/10.1002/wcms.1606
  2. Grimme,S.; Hansen,A.; Ehlert,S.; Mewes,J.
     r2SCAN-3c: A 'Swiss army knife' composite electronic-structure method
     J. Chem. Phys., 2021 154 064103
     doi.org/10.1063/5.0040021

List of papers to cite with high priority. The work reported in these papers was absolutely
necessary for this run to complete.
Our perspective: the developers of density functionals and basis sets usually get cited in chemistry papers
Good! But without the algorithms to do something with them, the functionals or basis sets would not do anything.
Hence, in our opinion, the algorithm design and method developments papers are equally worthy of getting cited

  1. Neese,F.
     An improvement of the resolution of the identity approximation for the formation of the Coulomb matrix
     J. Comp. Chem., 2003 24(14)1740-1747
     doi.org/10.1002/jcc.10318
  2. Garcia-Rates,M.; Neese,F.
     Effect of the Solute Cavity on the Solvation Energy and its Derivatives within the Framework of the Gaussian Charge Scheme
     J. Comput. Chem., 2020 41 922-939
     doi.org/10.1002/jcc.26139
  3. Neese,F.
     The SHARK Integral Generation and Digestion System
     J. Comp. Chem., 2022  1-16
     doi.org/10.1002/jcc.26942
  4. Lehtola,S.; Steigemann,C.; Oliveira,M.; Marques,M.
     Recent developments in Libxc - A comprehensive library of functionals for density functional theory
     Software X, 2018 7 
     doi.org/10.1016/j.softx.2017.11.002
  5. Caldeweyher,E.; Bannwarth,C.; Grimme,S.
     Extension of the D3 dispersion coefficient model
     J. Chem. Phys., 2017 147 034112-XXXX
     doi.org/10.1063/1.4993215
  6. Caldeweyher,E.; Ehlert,S.; Hansen,A.; Neugebauer,H.; Spicher,S.; Bannwarth,C.; Grimme,S.
     A generally applicable atomic-charge dependent London dispersion correction
     J. Chem. Phys., 2019 150 154122-XXXX
     doi.org/10.1063/1.5090222
  7. Caldeweyher,E.; Mewes,J.; Ehlert,S.; Grimme,S.
     Extension and evaluation of the D4 London-dispersion model for periodic systems
     Phys. Chem. Chem. Phys., 2020 22(16)8499-8512
     doi.org/10.1039/D0CP00502A

List of suggested additional citations. These are papers that are important in the 'surrounding' of 
of this run, or papers that preceded the highly important papers. If you like your results we are grateful for a citation.

  1. Neese,F.
     The ORCA program system
     WIRES Comput. Molec. Sci., 2012 2(1)73-78
     doi.org/10.1002/wcms.81
  2. Neese,F.
     Software update: the ORCA program system, version 4.0
     WIRES Comput. Molec. Sci., 2018 8(1)1-6
     doi.org/10.1002/wcms.1327
  3. Neese,F.; Wennmohs,F.; Becker,U.; Riplinger,C.
     The ORCA quantum chemistry program package
     J. Chem. Phys., 2020 152 Art. No. L224108
     doi.org/10.1063/5.0004608

List of optional additional citations

  1. Neese,F.
     Approximate second-order SCF convergence for spin unrestricted wavefunctions
     Chem. Phys. Lett., 2000 325(1-3)93-98
     doi.org/10.1016/s0009-2614(00)00662-x

Timings for individual modules:

Sum of individual times          ...      100.898 sec (=   1.682 min)
Startup calculation              ...        3.241 sec (=   0.054 min)   3.2 %
SCF iterations                   ...       47.990 sec (=   0.800 min)  47.6 %
Property calculations            ...        0.283 sec (=   0.005 min)   0.3 %
SCF Gradient evaluation          ...       49.384 sec (=   0.823 min)  48.9 %
                             ****ORCA TERMINATED NORMALLY****
TOTAL RUN TIME: 0 days 0 hours 1 minutes 41 seconds 901 msec
  ------------------------------------------------------------------------
          * successful ORCA run, taking over control again...

         :::::::::::::::::::::::::::::::::::::::::::::::::::::
         ::                  ORCA SUMMARY                   ::
         :::::::::::::::::::::::::::::::::::::::::::::::::::::
         :: total energy           -2932.484814272264 Eh    ::
         :: gradient norm              0.000683524181 Eh/a0 ::
         :: HOMO-LUMO gap              0.000000000000 eV    ::
         :::::::::::::::::::::::::::::::::::::::::::::::::::::

           -------------------------------------------------
          |                Property Printout                |
           -------------------------------------------------
           -------------------------------------------------
          |                Geometry Summary                 |
           -------------------------------------------------

      molecular mass/u    :      384.4756129
   center of mass at/Å    :       -0.0362777       0.0222512      -0.1195319
  moments of inertia/u·Å² :        0.1322406E+04   0.3611019E+04   0.3764368E+04
rotational constants/cm⁻¹ :        0.1274770E-01   0.4668387E-02   0.4478211E-02

 * 34 selected distances

     #   Z          #   Z                                           value/Å
     1   6 C        2   6 C                                       1.5063549
     3   8 O        4  15 P                                       1.6112414
     4  15 P        5  16 S                                       1.9483392
     4  15 P        6   8 O                                       1.6040573
     7   6 C        8   6 C                                       1.5063657
     4  15 P        9  16 S                                       2.1147595
    11  16 S       12  15 P                                       2.1305422 (max)
    12  15 P       13  16 S                                       1.9418788
    12  15 P       14   8 O                                       1.6021730
    15   6 C       16   6 C                                       1.5064744
    12  15 P       17   8 O                                       1.6072766
    18   6 C       19   6 C                                       1.5076207
     1   6 C       20   1 H                                       1.0943848
     1   6 C       21   1 H                                       1.0936860
     1   6 C       22   1 H                                       1.0936397
     2   6 C       23   1 H                                       1.0940651
     2   6 C       24   1 H                                       1.0944028
     7   6 C       25   1 H                                       1.0948115
     7   6 C       26   1 H                                       1.0939531
     8   6 C       27   1 H                                       1.0936366
     8   6 C       28   1 H                                       1.0944360
     8   6 C       29   1 H                                       1.0937340
    10   6 C       30   1 H                                       1.0924030
    10   6 C       31   1 H                                       1.0953513
    15   6 C       32   1 H                                       1.0936906
    15   6 C       33   1 H                                       1.0948406
    16   6 C       34   1 H                                       1.0936663
    16   6 C       35   1 H                                       1.0944500
    16   6 C       36   1 H                                       1.0936846
    18   6 C       37   1 H                                       1.0916202 (min)
    18   6 C       38   1 H                                       1.0938252
    19   6 C       39   1 H                                       1.0938938
    19   6 C       40   1 H                                       1.0949927
    19   6 C       41   1 H                                       1.0936595

 * 4 distinct bonds (by element types)

   Z      Z             #   av. dist./Å        max./Å        min./Å
   1 H    6 C          22     1.0939467     1.0953513     1.0916202
   6 C    6 C           4     1.5067039     1.5076207     1.5063549
   8 O   15 P           4     1.6061871     1.6112414     1.6021730
  15 P   16 S           4     2.0338799     2.1305422     1.9418788


optimized geometry written to: xtbopt.coord


           -------------------------------------------------
          | TOTAL ENERGY            -2932.484814272264 Eh   |
          | GRADIENT NORM               0.000683524181 Eh/α |
           -------------------------------------------------

------------------------------------------------------------------------
 * finished run on 2025/04/10 at 21:21:04.103     
------------------------------------------------------------------------
 total:
 * wall-time:     0 d,  0 h, 10 min, 24.117 sec
 *  cpu-time:     0 d,  0 h,  0 min,  3.781 sec
 * ratio c/w:     0.006 speedup
 SCF:
 * wall-time:     0 d,  0 h,  1 min, 42.434 sec
 *  cpu-time:     0 d,  0 h,  0 min,  1.481 sec
 * ratio c/w:     0.014 speedup
 ANC optimizer:
 * wall-time:     0 d,  0 h,  8 min, 41.598 sec
 *  cpu-time:     0 d,  0 h,  0 min,  2.038 sec
 * ratio c/w:     0.004 speedup

