
                                 *****************
                                 * O   R   C   A *
                                 *****************

                                            #,                                       
                                            ###                                      
                                            ####                                     
                                            #####                                    
                                            ######                                   
                                           ########,                                 
                                     ,,################,,,,,                         
                               ,,#################################,,                 
                          ,,##########################################,,             
                       ,#########################################, ''#####,          
                    ,#############################################,,   '####,        
                  ,##################################################,,,,####,       
                ,###########''''           ''''###############################       
              ,#####''   ,,,,##########,,,,          '''####'''          '####       
            ,##' ,,,,###########################,,,                        '##       
           ' ,,###''''                  '''############,,,                           
         ,,##''                                '''############,,,,        ,,,,,,###''
      ,#''                                            '''#######################'''  
     '                                                          ''''####''''         
             ,#######,   #######,   ,#######,      ##                                
            ,#'     '#,  ##    ##  ,#'     '#,    #''#        ,####,   ,####,        
            ##       ##  ##   ,#'  ##            #'  '#       #'       #'  '#        
            ##       ##  #######   ##           ,######,      #####,   #    #        
            '#,     ,#'  ##    ##  '#,     ,#' ,#      #,     #,   #   #,  ,#        
             '#######'   ##     ##  '#######'  #'      '#     '####' # '####'        



                #########################################################
                #                        -***-                          #
                #          Department of theory and spectroscopy        #
                #                                                       #
                #                      Frank Neese                      #
                #                                                       #
                #     Directorship, Architecture, Infrastructure        #
                #                    SHARK, DRIVERS                     #
                #        Core code/Algorithms in most modules           #
                #                                                       #
                #        Max Planck Institute fuer Kohlenforschung      #
                #                Kaiser Wilhelm Platz 1                 #
                #                 D-45470 Muelheim/Ruhr                 #
                #                      Germany                          #
                #                                                       #
                #                  All rights reserved                  #
                #                        -***-                          #
                #########################################################


                         Program Version 6.0.0  -   RELEASE  -


 With contributions from (in alphabetic order):
   Daniel Aravena         : Magnetic Suceptibility
   Michael Atanasov       : Ab Initio Ligand Field Theory (pilot matlab implementation)
   Alexander A. Auer      : GIAO ZORA, VPT2 properties, NMR spectrum
   Ute Becker             : All parallelization in ORCA, NUMFREQ, NUMCALC
   Giovanni Bistoni       : ED, misc. LED, open-shell LED, HFLD
   Martin Brehm           : Molecular dynamics
   Dmytro Bykov           : pre 5.0 version of the SCF Hessian
   Marcos Casanova-Páez   : Triplet and SCS-CIS(D). UHF-(DLPNO)-IP/EA/STEOM-CCSD. UHF-CVS-IP/STEOM-CCSD
   Vijay G. Chilkuri      : MRCI spin determinant printing, contributions to CSF-ICE
   Pauline Colinet        : FMM embedding
   Dipayan Datta          : RHF DLPNO-CCSD density
   Achintya Kumar Dutta   : EOM-CC, STEOM-CC
   Nicolas Foglia         : Exact transition moments, OPA infrastructure, MCD improvements
   Dmitry Ganyushin       : Spin-Orbit,Spin-Spin,Magnetic field MRCI
   Miquel Garcia          : C-PCM and meta-GGA Hessian, CCSD/C-PCM, Gaussian charge scheme
   Tiago L. C. Gouveia    : GS-ROHF, GS-ROCIS
   Yang Guo               : DLPNO-NEVPT2, F12-NEVPT2, CIM, IAO-localization
   Andreas Hansen         : Spin unrestricted coupled pair/coupled cluster methods
   Ingolf Harden          : AUTO-CI MPn and infrastructure 
   Benjamin Helmich-Paris : MC-RPA, TRAH-(SCF,CASSCF), AVAS, COSX integrals, SCF dyn. polar.
   Lee Huntington         : MR-EOM, pCC
   Robert Izsak           : Overlap fitted RIJCOSX, COSX-SCS-MP3, EOM
   Riya Kayal             : Wick's Theorem for AUTO-CI, AUTO-CI UHF-CCSDT
   Emily Kempfer          : AUTO-CI, RHF CISDT and CCSDT
   Christian Kollmar      : KDIIS, OOCD, Brueckner-CCSD(T), CCSD density, CASPT2, CASPT2-K, improved NEVPT2
   Axel Koslowski         : Symmetry handling
   Simone Kossmann        : Meta GGA functionals, TD-DFT gradient, OOMP2, (MP2 Hessian; deprecated post 5.0)
   Lucas Lang             : DCDCAS
   Marvin Lechner         : AUTO-CI (C++ implementation), FIC-MRCC
   Spencer Leger          : CASSCF response
   Dagmar Lenk            : GEPOL surface, SMD, ORCA-2-JSON
   Dimitrios Liakos       : Extrapolation schemes; Compound Job, initial MDCI parallelization
   Dimitrios Manganas     : Further ROCIS development; embedding schemes. LFT, Crystal Embedding
   Dimitrios Pantazis     : SARC Basis sets
   Anastasios Papadopoulos: AUTO-CI, single reference methods and gradients
   Taras Petrenko         : pre 6.0 DFT Hessian and TD-DFT gradient, (ASA, deprecated), ECA, 1-Electron XAS/XES, NRVS
   Peter Pinski           : DLPNO-MP2, DLPNO-MP2 Gradient
   Christoph Reimann      : Effective Core Potentials
   Marius Retegan         : Local ZFS, SOC
   Christoph Riplinger    : Optimizer, TS searches, QM/MM, DLPNO-CCSD(T), (RO)-DLPNO pert. Triples
   Michael Roemelt        : Original ROCIS implementation
   Masaaki Saitow         : Open-shell DLPNO-CCSD energy and density
   Barbara Sandhoefer     : DKH picture change effects
   Kantharuban Sivalingam : CASSCF convergence/infrastructure, NEVPT2 and variants, FIC-MRCI
   Bernardo de Souza      : ESD, SOC TD-DFT
   Georgi Stoychev        : AutoAux, RI-MP2 NMR, DLPNO-MP2 response, X2C
   Van Anh Tran           : RI-MP2 g-tensors
   Willem Van den Heuvel  : Paramagnetic NMR
   Zikuan Wang            : NOTCH, Electric field optimization 
   Frank Wennmohs         : Technical directorship and infrastructure
   Hang Xu                : AUTO-CI-Response properties 


 We gratefully acknowledge several colleagues who have allowed us to
 interface, adapt or use parts of their codes:
   Stefan Grimme, W. Hujo, H. Kruse, P. Pracht,  : VdW corrections, initial TS optimization,
                  C. Bannwarth, S. Ehlert,         DFT functionals, gCP, sTDA/sTD-DF
                  L. Wittmann, M. Mueller
   Ed Valeev, F. Pavosevic, A. Kumar             : LibInt (2-el integral package), F12 methods
   Garnet Chan, S. Sharma, J. Yang, R. Olivares  : DMRG
   Ulf Ekstrom                                   : XCFun DFT Library
   Mihaly Kallay                                 : mrcc  (arbitrary order and MRCC methods)
   Frank Weinhold                                : gennbo (NPA and NBO analysis)
   Simon Mueller                                 : openCOSMO-RS
   Christopher J. Cramer and Donald G. Truhlar   : smd solvation model
   Lars Goerigk                                  : TD-DFT with DH, B97 family of functionals
   V. Asgeirsson, H. Jonsson                     : NEB implementation
   FAccTs GmbH                                   : IRC, NEB, NEB-TS, DLPNO-Multilevel, CI-OPT
                                                   MM, QMMM, 2- and 3-layer-ONIOM, Crystal-QMMM,
                                                   LR-CPCM, SF, NACMEs, symmetry and pop. for TD-DFT,
                                                   nearIR, NL-DFT gradient (VV10), updates on ESD,
                                                   ML-optimized integration grids, MBIS, APM,
                                                   GOAT, DOCKER, SOLVATOR, interface openCOSMO-RS
   S Lehtola, MJT Oliveira, MAL Marques          : LibXC Library
   Liviu Ungur et al                             : ANISO software


 Your calculation uses the libint2 library for the computation of 2-el integrals
 For citations please refer to: http://libint.valeyev.net

 Your ORCA version has been built with support for libXC version: 6.2.2
 For citations please refer to: https://libxc.gitlab.io

 This ORCA versions uses:
   CBLAS   interface :  Fast vector & matrix operations
   LAPACKE interface :  Fast linear algebra routines
   SCALAPACK package :  Parallel linear algebra routines
   Shared memory     :  Shared parallel matrices
   BLAS/LAPACK       :  OpenBLAS 0.3.27  USE64BITINT DYNAMIC_ARCH NO_AFFINITY SapphireRapids SINGLE_THREADED
        Core in use  :  SapphireRapids
   Copyright (c) 2011-2014, The OpenBLAS Project


Your calculation utilizes the geometrical counterpoise correction gCP
Please cite in your paper:
H.Kruse, S. Grimme J.Chem.Phys., 136, (2012), 154101 
   

Your calculation utilizes the atom-pairwise dispersion correction
based on EEQ partial charges (D4)


================================================================================

----- Orbital basis set information -----
Your calculation utilizes the basis: def2-SV(P)
   F. Weigend and R. Ahlrichs, Phys. Chem. Chem. Phys. 7, 3297 (2005).

----- AuxJ basis set information -----
Your calculation utilizes the auxiliary basis: def2/J
   F. Weigend, Phys. Chem. Chem. Phys. 8, 1057 (2006).

================================================================================
                                        WARNINGS
                       Please study these warnings very carefully!
================================================================================


================================================================================
                                       INPUT FILE
================================================================================
NAME = sp.inp
|  1> ! pbe def2-sv(p) def2/J RI DEFGRID1 loosescf d4 GCP(DFT/SV(P)) printgap
|  2> %output
|  3>     printlevel normal
|  4> end
|  5> * xyz 0 1
|  6> C 1.3323535802 3.2945329552 0.2818333674
|  7> C 1.2496829213 2.0011809343 1.0659156408
|  8> O 2.0674799792 1.0290001485 0.3838790658
|  9> P 2.268534777 -0.4216667753 0.985826079
| 10> S 2.7353238692 -0.5132159644 2.8843039644
| 11> O 3.3695663449 -0.8896143207 -0.0537562188
| 12> C 4.2911772264 -1.9483936719 0.2628970575
| 13> C 3.6156752325 -3.3055947155 0.261486156
| 14> S 0.4968572994 -1.4857640023 0.4555737873
| 15> C 0.4863434046 -1.0912675902 -1.3186309133
| 16> S -0.2436615921 0.5168432019 -1.722956506
| 17> P -2.1667593688 0.1308219895 -0.9484687577
| 18> S -2.9073941853 -1.6530816943 -1.2337976941
| 19> O -3.0958646346 1.254125179 -1.5665545063
| 20> C -2.8280336114 2.6740100362 -1.4357758001
| 21> C -2.1810106717 3.2171128002 -2.6938036712
| 22> O -1.9176901224 0.5486601242 0.5842417447
| 23> C -2.6835507077 -0.0262525755 1.6566408105
| 24> C -4.0940843393 0.5258940956 1.6830114754
| 25> H 0.7302429791 4.0506398337 0.7747195362
| 26> H 2.3636050692 3.630613889 0.2318841659
| 27> H 0.9651855402 3.1350033854 -0.7283675948
| 28> H 0.2208511733 1.6295850454 1.1128146277
| 29> H 1.627674061 2.1166982963 2.086977515
| 30> H 5.0537172339 -1.874875377 -0.5137574534
| 31> H 4.7361380624 -1.74296181 1.2415973377
| 32> H 4.3593705367 -4.0763252059 0.4369205545
| 33> H 2.8694969609 -3.3494903536 1.0546147422
| 34> H 3.1270586222 -3.4903472799 -0.6919351844
| 35> H -0.1025871239 -1.8748875423 -1.7938855971
| 36> H 1.5066837886 -1.0689605275 -1.694704511
| 37> H -3.810887338 3.1203039389 -1.2748370686
| 38> H -2.1972629261 2.839425555 -0.559033287
| 39> H -1.201808735 2.7682821559 -2.8462685762
| 40> H -2.8035613885 2.9958492719 -3.5561909957
| 41> H -2.0694743842 4.2925909106 -2.5984931983
| 42> H -2.6927008565 -1.1139851932 1.5327920916
| 43> H -2.1249723263 0.2322588089 2.5580002899
| 44> H -4.6081289086 0.2602860088 0.7592897717
| 45> H -4.6325247901 0.0966581387 2.5219544595
| 46> H -4.0768738452 1.60824658 1.781527737
| 47> *
| 48> 
| 49>                          ****END OF INPUT****
================================================================================

                       ****************************
                       * Single Point Calculation *
                       ****************************

---------------------------------
CARTESIAN COORDINATES (ANGSTROEM)
---------------------------------
  C      1.332354    3.294533    0.281833
  C      1.249683    2.001181    1.065916
  O      2.067480    1.029000    0.383879
  P      2.268535   -0.421667    0.985826
  S      2.735324   -0.513216    2.884304
  O      3.369566   -0.889614   -0.053756
  C      4.291177   -1.948394    0.262897
  C      3.615675   -3.305595    0.261486
  S      0.496857   -1.485764    0.455574
  C      0.486343   -1.091268   -1.318631
  S     -0.243662    0.516843   -1.722957
  P     -2.166759    0.130822   -0.948469
  S     -2.907394   -1.653082   -1.233798
  O     -3.095865    1.254125   -1.566555
  C     -2.828034    2.674010   -1.435776
  C     -2.181011    3.217113   -2.693804
  O     -1.917690    0.548660    0.584242
  C     -2.683551   -0.026253    1.656641
  C     -4.094084    0.525894    1.683011
  H      0.730243    4.050640    0.774720
  H      2.363605    3.630614    0.231884
  H      0.965186    3.135003   -0.728368
  H      0.220851    1.629585    1.112815
  H      1.627674    2.116698    2.086978
  H      5.053717   -1.874875   -0.513757
  H      4.736138   -1.742962    1.241597
  H      4.359371   -4.076325    0.436921
  H      2.869497   -3.349490    1.054615
  H      3.127059   -3.490347   -0.691935
  H     -0.102587   -1.874888   -1.793886
  H      1.506684   -1.068961   -1.694705
  H     -3.810887    3.120304   -1.274837
  H     -2.197263    2.839426   -0.559033
  H     -1.201809    2.768282   -2.846269
  H     -2.803561    2.995849   -3.556191
  H     -2.069474    4.292591   -2.598493
  H     -2.692701   -1.113985    1.532792
  H     -2.124972    0.232259    2.558000
  H     -4.608129    0.260286    0.759290
  H     -4.632525    0.096658    2.521954
  H     -4.076874    1.608247    1.781528

----------------------------
CARTESIAN COORDINATES (A.U.)
----------------------------
  NO LB      ZA    FRAG     MASS         X           Y           Z
   0 C     6.0000    0    12.011    2.517783    6.225765    0.532588
   1 C     6.0000    0    12.011    2.361558    3.781684    2.014289
   2 O     8.0000    0    15.999    3.906971    1.944528    0.725426
   3 P    15.0000    0    30.974    4.286909   -0.796835    1.862941
   4 S    16.0000    0    32.060    5.169013   -0.969838    5.450545
   5 O     8.0000    0    15.999    6.367558   -1.681127   -0.101585
   6 C     6.0000    0    12.011    8.109150   -3.681930    0.496803
   7 C     6.0000    0    12.011    6.832636   -6.246669    0.494137
   8 S    16.0000    0    32.060    0.938924   -2.807687    0.860910
   9 C     6.0000    0    12.011    0.919056   -2.062197   -2.491851
  10 S    16.0000    0    32.060   -0.460454    0.976692   -3.255916
  11 P    15.0000    0    30.974   -4.094582    0.247218   -1.792346
  12 S    16.0000    0    32.060   -5.494179   -3.123872   -2.331540
  13 O     8.0000    0    15.999   -5.850336    2.369953   -2.960359
  14 C     6.0000    0    12.011   -5.344209    5.053147   -2.713223
  15 C     6.0000    0    12.011   -4.121513    6.079462   -5.090551
  16 O     8.0000    0    15.999   -3.623909    1.036817    1.104057
  17 C     6.0000    0    12.011   -5.071176   -0.049610    3.130597
  18 C     6.0000    0    12.011   -7.736698    0.993796    3.180431
  19 H     1.0000    0     1.008    1.379959    7.654600    1.464008
  20 H     1.0000    0     1.008    4.466566    6.860866    0.438198
  21 H     1.0000    0     1.008    1.823936    5.924298   -1.376415
  22 H     1.0000    0     1.008    0.417348    3.079469    2.102915
  23 H     1.0000    0     1.008    3.075858    3.999980    3.943816
  24 H     1.0000    0     1.008    9.550142   -3.543001   -0.970861
  25 H     1.0000    0     1.008    8.950004   -3.293720    2.346279
  26 H     1.0000    0     1.008    8.238016   -7.703138    0.825660
  27 H     1.0000    0     1.008    5.422563   -6.329619    1.992933
  28 H     1.0000    0     1.008    5.909284   -6.595800   -1.307568
  29 H     1.0000    0     1.008   -0.193862   -3.543024   -3.389952
  30 H     1.0000    0     1.008    2.847220   -2.020043   -3.202527
  31 H     1.0000    0     1.008   -7.201533    5.896520   -2.409093
  32 H     1.0000    0     1.008   -4.152225    5.365737   -1.056420
  33 H     1.0000    0     1.008   -2.271089    5.231295   -5.378668
  34 H     1.0000    0     1.008   -5.297963    5.661335   -6.720227
  35 H     1.0000    0     1.008   -3.910740    8.111821   -4.910441
  36 H     1.0000    0     1.008   -5.088467   -2.105127    2.896557
  37 H     1.0000    0     1.008   -4.015616    0.438906    4.833920
  38 H     1.0000    0     1.008   -8.708102    0.491869    1.434850
  39 H     1.0000    0     1.008   -8.754203    0.182657    4.765803
  40 H     1.0000    0     1.008   -7.704175    3.039146    3.366600

--------------------------------
INTERNAL COORDINATES (ANGSTROEM)
--------------------------------
 C      0   0   0     0.000000000000     0.00000000     0.00000000
 C      1   0   0     1.514720733095     0.00000000     0.00000000
 O      2   1   0     1.441908942280   107.45112874     0.00000000
 P      3   2   1     1.583413326402   120.65748032   176.62114627
 S      4   3   2     1.957164170931   116.22501979   312.09865589
 O      4   3   2     1.584921692910    96.27800813   187.59693637
 C      6   4   3     1.438975200905   121.18659900   156.94812798
 C      7   6   4     1.516014382239   111.90861098    72.56411632
 S      4   3   2     2.133614652649   104.89239692    79.73210579
 C      9   4   3     1.817564381466    97.99865753    50.67792886
 S     10   9   4     1.811741372213   114.38262522   277.01016433
 P     11  10   9     2.108826381530    97.06559308   299.40073930
 S     12  11  10     1.952502211634   117.35435070   320.69327251
 O     12  11  10     1.583375079727   105.18178119   195.91985328
 C     14  12  11     1.450830636115   123.42139852   304.70590771
 C     15  14  12     1.515332775738   110.77807281    99.76832955
 O     12  11  10     1.608050272995    99.27897741    86.23457948
 C     17  12  11     1.437743650558   121.63690038   207.05159179
 C     18  17  12     1.514980687748   111.29714237   286.35971439
 H      1   2   3     1.084975374406   109.24435477   180.34998324
 H      1   2   3     1.085783104657   109.87338072   300.37753113
 H      1   2   3     1.086631509422   109.72067289    60.05409160
 H      2   1   3     1.094887110762   111.29991860   240.82218596
 H      2   1   3     1.094892192666   111.95062337   118.96899554
 H      7   6   4     1.090900743434   103.97108895   193.37922840
 H      7   6   4     1.094553166329   108.60423566   310.32754512
 H      8   7   6     1.085304299493   109.28574039   176.13729267
 H      8   7   6     1.089844848728   109.90438995   295.51429009
 H      8   7   6     1.087148542860   110.68437585    55.82226348
 H     10   9   4     1.089388090261   105.83404298   157.17588961
 H     10   9   4     1.087668816853   109.66606398    36.44957493
 H     15  14  12     1.091366561140   104.31491180   219.41391673
 H     15  14  12     1.092662521354   109.09013417   336.75227028
 H     16  15  14     1.087902076180   110.65894540   295.41053781
 H     16  15  14     1.086387979224   109.95877711    55.50024151
 H     16  15  14     1.085438895389   109.03181839   175.30817483
 H     18  17  12     1.094798829925   108.50359052    48.61658242
 H     18  17  12     1.091460881175   104.39804224   165.26253454
 H     19  18  17     1.089977642379   109.60493001    62.49629466
 H     19  18  17     1.085351075148   109.34248164   181.86083777
 H     19  18  17     1.086962996331   110.47188290   302.27035460

---------------------------
INTERNAL COORDINATES (A.U.)
---------------------------
 C      0   0   0     0.000000000000     0.00000000     0.00000000
 C      1   0   0     2.862407354923     0.00000000     0.00000000
 O      2   1   0     2.724813010961   107.45112874     0.00000000
 P      3   2   1     2.992217543700   120.65748032   176.62114627
 S      4   3   2     3.698504282182   116.22501979   312.09865589
 O      4   3   2     2.995067943311    96.27800813   187.59693637
 C      6   4   3     2.719269043214   121.18659900   156.94812798
 C      7   6   4     2.864851997517   111.90861098    72.56411632
 S      4   3   2     4.031947368828   104.89239692    79.73210579
 C      9   4   3     3.434698911741    97.99865753    50.67792886
 S     10   9   4     3.423695018977   114.38262522   277.01016433
 P     11  10   9     3.985104325080    97.06559308   299.40073930
 S     12  11  10     3.689694455863   117.35435070   320.69327251
 O     12  11  10     2.992145267960   105.18178119   195.91985328
 C     14  12  11     2.741672568960   123.42139852   304.70590771
 C     15  14  12     2.863563947900   110.77807281    99.76832955
 O     12  11  10     3.038774625538    99.27897741    86.23457948
 C     17  12  11     2.716941750340   121.63690038   207.05159179
 C     18  17  12     2.862898598023   111.29714237   286.35971439
 H      1   2   3     2.050306319675   109.24435477   180.34998324
 H      1   2   3     2.051832708641   109.87338072   300.37753113
 H      1   2   3     2.053435961296   109.72067289    60.05409160
 H      2   1   3     2.069036786900   111.29991860   240.82218596
 H      2   1   3     2.069046390306   111.95062337   118.96899554
 H      7   6   4     2.061503644381   103.97108895   193.37922840
 H      7   6   4     2.068405723378   108.60423566   310.32754512
 H      8   7   6     2.050927898009   109.28574039   176.13729267
 H      8   7   6     2.059508292561   109.90438995   295.51429009
 H      8   7   6     2.054413012898   110.68437585    55.82226348
 H     10   9   4     2.058645144149   105.83404298   157.17588961
 H     10   9   4     2.055396188258   109.66606398    36.44957493
 H     15  14  12     2.062383912275   104.31491180   219.41391673
 H     15  14  12     2.064832922158   109.09013417   336.75227028
 H     16  15  14     2.055836984504   110.65894540   295.41053781
 H     16  15  14     2.052975755917   109.95877711    55.50024151
 H     16  15  14     2.051182247391   109.03181839   175.30817483
 H     18  17  12     2.068869960295   108.50359052    48.61658242
 H     18  17  12     2.062562151310   104.39804224   165.26253454
 H     19  18  17     2.059759236194   109.60493001    62.49629466
 H     19  18  17     2.051016291186   109.34248164   181.86083777
 H     19  18  17     2.054062380773   110.47188290   302.27035460

---------------------
BASIS SET INFORMATION
---------------------
There are 5 groups of distinct atoms

 Group   1 Type C   : 7s4p1d contracted to 3s2p1d pattern {511/31/1}
 Group   2 Type O   : 7s4p1d contracted to 3s2p1d pattern {511/31/1}
 Group   3 Type P   : 10s7p1d contracted to 4s3p1d pattern {5311/511/1}
 Group   4 Type S   : 10s7p1d contracted to 4s3p1d pattern {5311/511/1}
 Group   5 Type H   : 4s contracted to 2s pattern {31}

Atom   0C    basis set group =>   1
Atom   1C    basis set group =>   1
Atom   2O    basis set group =>   2
Atom   3P    basis set group =>   3
Atom   4S    basis set group =>   4
Atom   5O    basis set group =>   2
Atom   6C    basis set group =>   1
Atom   7C    basis set group =>   1
Atom   8S    basis set group =>   4
Atom   9C    basis set group =>   1
Atom  10S    basis set group =>   4
Atom  11P    basis set group =>   3
Atom  12S    basis set group =>   4
Atom  13O    basis set group =>   2
Atom  14C    basis set group =>   1
Atom  15C    basis set group =>   1
Atom  16O    basis set group =>   2
Atom  17C    basis set group =>   1
Atom  18C    basis set group =>   1
Atom  19H    basis set group =>   5
Atom  20H    basis set group =>   5
Atom  21H    basis set group =>   5
Atom  22H    basis set group =>   5
Atom  23H    basis set group =>   5
Atom  24H    basis set group =>   5
Atom  25H    basis set group =>   5
Atom  26H    basis set group =>   5
Atom  27H    basis set group =>   5
Atom  28H    basis set group =>   5
Atom  29H    basis set group =>   5
Atom  30H    basis set group =>   5
Atom  31H    basis set group =>   5
Atom  32H    basis set group =>   5
Atom  33H    basis set group =>   5
Atom  34H    basis set group =>   5
Atom  35H    basis set group =>   5
Atom  36H    basis set group =>   5
Atom  37H    basis set group =>   5
Atom  38H    basis set group =>   5
Atom  39H    basis set group =>   5
Atom  40H    basis set group =>   5
---------------------------------
AUXILIARY/J BASIS SET INFORMATION
---------------------------------
There are 5 groups of distinct atoms

 Group   1 Type C   : 12s5p4d2f1g contracted to 6s4p3d1f1g pattern {711111/2111/211/2/1}
 Group   2 Type O   : 12s5p4d2f1g contracted to 6s4p3d1f1g pattern {711111/2111/211/2/1}
 Group   3 Type P   : 14s5p5d2f1g contracted to 8s4p3d1f1g pattern {71111111/2111/311/2/1}
 Group   4 Type S   : 14s5p5d2f1g contracted to 8s4p3d1f1g pattern {71111111/2111/311/2/1}
 Group   5 Type H   : 5s2p1d contracted to 3s1p1d pattern {311/2/1}

Atom   0C    basis set group =>   1
Atom   1C    basis set group =>   1
Atom   2O    basis set group =>   2
Atom   3P    basis set group =>   3
Atom   4S    basis set group =>   4
Atom   5O    basis set group =>   2
Atom   6C    basis set group =>   1
Atom   7C    basis set group =>   1
Atom   8S    basis set group =>   4
Atom   9C    basis set group =>   1
Atom  10S    basis set group =>   4
Atom  11P    basis set group =>   3
Atom  12S    basis set group =>   4
Atom  13O    basis set group =>   2
Atom  14C    basis set group =>   1
Atom  15C    basis set group =>   1
Atom  16O    basis set group =>   2
Atom  17C    basis set group =>   1
Atom  18C    basis set group =>   1
Atom  19H    basis set group =>   5
Atom  20H    basis set group =>   5
Atom  21H    basis set group =>   5
Atom  22H    basis set group =>   5
Atom  23H    basis set group =>   5
Atom  24H    basis set group =>   5
Atom  25H    basis set group =>   5
Atom  26H    basis set group =>   5
Atom  27H    basis set group =>   5
Atom  28H    basis set group =>   5
Atom  29H    basis set group =>   5
Atom  30H    basis set group =>   5
Atom  31H    basis set group =>   5
Atom  32H    basis set group =>   5
Atom  33H    basis set group =>   5
Atom  34H    basis set group =>   5
Atom  35H    basis set group =>   5
Atom  36H    basis set group =>   5
Atom  37H    basis set group =>   5
Atom  38H    basis set group =>   5
Atom  39H    basis set group =>   5
Atom  40H    basis set group =>   5
------------------------------------------------------------------------------
                             ORCA STARTUP CALCULATIONS
                           -- RI-GTO INTEGRALS CHOSEN --
------------------------------------------------------------------------------
------------------------------------------------------------------------------
                   ___                                                        
                  /   \      - P O W E R E D   B Y -                         
                 /     \                                                     
                 |  |  |   _    _      __       _____    __    __             
                 |  |  |  | |  | |    /  \     |  _  \  |  |  /  |          
                  \  \/   | |  | |   /    \    | | | |  |  | /  /          
                 / \  \   | |__| |  /  /\  \   | |_| |  |  |/  /          
                |  |  |   |  __  | /  /__\  \  |    /   |      \           
                |  |  |   | |  | | |   __   |  |    \   |  |\   \          
                \     /   | |  | | |  |  |  |  | |\  \  |  | \   \       
                 \___/    |_|  |_| |__|  |__|  |_| \__\ |__|  \__/        
                                                                              
                      - O R C A' S   B I G   F R I E N D -                    
                                      &                                       
                       - I N T E G R A L  F E E D E R -                       
                                                                              
 v1 FN, 2020, v2 2021, v3 2022-2024                                           
------------------------------------------------------------------------------


----------------------
SHARK INTEGRAL PACKAGE
----------------------

Number of atoms                             ...     41
Number of basis functions                   ...    334
Number of shells                            ...    170
Maximum angular momentum                    ...      2
Integral batch strategy                     ... SHARK/LIBINT Hybrid
RI-J (if used) integral strategy            ... SPLIT-RIJ (Revised 2003 algorithm where possible)
Printlevel                                  ...      1
Contraction scheme used                     ... SEGMENTED contraction
Prescreening option                         ... SCHWARTZ
   Thresh                                   ... 1.000e-09
   Tcut                                     ... 1.000e-10
   Tpresel                                  ... 1.000e-10 
Coulomb Range Separation                    ... NOT USED
Exchange Range Separation                   ... NOT USED
Multipole approximations                    ... NOT USED
Finite Nucleus Model                        ... NOT USED
CABS basis                                  ... NOT available
Auxiliary Coulomb fitting basis             ... AVAILABLE
   # of basis functions in Aux-J            ...   1185
   # of shells in Aux-J                     ...    407
   Maximum angular momentum in Aux-J        ...      4
Auxiliary J/K fitting basis                 ... NOT available
Auxiliary Correlation fitting basis         ... NOT available
Auxiliary 'external' fitting basis          ... NOT available

Checking pre-screening integrals            ... done (  0.0 sec) Dimension = 170
Check shell pair data                       ... done (  0.0 sec)
Shell pair information
Shell pair cut-off parameter TPreSel        ...   1.0e-10
Total number of shell pairs                 ...     14535
Shell pairs after pre-screening             ...     10475
Total number of primitive shell pairs       ...     62501
Primitive shell pairs kept                  ...     26070
          la=0 lb=0:   4088 shell pairs
          la=1 lb=0:   3547 shell pairs
          la=1 lb=1:    812 shell pairs
          la=2 lb=0:   1319 shell pairs
          la=2 lb=1:    598 shell pairs
          la=2 lb=2:    111 shell pairs

Calculating one electron integrals          ... done (  0.1 sec)
Calculating RI/J V-Matrix + Cholesky decomp.... done (  0.1 sec)
Calculating Nuclear repulsion               ... done (  0.0 sec) ENN=   2776.989109838943 Eh

Diagonalization of the overlap matrix:
Smallest eigenvalue                        ... 3.117e-03
Time for diagonalization                   ...    0.010 sec
Threshold for overlap eigenvalues          ... 1.000e-07
Number of eigenvalues below threshold      ... 0
Time for construction of square roots      ...    0.020 sec
Total time needed                          ...    0.038 sec

-------------------
DFT GRID GENERATION
-------------------

General Integration Accuracy     IntAcc      ... 4.159
Radial Grid Type                 RadialGrid  ... OptM3 with GC (2021)
Angular Grid (max. ang.)         AngularGrid ... 3 (Lebedev-194)
Angular grid pruning method      GridPruning ... 4 (adaptive)
Weight generation scheme         WeightScheme... mBecke (2022)
Basis function cutoff            BFCut       ... 1.0000e-10
Integration weight cutoff        WCut        ... 1.0000e-14
Partially contracted basis set               ... off
Rotationally invariant grid construction     ... off
Angular grids for H and He will be reduced by one unit

Total number of grid points                  ...    97284
Total number of batches                      ...     1541
Average number of points per batch           ...       63
Average number of grid points per atom       ...     2373
Initializing property integral containers    ... done (  0.0 sec)

SHARK setup successfully completed in   1.5 seconds

Maximum memory used throughout the entire STARTUP-calculation: 52.1 MB
-------------------------------------------------------------------------------
                                 ORCA GUESS
                   Start orbitals & Density for SCF / CASSCF
-------------------------------------------------------------------------------

------------
SCF SETTINGS
------------
Hamiltonian:
 Density Functional     Method          .... DFT(GTOs)
 Exchange Functional    Exchange        .... PBE
   PBE kappa parameter   XKappa         ....  0.804000
   PBE mue parameter    XMuePBE         ....  0.219520
 Correlation Functional Correlation     .... PBE
   PBE beta parameter  CBetaPBE         ....  0.066725
 LDA part of GGA corr.  LDAOpt          .... PW91-LDA
 Gradients option       PostSCFGGA      .... off
   NL short-range parameter             ....  6.400000
 RI-approximation to the Coulomb term is turned on
   Number of AuxJ basis functions       .... 1185


General Settings:
 Integral files         IntName         .... sp
 Hartree-Fock type      HFTyp           .... RHF
 Total Charge           Charge          ....    0
 Multiplicity           Mult            ....    1
 Number of Electrons    NEL             ....  202
 Basis Dimension        Dim             ....  334
 Nuclear Repulsion      ENuc            ....   2776.9891098389 Eh

Convergence Acceleration:
 AO-DIIS                CNVDIIS         .... on
   Start iteration      DIISMaxIt       ....    12
   Startup error        DIISStart       ....  0.200000
   # of expansion vecs  DIISMaxEq       ....     5
   Bias factor          DIISBfac        ....   1.050
   Max. coefficient     DIISMaxC        ....  10.000
 MO-DIIS                CNVKDIIS        .... off
 Trust-Rad. Augm. Hess. CNVTRAH         .... auto
   Auto Start mean grad. ratio tolernc. ....  1.125000
   Auto Start start iteration           ....    50
   Auto Start num. interpolation iter.  ....    10
   Max. Number of Micro iterations      ....    24
   Max. Number of Macro iterations      .... Maxiter - #DIIS iter
   Number of Davidson start vectors     ....     2
   Converg. threshold    (grad. norm)   ....   1.000e-04
   Grad. Scal. Fac. for Micro threshold ....   0.100
   Minimum threshold for Micro iter.    ....   1.000e-02
   NR start threshold (gradient norm)   ....   1.000e-04
   Initial trust radius                 ....   0.400
   Minimum AH scaling param. (alpha)    ....   1.000
   Maximum AH scaling param. (alpha)    .... 1000.000
   Quad. conv. algorithm                .... NR
   White noise on init. David. guess    .... on
   Maximum white noise                  ....   0.010
   Pseudo random numbers                .... off
   Inactive MOs                         .... canonical
   Orbital update algorithm             .... Taylor
   Preconditioner                       .... Diag
   Full preconditioner red. dimension   ....   250
 SOSCF                  CNVSOSCF        .... on
   Start iteration      SOSCFMaxIt      ....   150
   Startup grad/error   SOSCFStart      ....  0.003300
   Hessian update       SOSCFHessUp     .... L-BFGS
 Level Shifting         CNVShift        .... on
   Level shift para.    LevelShift      ....    0.2500
   Turn off err/grad.   ShiftErr        ....    0.0010
 Zerner damping         CNVZerner       .... off
 Static damping         CNVDamp         .... on
   Fraction old density DampFac         ....    0.7000
   Max. Damping (<1)    DampMax         ....    0.9800
   Min. Damping (>=0)   DampMin         ....    0.0000
   Turn off err/grad.   DampErr         ....    0.1000

SCF Procedure:
 Maximum # iterations   MaxIter         ....   125
 SCF integral mode      SCFMode         .... Direct
   Integral package                     .... SHARK and LIBINT hybrid scheme
 Reset frequency        DirectResetFreq ....    20
 Integral Threshold     Thresh          ....  1.000e-09 Eh
 Primitive CutOff       TCut            ....  1.000e-10 Eh

Convergence Tolerance:
 Convergence Check Mode ConvCheckMode   .... Total+1el-Energy
 Convergence forced     ConvForced      .... 0
 Energy Change          TolE            ....  1.000e-05 Eh
 1-El. energy change                    ....  1.000e-02 Eh
 Orbital Gradient       TolG            ....  1.000e-04
 Orbital Rotation angle TolX            ....  1.000e-04
 DIIS Error             TolErr          ....  5.000e-04

------------------------------
INITIAL GUESS: MODEL POTENTIAL
------------------------------
Loading Hartree-Fock densities                     ... done
Calculating cut-offs                               ... done
Initializing the effective Hamiltonian             ... done
Setting up the integral package (SHARK)            ... done
Starting the Coulomb interaction                   ... done (   0.6 sec)
Making the grid                                    ... done (   0.6 sec)
Mapping shells                                     ... done
Starting the XC term evaluation                    ... done (   0.4 sec)
  promolecular density results
     # of electrons  =    201.995081981
     EX              =   -229.994203418
     EC              =     -7.286737361
     EX+EC           =   -237.280940779
Transforming the Hamiltonian                       ... done (   0.0 sec)
Diagonalizing the Hamiltonian                      ... done (   0.0 sec)
Back transforming the eigenvectors                 ... done (   0.0 sec)
Now organizing SCF variables                       ... done
                      ------------------
                      INITIAL GUESS DONE (   1.6 sec)
                      ------------------
             **** ENERGY FILE WAS UPDATED (sp.en.tmp) ****
Finished Guess after   1.9 sec
Maximum memory used throughout the entire GUESS-calculation: 39.4 MB

-------------------------------------------------------------------------------------------
                                      ORCA LEAN-SCF
                              memory conserving SCF solver
-------------------------------------------------------------------------------------------

----------------------------------------D-I-I-S--------------------------------------------
Iteration    Energy (Eh)           Delta-E    RMSDP     MaxDP     DIISErr   Damp  Time(sec)
-------------------------------------------------------------------------------------------
               ***  Starting incremental Fock matrix formation  ***
    1    -2929.1996833615744436     0.00e+00  2.67e-03  1.39e-01  1.83e-01  0.700   2.2
    2    -2929.4227369129134786    -2.23e-01  1.72e-03  7.08e-02  7.48e-02  0.700   2.1
                               ***Turning on AO-DIIS***
    3    -2929.4933434811605366    -7.06e-02  6.76e-04  1.57e-02  2.15e-02  0.700   2.1
    4    -2929.5380054379133981    -4.47e-02  1.03e-03  3.27e-02  1.07e-02  0.000   2.0
    5    -2929.6420933328658975    -1.04e-01  3.05e-04  1.01e-02  8.29e-03  0.000   2.1
                              *** Initializing SOSCF ***
---------------------------------------S-O-S-C-F--------------------------------------
Iteration    Energy (Eh)           Delta-E    RMSDP     MaxDP     MaxGrad    Time(sec)
--------------------------------------------------------------------------------------
    6    -2929.6431549081885350    -1.06e-03  1.09e-04  3.06e-03  2.44e-03     2.0
               *** Restarting incremental Fock matrix formation ***
    7    -2929.6432876712774487    -1.33e-04  6.75e-05  1.40e-03  1.77e-04     2.3
    8    -2929.6432926773063627    -5.01e-06  2.59e-05  7.83e-04  1.73e-04     1.8
                 **** Energy Check signals convergence ****

               *****************************************************
               *                     SUCCESS                       *
               *           SCF CONVERGED AFTER   8 CYCLES          *
               *****************************************************

             **** ENERGY FILE WAS UPDATED (sp.en.tmp) ****

----------------
TOTAL SCF ENERGY
----------------

Total Energy       :      -2929.64329267730636 Eh          -79719.64686 eV

Components:
Nuclear Repulsion  :       2776.98910983894302 Eh           75565.71537 eV
Electronic Energy  :      -5706.63240251624848 Eh         -155285.36223 eV
One Electron Energy:      -9571.96802959574961 Eh         -260466.49195 eV
Two Electron Energy:       3865.33562707950068 Eh          105181.12972 eV

Virial components:
Potential Energy   :      -5848.92575569893233 Eh         -159157.36122 eV
Kinetic Energy     :       2919.28246302162552 Eh           79437.71435 eV
Virial Ratio       :          2.00354910146138

DFT components:
N(Alpha)           :      100.999408792403 electrons
N(Beta)            :      100.999408792403 electrons
N(Total)           :      201.998817584806 electrons
E(X)               :     -231.802805464918 Eh       
E(C)               :       -7.293855884147 Eh       
E(XC)              :     -239.096661349064 Eh       

---------------
SCF CONVERGENCE
---------------

  Last Energy change         ...    5.0060e-06  Tolerance :   1.0000e-05
  Last MAX-Density change    ...    7.8292e-04  Tolerance :   1.0000e-03
  Last RMS-Density change    ...    2.5922e-05  Tolerance :   1.0000e-04
  Last DIIS Error            ...    2.4350e-03  Tolerance :   5.0000e-04
  Last Orbital Gradient      ...    1.7260e-04  Tolerance :   1.0000e-04
  Last Orbital Rotation      ...    3.5154e-04  Tolerance :   1.0000e-04


----------------
ORBITAL ENERGIES
----------------

  NO   OCC          E(Eh)            E(eV) 
   0   2.0000     -88.047550     -2395.8957 
   1   2.0000     -88.043257     -2395.7788 
   2   2.0000     -87.991785     -2394.3782 
   3   2.0000     -87.987778     -2394.2692 
   4   2.0000     -76.431315     -2079.8018 
   5   2.0000     -76.426119     -2079.6604 
   6   2.0000     -18.801811      -511.6233 
   7   2.0000     -18.795641      -511.4554 
   8   2.0000     -18.794855      -511.4340 
   9   2.0000     -18.789402      -511.2856 
  10   2.0000      -9.966502      -271.2023 
  11   2.0000      -9.959746      -271.0185 
  12   2.0000      -9.954588      -270.8781 
  13   2.0000      -9.951330      -270.7895 
  14   2.0000      -9.947552      -270.6867 
  15   2.0000      -9.896118      -269.2871 
  16   2.0000      -9.887420      -269.0504 
  17   2.0000      -9.885997      -269.0117 
  18   2.0000      -9.885526      -268.9989 
  19   2.0000      -7.692583      -209.3258 
  20   2.0000      -7.687833      -209.1966 
  21   2.0000      -7.637025      -207.8140 
  22   2.0000      -7.633012      -207.7048 
  23   2.0000      -6.429089      -174.9444 
  24   2.0000      -6.423755      -174.7993 
  25   2.0000      -5.720384      -155.6596 
  26   2.0000      -5.717171      -155.5721 
  27   2.0000      -5.715984      -155.5398 
  28   2.0000      -5.712155      -155.4357 
  29   2.0000      -5.709500      -155.3634 
  30   2.0000      -5.704817      -155.2360 
  31   2.0000      -5.666081      -154.1819 
  32   2.0000      -5.661941      -154.0693 
  33   2.0000      -5.657623      -153.9517 
  34   2.0000      -5.657024      -153.9355 
  35   2.0000      -5.653563      -153.8413 
  36   2.0000      -5.653249      -153.8327 
  37   2.0000      -4.652011      -126.5877 
  38   2.0000      -4.650504      -126.5467 
  39   2.0000      -4.649576      -126.5214 
  40   2.0000      -4.646138      -126.4278 
  41   2.0000      -4.645925      -126.4221 
  42   2.0000      -4.643978      -126.3691 
  43   2.0000      -0.991197       -26.9718 
  44   2.0000      -0.990435       -26.9511 
  45   2.0000      -0.949743       -25.8438 
  46   2.0000      -0.946579       -25.7577 
  47   2.0000      -0.766750       -20.8643 
  48   2.0000      -0.725454       -19.7406 
  49   2.0000      -0.714804       -19.4508 
  50   2.0000      -0.695762       -18.9326 
  51   2.0000      -0.685275       -18.6473 
  52   2.0000      -0.678016       -18.4498 
  53   2.0000      -0.656693       -17.8695 
  54   2.0000      -0.641042       -17.4436 
  55   2.0000      -0.599592       -16.3157 
  56   2.0000      -0.594278       -16.1711 
  57   2.0000      -0.584965       -15.9177 
  58   2.0000      -0.566352       -15.4112 
  59   2.0000      -0.561659       -15.2835 
  60   2.0000      -0.507754       -13.8167 
  61   2.0000      -0.503027       -13.6881 
  62   2.0000      -0.483145       -13.1470 
  63   2.0000      -0.472316       -12.8524 
  64   2.0000      -0.463824       -12.6213 
  65   2.0000      -0.453743       -12.3470 
  66   2.0000      -0.440421       -11.9845 
  67   2.0000      -0.439771       -11.9668 
  68   2.0000      -0.429377       -11.6839 
  69   2.0000      -0.422411       -11.4944 
  70   2.0000      -0.411234       -11.1902 
  71   2.0000      -0.402940       -10.9646 
  72   2.0000      -0.396599       -10.7920 
  73   2.0000      -0.382927       -10.4200 
  74   2.0000      -0.380911       -10.3651 
  75   2.0000      -0.377513       -10.2726 
  76   2.0000      -0.370402       -10.0791 
  77   2.0000      -0.365384        -9.9426 
  78   2.0000      -0.363863        -9.9012 
  79   2.0000      -0.356505        -9.7010 
  80   2.0000      -0.352599        -9.5947 
  81   2.0000      -0.349139        -9.5006 
  82   2.0000      -0.346709        -9.4344 
  83   2.0000      -0.341364        -9.2890 
  84   2.0000      -0.334646        -9.1062 
  85   2.0000      -0.321047        -8.7361 
  86   2.0000      -0.318859        -8.6766 
  87   2.0000      -0.311023        -8.4634 
  88   2.0000      -0.304623        -8.2892 
  89   2.0000      -0.292238        -7.9522 
  90   2.0000      -0.285074        -7.7573 
  91   2.0000      -0.279373        -7.6021 
  92   2.0000      -0.272808        -7.4235 
  93   2.0000      -0.269523        -7.3341 
  94   2.0000      -0.257607        -7.0099 
  95   2.0000      -0.232936        -6.3385 
  96   2.0000      -0.221294        -6.0217 
  97   2.0000      -0.212014        -5.7692 
  98   2.0000      -0.206737        -5.6256 
  99   2.0000      -0.206563        -5.6209 
 100   2.0000      -0.204974        -5.5776 
 101   0.0000      -0.044791        -1.2188 
 102   0.0000      -0.025344        -0.6896 
 103   0.0000      -0.010556        -0.2872 
 104   0.0000      -0.003333        -0.0907 
 105   0.0000       0.005356         0.1457 
 106   0.0000       0.017387         0.4731 
 107   0.0000       0.020019         0.5448 
 108   0.0000       0.034092         0.9277 
 109   0.0000       0.041814         1.1378 
 110   0.0000       0.046206         1.2573 
 111   0.0000       0.050811         1.3826 
*Only the first 10 virtual orbitals were printed.

                    ********************************
                    * MULLIKEN POPULATION ANALYSIS *
                    ********************************

-----------------------
MULLIKEN ATOMIC CHARGES
-----------------------
   0 C :   -0.285752
   1 C :   -0.031880
   2 O :   -0.365800
   3 P :    0.574044
   4 S :   -0.322754
   5 O :   -0.366835
   6 C :   -0.004532
   7 C :   -0.312155
   8 S :   -0.070762
   9 C :   -0.344307
  10 S :   -0.103013
  11 P :    0.616445
  12 S :   -0.305115
  13 O :   -0.365611
  14 C :   -0.034883
  15 C :   -0.300927
  16 O :   -0.380010
  17 C :   -0.006972
  18 C :   -0.311311
  19 H :    0.105401
  20 H :    0.117194
  21 H :    0.117594
  22 H :    0.124752
  23 H :    0.106500
  24 H :    0.107267
  25 H :    0.115353
  26 H :    0.113996
  27 H :    0.129881
  28 H :    0.113407
  29 H :    0.195514
  30 H :    0.189804
  31 H :    0.114447
  32 H :    0.113662
  33 H :    0.137839
  34 H :    0.126456
  35 H :    0.114303
  36 H :    0.117224
  37 H :    0.107865
  38 H :    0.128751
  39 H :    0.116046
  40 H :    0.108874
Sum of atomic charges:   -0.0000000

--------------------------------
MULLIKEN REDUCED ORBITAL CHARGES
--------------------------------
  0 C s       :     3.090084  s :     3.090084
      pz      :     1.063521  p :     3.167838
      px      :     1.081646
      py      :     1.022671
      dz2     :     0.007200  d :     0.027830
      dxz     :     0.003805
      dyz     :     0.005484
      dx2y2   :     0.004939
      dxy     :     0.006402

  1 C s       :     3.075077  s :     3.075077
      pz      :     1.014606  p :     2.896869
      px      :     0.989646
      py      :     0.892616
      dz2     :     0.013622  d :     0.059934
      dxz     :     0.007954
      dyz     :     0.011503
      dx2y2   :     0.012609
      dxy     :     0.014247

  2 O s       :     3.765818  s :     3.765818
      pz      :     1.637045  p :     4.586713
      px      :     1.649223
      py      :     1.300445
      dz2     :     0.002046  d :     0.013270
      dxz     :     0.002439
      dyz     :     0.003823
      dx2y2   :     0.002844
      dxy     :     0.002117

  3 P s       :     5.238662  s :     5.238662
      pz      :     2.874500  p :     8.600500
      px      :     2.882725
      py      :     2.843275
      dz2     :     0.116819  d :     0.586794
      dxz     :     0.123985
      dyz     :     0.126716
      dx2y2   :     0.114146
      dxy     :     0.105128

  4 S s       :     5.917887  s :     5.917887
      pz      :     3.057172  p :    10.362268
      px      :     3.627000
      py      :     3.678096
      dz2     :     0.020894  d :     0.042599
      dxz     :     0.011070
      dyz     :     0.009034
      dx2y2   :     0.000792
      dxy     :     0.000809

  5 O s       :     3.755080  s :     3.755080
      pz      :     1.607760  p :     4.598634
      px      :     1.436750
      py      :     1.554123
      dz2     :     0.002345  d :     0.013122
      dxz     :     0.003821
      dyz     :     0.002655
      dx2y2   :     0.002362
      dxy     :     0.001938

  6 C s       :     3.078362  s :     3.078362
      pz      :     1.078904  p :     2.865637
      px      :     0.931492
      py      :     0.855240
      dz2     :     0.009295  d :     0.060533
      dxz     :     0.013600
      dyz     :     0.008049
      dx2y2   :     0.013474
      dxy     :     0.016114

  7 C s       :     3.107084  s :     3.107084
      pz      :     1.090813  p :     3.177142
      px      :     1.070524
      py      :     1.015806
      dz2     :     0.005527  d :     0.027929
      dxz     :     0.008459
      dyz     :     0.003109
      dx2y2   :     0.003306
      dxy     :     0.007529

  8 S s       :     5.889887  s :     5.889887
      pz      :     3.059681  p :    10.105227
      px      :     3.408210
      py      :     3.637337
      dz2     :     0.027881  d :     0.075647
      dxz     :     0.013421
      dyz     :     0.012969
      dx2y2   :     0.007956
      dxy     :     0.013420

  9 C s       :     3.210354  s :     3.210354
      pz      :     0.974794  p :     3.093841
      px      :     1.126711
      py      :     0.992336
      dz2     :     0.009176  d :     0.040111
      dxz     :     0.006648
      dyz     :     0.009555
      dx2y2   :     0.008023
      dxy     :     0.006709

 10 S s       :     5.871129  s :     5.871129
      pz      :     3.725315  p :    10.155449
      px      :     3.155053
      py      :     3.275082
      dz2     :     0.009486  d :     0.076435
      dxz     :     0.011495
      dyz     :     0.010766
      dx2y2   :     0.026764
      dxy     :     0.017924

 11 P s       :     5.182522  s :     5.182522
      pz      :     2.820637  p :     8.617578
      px      :     2.907186
      py      :     2.889756
      dz2     :     0.130404  d :     0.583455
      dxz     :     0.102492
      dyz     :     0.126935
      dx2y2   :     0.107586
      dxy     :     0.116039

 12 S s       :     5.918164  s :     5.918164
      pz      :     3.680558  p :    10.343879
      px      :     3.541803
      py      :     3.121517
      dz2     :     0.006057  d :     0.043072
      dxz     :     0.002084
      dyz     :     0.008606
      dx2y2   :     0.013404
      dxy     :     0.012921

 13 O s       :     3.764340  s :     3.764340
      pz      :     1.729837  p :     4.588100
      px      :     1.629068
      py      :     1.229195
      dz2     :     0.001972  d :     0.013171
      dxz     :     0.001992
      dyz     :     0.002496
      dx2y2   :     0.002714
      dxy     :     0.003996

 14 C s       :     3.093392  s :     3.093392
      pz      :     1.074220  p :     2.882135
      px      :     1.086830
      py      :     0.721084
      dz2     :     0.011152  d :     0.059356
      dxz     :     0.008836
      dyz     :     0.011043
      dx2y2   :     0.015612
      dxy     :     0.012714

 15 C s       :     3.101908  s :     3.101908
      pz      :     1.034424  p :     3.171224
      px      :     1.088769
      py      :     1.048031
      dz2     :     0.007226  d :     0.027795
      dxz     :     0.007310
      dyz     :     0.002611
      dx2y2   :     0.007319
      dxy     :     0.003329

 16 O s       :     3.768343  s :     3.768343
      pz      :     1.251620  p :     4.598718
      px      :     1.666165
      py      :     1.680932
      dz2     :     0.003189  d :     0.012949
      dxz     :     0.003226
      dyz     :     0.003017
      dx2y2   :     0.001598
      dxy     :     0.001920

 17 C s       :     3.082222  s :     3.082222
      pz      :     0.867172  p :     2.864362
      px      :     0.955227
      py      :     1.041963
      dz2     :     0.012385  d :     0.060389
      dxz     :     0.017905
      dyz     :     0.008376
      dx2y2   :     0.013775
      dxy     :     0.007948

 18 C s       :     3.103116  s :     3.103116
      pz      :     1.088934  p :     3.180228
      px      :     1.026929
      py      :     1.064365
      dz2     :     0.005565  d :     0.027967
      dxz     :     0.007474
      dyz     :     0.002737
      dx2y2   :     0.008143
      dxy     :     0.004048

 19 H s       :     0.894599  s :     0.894599

 20 H s       :     0.882806  s :     0.882806

 21 H s       :     0.882406  s :     0.882406

 22 H s       :     0.875248  s :     0.875248

 23 H s       :     0.893500  s :     0.893500

 24 H s       :     0.892733  s :     0.892733

 25 H s       :     0.884647  s :     0.884647

 26 H s       :     0.886004  s :     0.886004

 27 H s       :     0.870119  s :     0.870119

 28 H s       :     0.886593  s :     0.886593

 29 H s       :     0.804486  s :     0.804486

 30 H s       :     0.810196  s :     0.810196

 31 H s       :     0.885553  s :     0.885553

 32 H s       :     0.886338  s :     0.886338

 33 H s       :     0.862161  s :     0.862161

 34 H s       :     0.873544  s :     0.873544

 35 H s       :     0.885697  s :     0.885697

 36 H s       :     0.882776  s :     0.882776

 37 H s       :     0.892135  s :     0.892135

 38 H s       :     0.871249  s :     0.871249

 39 H s       :     0.883954  s :     0.883954

 40 H s       :     0.891126  s :     0.891126


------------------------
MULLIKEN OVERLAP CHARGES
------------------------
B(  0-C ,  1-C ) :   0.8642 B(  0-C ,  2-O ) :  -0.1069 B(  0-C , 19-H ) :   0.7004 
B(  0-C , 20-H ) :   0.7329 B(  0-C , 21-H ) :   0.7394 B(  0-C , 22-H ) :  -0.0536 
B(  1-C ,  2-O ) :   0.5431 B(  1-C ,  3-P ) :  -0.0892 B(  1-C , 22-H ) :   0.6983 
B(  1-C , 23-H ) :   0.7045 B(  2-O ,  3-P ) :   0.6297 B(  2-O ,  4-S ) :  -0.0596 
B(  2-O ,  5-O ) :  -0.0708 B(  2-O ,  8-S ) :  -0.0819 B(  2-O , 22-H ) :  -0.0604 
B(  2-O , 23-H ) :  -0.0661 B(  3-P ,  4-S ) :   0.9471 B(  3-P ,  5-O ) :   0.6019 
B(  3-P ,  6-C ) :  -0.0968 B(  3-P ,  8-S ) :   0.5276 B(  4-S ,  5-O ) :  -0.0597 
B(  4-S ,  8-S ) :  -0.0761 B(  4-S , 23-H ) :   0.0549 B(  4-S , 25-H ) :   0.0640 
B(  5-O ,  6-C ) :   0.5638 B(  5-O ,  7-C ) :  -0.0915 B(  5-O ,  8-S ) :  -0.0753 
B(  5-O , 24-H ) :  -0.0580 B(  5-O , 25-H ) :  -0.0656 B(  5-O , 30-H ) :   0.0513 
B(  6-C ,  7-C ) :   0.9155 B(  6-C , 24-H ) :   0.7334 B(  6-C , 25-H ) :   0.7186 
B(  7-C , 24-H ) :  -0.0548 B(  7-C , 25-H ) :  -0.0639 B(  7-C , 26-H ) :   0.6976 
B(  7-C , 27-H ) :   0.7251 B(  7-C , 28-H ) :   0.7390 B(  8-S ,  9-C ) :   0.4057 
B(  8-S , 10-S ) :  -0.1562 B(  8-S , 29-H ) :  -0.0520 B(  8-S , 30-H ) :  -0.0650 
B(  9-C , 10-S ) :   0.4939 B(  9-C , 11-P ) :  -0.0732 B(  9-C , 29-H ) :   0.6756 
B(  9-C , 30-H ) :   0.6878 B( 10-S , 11-P ) :   0.5532 B( 10-S , 12-S ) :  -0.0774 
B( 10-S , 13-O ) :  -0.0655 B( 10-S , 16-O ) :  -0.0851 B( 10-S , 29-H ) :  -0.0663 
B( 10-S , 30-H ) :  -0.0584 B( 11-P , 12-S ) :   0.9312 B( 11-P , 13-O ) :   0.6493 
B( 11-P , 16-O ) :   0.5770 B( 11-P , 17-C ) :  -0.0798 B( 12-S , 13-O ) :  -0.0631 
B( 12-S , 16-O ) :  -0.0692 B( 12-S , 29-H ) :   0.0665 B( 12-S , 36-H ) :   0.0652 
B( 13-O , 14-C ) :   0.5172 B( 13-O , 15-C ) :  -0.1077 B( 13-O , 16-O ) :  -0.0588 
B( 13-O , 31-H ) :  -0.0562 B( 13-O , 32-H ) :  -0.0620 B( 14-C , 15-C ) :   0.9040 
B( 14-C , 31-H ) :   0.7366 B( 14-C , 32-H ) :   0.7110 B( 15-C , 31-H ) :  -0.0509 
B( 15-C , 32-H ) :  -0.0644 B( 15-C , 33-H ) :   0.7523 B( 15-C , 34-H ) :   0.7359 
B( 15-C , 35-H ) :   0.6948 B( 16-O , 17-C ) :   0.5424 B( 16-O , 18-C ) :  -0.0913 
B( 16-O , 22-H ) :   0.0579 B( 16-O , 36-H ) :  -0.0634 B( 16-O , 37-H ) :  -0.0652 
B( 17-C , 18-C ) :   0.8969 B( 17-C , 36-H ) :   0.7204 B( 17-C , 37-H ) :   0.7265 
B( 18-C , 36-H ) :  -0.0669 B( 18-C , 37-H ) :  -0.0610 B( 18-C , 38-H ) :   0.7246 
B( 18-C , 39-H ) :   0.7067 B( 18-C , 40-H ) :   0.7282 B( 20-H , 21-H ) :  -0.0500 
B( 22-H , 23-H ) :  -0.0730 B( 24-H , 25-H ) :  -0.0620 B( 31-H , 32-H ) :  -0.0673 
B( 36-H , 37-H ) :  -0.0629 B( 38-H , 40-H ) :  -0.0514 


                     *******************************
                     * LOEWDIN POPULATION ANALYSIS *
                     *******************************

----------------------
LOEWDIN ATOMIC CHARGES
----------------------
   0 C :   -0.353321
   1 C :   -0.130614
   2 O :   -0.239818
   3 P :    0.564648
   4 S :   -0.322683
   5 O :   -0.238343
   6 C :   -0.118592
   7 C :   -0.366555
   8 S :    0.088456
   9 C :   -0.478965
  10 S :    0.096083
  11 P :    0.568479
  12 S :   -0.302586
  13 O :   -0.241741
  14 C :   -0.117499
  15 C :   -0.360823
  16 O :   -0.251553
  17 C :   -0.123182
  18 C :   -0.364973
  19 H :    0.127130
  20 H :    0.127937
  21 H :    0.119099
  22 H :    0.106712
  23 H :    0.109175
  24 H :    0.119240
  25 H :    0.112212
  26 H :    0.131530
  27 H :    0.123285
  28 H :    0.123369
  29 H :    0.134585
  30 H :    0.134236
  31 H :    0.123018
  32 H :    0.109610
  33 H :    0.119335
  34 H :    0.132586
  35 H :    0.132404
  36 H :    0.110610
  37 H :    0.118459
  38 H :    0.125157
  39 H :    0.132609
  40 H :    0.121287

-------------------------------
LOEWDIN REDUCED ORBITAL CHARGES
-------------------------------
  0 C s       :     2.949875  s :     2.949875
      pz      :     1.118937  p :     3.334249
      px      :     1.132975
      py      :     1.082336
      dz2     :     0.017177  d :     0.069197
      dxz     :     0.008829
      dyz     :     0.015032
      dx2y2   :     0.013375
      dxy     :     0.014784

  1 C s       :     2.930377  s :     2.930377
      pz      :     1.067434  p :     3.067378
      px      :     1.042225
      py      :     0.957719
      dz2     :     0.029956  d :     0.132859
      dxz     :     0.016408
      dyz     :     0.027703
      dx2y2   :     0.029475
      dxy     :     0.029317

  2 O s       :     3.504014  s :     3.504014
      pz      :     1.671997  p :     4.711782
      px      :     1.664375
      py      :     1.375409
      dz2     :     0.002893  d :     0.024022
      dxz     :     0.003536
      dyz     :     0.007636
      dx2y2   :     0.005948
      dxy     :     0.004009

  3 P s       :     5.060857  s :     5.060857
      pz      :     2.886710  p :     8.558153
      px      :     2.862226
      py      :     2.809217
      dz2     :     0.161486  d :     0.816343
      dxz     :     0.176446
      dyz     :     0.172577
      dx2y2   :     0.162095
      dxy     :     0.143739

  4 S s       :     5.765641  s :     5.765641
      pz      :     3.173823  p :    10.499344
      px      :     3.644790
      py      :     3.680731
      dz2     :     0.032004  d :     0.057697
      dxz     :     0.014065
      dyz     :     0.009920
      dx2y2   :     0.000871
      dxy     :     0.000837

  5 O s       :     3.497457  s :     3.497457
      pz      :     1.656523  p :     4.717025
      px      :     1.493410
      py      :     1.567091
      dz2     :     0.003483  d :     0.023861
      dxz     :     0.007706
      dyz     :     0.004072
      dx2y2   :     0.004567
      dxy     :     0.004033

  6 C s       :     2.927541  s :     2.927541
      pz      :     1.133160  p :     3.055939
      px      :     0.982960
      py      :     0.939820
      dz2     :     0.021652  d :     0.135112
      dxz     :     0.031421
      dyz     :     0.014728
      dx2y2   :     0.030167
      dxy     :     0.037145

  7 C s       :     2.953709  s :     2.953709
      pz      :     1.135835  p :     3.343663
      px      :     1.127483
      py      :     1.080345
      dz2     :     0.014264  d :     0.069183
      dxz     :     0.020197
      dyz     :     0.006086
      dx2y2   :     0.008992
      dxy     :     0.019644

  8 S s       :     5.657162  s :     5.657162
      pz      :     3.107475  p :    10.158519
      px      :     3.417341
      py      :     3.633703
      dz2     :     0.037375  d :     0.095863
      dxz     :     0.016363
      dyz     :     0.016223
      dx2y2   :     0.009497
      dxy     :     0.016406

  9 C s       :     3.059408  s :     3.059408
      pz      :     1.073044  p :     3.330977
      px      :     1.172447
      py      :     1.085486
      dz2     :     0.021250  d :     0.088579
      dxz     :     0.014039
      dyz     :     0.020495
      dx2y2   :     0.018168
      dxy     :     0.014627

 10 S s       :     5.631122  s :     5.631122
      pz      :     3.713418  p :    10.176258
      px      :     3.160707
      py      :     3.302133
      dz2     :     0.011389  d :     0.096536
      dxz     :     0.014457
      dyz     :     0.013253
      dx2y2   :     0.034474
      dxy     :     0.022963

 11 P s       :     5.056258  s :     5.056258
      pz      :     2.802983  p :     8.565025
      px      :     2.880648
      py      :     2.881394
      dz2     :     0.190657  d :     0.810238
      dxz     :     0.138708
      dyz     :     0.170341
      dx2y2   :     0.146017
      dxy     :     0.164515

 12 S s       :     5.762773  s :     5.762773
      pz      :     3.681391  p :    10.481518
      px      :     3.574984
      py      :     3.225144
      dz2     :     0.008956  d :     0.058295
      dxz     :     0.002335
      dyz     :     0.010002
      dx2y2   :     0.018015
      dxy     :     0.018988

 13 O s       :     3.506508  s :     3.506508
      pz      :     1.734637  p :     4.711441
      px      :     1.666929
      py      :     1.309875
      dz2     :     0.002976  d :     0.023792
      dxz     :     0.002567
      dyz     :     0.004947
      dx2y2   :     0.005295
      dxy     :     0.008006

 14 C s       :     2.929757  s :     2.929757
      pz      :     1.115836  p :     3.055513
      px      :     1.129564
      py      :     0.810112
      dz2     :     0.025235  d :     0.132229
      dxz     :     0.021762
      dyz     :     0.024374
      dx2y2   :     0.033398
      dxy     :     0.027461

 15 C s       :     2.952180  s :     2.952180
      pz      :     1.094430  p :     3.339674
      px      :     1.129272
      py      :     1.115971
      dz2     :     0.017885  d :     0.068970
      dxz     :     0.018274
      dyz     :     0.007215
      dx2y2   :     0.017409
      dxy     :     0.008187

 16 O s       :     3.509763  s :     3.509763
      pz      :     1.336162  p :     4.717958
      px      :     1.676686
      py      :     1.705110
      dz2     :     0.007175  d :     0.023833
      dxz     :     0.006182
      dyz     :     0.005991
      dx2y2   :     0.001951
      dxy     :     0.002534

 17 C s       :     2.928464  s :     2.928464
      pz      :     0.939794  p :     3.060046
      px      :     1.024927
      py      :     1.095325
      dz2     :     0.028135  d :     0.134672
      dxz     :     0.038611
      dyz     :     0.017481
      dx2y2   :     0.033000
      dxy     :     0.017446

 18 C s       :     2.953352  s :     2.953352
      pz      :     1.137684  p :     3.342307
      px      :     1.083999
      py      :     1.120624
      dz2     :     0.014317  d :     0.069314
      dxz     :     0.017737
      dyz     :     0.006404
      dx2y2   :     0.020617
      dxy     :     0.010240

 19 H s       :     0.872870  s :     0.872870

 20 H s       :     0.872063  s :     0.872063

 21 H s       :     0.880901  s :     0.880901

 22 H s       :     0.893288  s :     0.893288

 23 H s       :     0.890825  s :     0.890825

 24 H s       :     0.880760  s :     0.880760

 25 H s       :     0.887788  s :     0.887788

 26 H s       :     0.868470  s :     0.868470

 27 H s       :     0.876715  s :     0.876715

 28 H s       :     0.876631  s :     0.876631

 29 H s       :     0.865415  s :     0.865415

 30 H s       :     0.865764  s :     0.865764

 31 H s       :     0.876982  s :     0.876982

 32 H s       :     0.890390  s :     0.890390

 33 H s       :     0.880665  s :     0.880665

 34 H s       :     0.867414  s :     0.867414

 35 H s       :     0.867596  s :     0.867596

 36 H s       :     0.889390  s :     0.889390

 37 H s       :     0.881541  s :     0.881541

 38 H s       :     0.874843  s :     0.874843

 39 H s       :     0.867391  s :     0.867391

 40 H s       :     0.878713  s :     0.878713


---------------------------------
LOEWDIN BOND ORDERS (THRESH 0.050000)
---------------------------------
B(  0-C ,  1-C ) :   1.1531 B(  0-C ,  2-O ) :   0.0577 B(  0-C , 19-H ) :   0.9297 
B(  0-C , 20-H ) :   0.9361 B(  0-C , 21-H ) :   0.9327 B(  1-C ,  2-O ) :   1.0758 
B(  1-C ,  3-P ) :   0.0699 B(  1-C , 22-H ) :   0.9042 B(  1-C , 23-H ) :   0.9095 
B(  2-O ,  3-P ) :   1.2795 B(  2-O ,  4-S ) :   0.0891 B(  2-O ,  8-S ) :   0.0738 
B(  3-P ,  4-S ) :   1.7717 B(  3-P ,  5-O ) :   1.2628 B(  3-P ,  6-C ) :   0.0667 
B(  3-P ,  8-S ) :   1.0483 B(  4-S ,  5-O ) :   0.0894 B(  4-S ,  8-S ) :   0.1089 
B(  5-O ,  6-C ) :   1.0916 B(  5-O ,  7-C ) :   0.0597 B(  5-O ,  8-S ) :   0.0689 
B(  6-C ,  7-C ) :   1.1571 B(  6-C , 24-H ) :   0.9172 B(  6-C , 25-H ) :   0.9066 
B(  7-C , 26-H ) :   0.9255 B(  7-C , 27-H ) :   0.9278 B(  7-C , 28-H ) :   0.9370 
B(  8-S ,  9-C ) :   1.1649 B(  8-S , 10-S ) :   0.1018 B(  9-C , 10-S ) :   1.1577 
B(  9-C , 29-H ) :   0.9129 B(  9-C , 30-H ) :   0.9164 B( 10-S , 11-P ) :   1.0637 
B( 10-S , 12-S ) :   0.1212 B( 10-S , 13-O ) :   0.0619 B( 10-S , 16-O ) :   0.0530 
B( 11-P , 12-S ) :   1.7592 B( 11-P , 13-O ) :   1.2993 B( 11-P , 14-C ) :   0.0643 
B( 11-P , 16-O ) :   1.2259 B( 11-P , 17-C ) :   0.0640 B( 12-S , 13-O ) :   0.0709 
B( 12-S , 16-O ) :   0.0943 B( 13-O , 14-C ) :   1.0750 B( 13-O , 15-C ) :   0.0599 
B( 13-O , 16-O ) :   0.0604 B( 14-C , 15-C ) :   1.1592 B( 14-C , 31-H ) :   0.9169 
B( 14-C , 32-H ) :   0.9127 B( 15-C , 33-H ) :   0.9268 B( 15-C , 34-H ) :   0.9341 
B( 15-C , 35-H ) :   0.9252 B( 16-O , 17-C ) :   1.0881 B( 16-O , 18-C ) :   0.0607 
B( 17-C , 18-C ) :   1.1569 B( 17-C , 36-H ) :   0.9052 B( 17-C , 37-H ) :   0.9160 
B( 18-C , 38-H ) :   0.9285 B( 18-C , 39-H ) :   0.9264 B( 18-C , 40-H ) :   0.9378 


------------------------------------------
LOEWDIN REDUCED ORBITAL POPULATIONS PER MO
-------------------------------------------
THRESHOLD FOR PRINTING IS 0.1%%
                      0         1         2         3         4         5   
                 -88.04755 -88.04326 -87.99179 -87.98778 -76.43131 -76.42612
                   2.00000   2.00000   2.00000   2.00000   2.00000   2.00000
                  --------  --------  --------  --------  --------  --------
 3 P  s               0.0       0.0       0.0       0.0       0.0     100.0
 4 S  s               0.0       0.0       0.0     100.0       0.0       0.0
 8 S  s               0.0     100.0       0.0       0.0       0.0       0.0
10 S  s             100.0       0.0       0.0       0.0       0.0       0.0
11 P  s               0.0       0.0       0.0       0.0     100.0       0.0
12 S  s               0.0       0.0     100.0       0.0       0.0       0.0

                      6         7         8         9        10        11   
                 -18.80181 -18.79564 -18.79486 -18.78940  -9.96650  -9.95975
                   2.00000   2.00000   2.00000   2.00000   2.00000   2.00000
                  --------  --------  --------  --------  --------  --------
 2 O  s               0.0       0.0       0.0      99.9       0.0       0.0
 5 O  s               0.0       0.0      99.9       0.0       0.0       0.0
 9 C  s               0.0       0.0       0.0       0.0       0.0      99.8
13 O  s              99.9       0.0       0.0       0.0       0.0       0.0
14 C  s               0.0       0.0       0.0       0.0      99.7       0.0
16 O  s               0.0      99.9       0.0       0.0       0.0       0.0

                     12        13        14        15        16        17   
                  -9.95459  -9.95133  -9.94755  -9.89612  -9.88742  -9.88600
                   2.00000   2.00000   2.00000   2.00000   2.00000   2.00000
                  --------  --------  --------  --------  --------  --------
 0 C  s               0.0       0.0       0.0       0.0       0.0      99.7
 1 C  s               0.0       0.0      99.7       0.0       0.0       0.0
 6 C  s              99.7       0.0       0.0       0.0       0.0       0.0
15 C  s               0.0       0.0       0.0      99.7       0.0       0.0
17 C  s               0.0      99.7       0.0       0.0       0.0       0.0
18 C  s               0.0       0.0       0.0       0.0      99.7       0.0

                     18        19        20        21        22        23   
                  -9.88553  -7.69258  -7.68783  -7.63702  -7.63301  -6.42909
                   2.00000   2.00000   2.00000   2.00000   2.00000   2.00000
                  --------  --------  --------  --------  --------  --------
 3 P  pz              0.0       0.0       0.0       0.0       0.1       0.0
 4 S  s               0.0       0.0       0.0       0.0      99.9       0.0
 7 C  s              99.7       0.0       0.0       0.0       0.0       0.0
 8 S  s               0.0       0.0      99.7       0.0       0.0       0.0
 9 C  pz              0.0       0.0       0.2       0.0       0.0       0.0
 9 C  py              0.0       0.1       0.0       0.0       0.0       0.0
10 S  s               0.0      99.7       0.0       0.0       0.0       0.0
11 P  s               0.0       0.0       0.0       0.0       0.0      99.4
12 S  s               0.0       0.0       0.0      99.9       0.0       0.0
13 O  py              0.0       0.0       0.0       0.0       0.0       0.1
16 O  pz              0.0       0.0       0.0       0.0       0.0       0.2

                     24        25        26        27        28        29   
                  -6.42375  -5.72038  -5.71717  -5.71598  -5.71216  -5.70950
                   2.00000   2.00000   2.00000   2.00000   2.00000   2.00000
                  --------  --------  --------  --------  --------  --------
 2 O  py              0.2       0.0       0.0       0.0       0.0       0.0
 3 P  s              99.3       0.0       0.0       0.0       0.0       0.0
 4 S  pz              0.1       0.0       0.0       0.0       0.0       0.0
 5 O  pz              0.1       0.0       0.0       0.0       0.0       0.0
 5 O  px              0.1       0.0       0.0       0.0       0.0       0.0
 8 S  pz              0.0       0.0       0.0      70.4      25.7       0.0
 8 S  px              0.0       0.0       0.0      27.1      41.1       0.0
 8 S  py              0.0       0.0       0.0       2.5      33.2       0.0
10 S  pz              0.0       0.9      18.5       0.0       0.0      80.6
10 S  px              0.0      80.6      12.4       0.0       0.0       7.0
10 S  py              0.0      18.5      69.0       0.0       0.0      12.4

                     30        31        32        33        34        35   
                  -5.70482  -5.66608  -5.66194  -5.65762  -5.65702  -5.65356
                   2.00000   2.00000   2.00000   2.00000   2.00000   2.00000
                  --------  --------  --------  --------  --------  --------
 4 S  pz              0.0       0.0      92.0       0.0       0.0       2.5
 4 S  px              0.0       0.0       7.9       0.0       0.0      32.8
 4 S  py              0.0       0.0       0.0       0.0       0.0      64.7
 8 S  pz              3.9       0.0       0.0       0.0       0.0       0.0
 8 S  px             31.8       0.0       0.0       0.0       0.0       0.0
 8 S  py             64.2       0.0       0.0       0.0       0.0       0.0
12 S  pz              0.0       1.9       0.0       7.0      91.1       0.0
12 S  px              0.0      17.7       0.0      78.8       3.4       0.0
12 S  py              0.0      80.3       0.0      14.2       5.5       0.0

                     36        37        38        39        40        41   
                  -5.65325  -4.65201  -4.65050  -4.64958  -4.64614  -4.64593
                   2.00000   2.00000   2.00000   2.00000   2.00000   2.00000
                  --------  --------  --------  --------  --------  --------
 3 P  pz              0.0       0.0       0.0       0.0      38.8       8.9
 3 P  px              0.0       0.0       0.0       0.0      58.5       0.2
 3 P  py              0.0       0.0       0.0       0.0       2.6      90.8
 4 S  pz              5.4       0.0       0.0       0.0       0.0       0.0
 4 S  px             59.3       0.0       0.0       0.0       0.0       0.0
 4 S  py             35.3       0.0       0.0       0.0       0.0       0.0
11 P  pz              0.0      54.9      44.0       1.0       0.0       0.0
11 P  px              0.0      38.9      39.0      22.1       0.0       0.0
11 P  py              0.0       6.1      17.0      76.8       0.0       0.0

                     42        43        44        45        46        47   
                  -4.64398  -0.99120  -0.99043  -0.94974  -0.94658  -0.76675
                   2.00000   2.00000   2.00000   2.00000   2.00000   2.00000
                  --------  --------  --------  --------  --------  --------
 0 C  s               0.0       0.0       0.1       0.0       0.4       0.1
 0 C  py              0.0       0.0       0.3       0.0       0.6       0.0
 1 C  s               0.0       0.3       2.4       0.0       5.0       0.3
 1 C  pz              0.0       0.1       0.5       0.0       1.0       0.0
 1 C  px              0.0       0.1       0.9       0.0       1.4       0.0
 1 C  py              0.0       0.2       1.5       0.0       2.2       0.0
 1 C  dyz             0.0       0.0       0.1       0.0       0.1       0.0
 1 C  dxy             0.0       0.0       0.1       0.0       0.2       0.0
 2 O  s               0.0       2.4      22.5       0.1      33.6       0.3
 2 O  pz              0.0       0.1       0.6       0.0       1.0       0.0
 2 O  px              0.0       0.0       0.0       0.0       0.5       0.0
 2 O  py              0.0       0.1       0.7       0.0       0.0       0.3
 3 P  s               0.0       1.3      12.8       0.0       0.1       1.4
 3 P  pz             52.1       0.3       3.1       0.0       0.2       0.0
 3 P  px             41.2       0.1       1.0       0.0       3.0       1.1
 3 P  py              6.6       0.1       0.7       0.0       7.1       0.5
 3 P  dz2             0.0       0.0       0.0       0.0       0.2       0.0
 3 P  dxz             0.0       0.0       0.5       0.0       0.8       0.1
 3 P  dyz             0.0       0.0       0.0       0.0       1.0       0.0
 3 P  dx2y2           0.0       0.0       0.1       0.0       1.4       0.0
 3 P  dxy             0.0       0.0       0.3       0.0       0.0       0.1
 4 S  s               0.0       0.0       0.3       0.0       0.0       0.1
 4 S  pz              0.0       0.0       0.3       0.0       0.0       0.1
 5 O  s               0.0       2.9      29.3       0.1      26.4       0.2
 5 O  pz              0.0       0.1       1.3       0.0       0.6       0.0
 5 O  px              0.0       0.0       0.3       0.0       0.1       0.3
 5 O  py              0.0       0.0       0.0       0.0       0.7       0.1
 6 C  s               0.0       0.3       3.4       0.0       4.2       0.3
 6 C  pz              0.0       0.0       0.1       0.0       0.1       0.0
 6 C  px              0.0       0.2       1.8       0.0       1.7       0.0
 6 C  py              0.0       0.2       1.9       0.0       1.8       0.0
 6 C  dxy             0.0       0.0       0.2       0.0       0.2       0.0
 7 C  s               0.0       0.0       0.2       0.0       0.3       0.0
 7 C  py              0.0       0.0       0.4       0.0       0.5       0.0
 8 S  s               0.0       0.1       0.2       0.0       0.0      15.6
 8 S  pz              0.0       0.0       0.0       0.0       0.0       2.2
 8 S  px              0.0       0.0       0.2       0.0       0.0       0.1
 8 S  py              0.0       0.0       0.1       0.0       0.0       0.5
 8 S  dz2             0.0       0.0       0.0       0.0       0.0       0.2
 9 C  s               0.0       0.0       0.0       0.0       0.0      26.2
 9 C  pz              0.0       0.0       0.0       0.0       0.0       0.9
 9 C  px              0.0       0.0       0.0       0.0       0.0       0.4
 9 C  py              0.0       0.0       0.0       0.0       0.0       1.2
10 S  s               0.0       0.3       0.0       0.0       0.0      21.0
10 S  pz              0.0       0.1       0.0       0.0       0.0       0.5
10 S  px              0.0       0.3       0.0       0.0       0.0       0.0
10 S  py              0.0       0.0       0.0       0.0       0.0       2.6
11 P  s               0.0      12.6       1.3       0.1       0.0       3.7
11 P  pz              0.0       0.5       0.0       8.0       0.0       0.4
11 P  px              0.0       0.6       0.1       1.8       0.0       2.2
11 P  py              0.0       3.2       0.3       0.8       0.0       0.2
11 P  dz2             0.0       0.1       0.0       1.7       0.0       0.1
11 P  dxz             0.0       0.3       0.0       0.0       0.0       0.1
[...]
 1 C  py              0.0       0.0       0.2       1.6
 1 C  dz2             0.0       0.0       0.0       0.6
 1 C  dxz             0.0       0.0       0.7       0.8
 1 C  dyz             0.0       0.0       0.7       3.2
 1 C  dxy             0.0       0.0       0.5       3.6
 2 O  s               0.0       0.0       1.7       0.1
 2 O  px              0.0       0.0       0.0       1.1
 2 O  py              0.0       0.0       0.0       5.7
 2 O  dz2             0.0       0.0       2.0       0.0
 2 O  dxz             0.0       0.0       1.1       9.3
 2 O  dyz             0.0       0.0       0.6      34.0
 2 O  dx2y2           0.0       0.0       3.7       5.0
 2 O  dxy             0.0       0.0       7.5      10.8
 3 P  s               0.0       0.0       0.1       0.1
 3 P  px              0.0       0.0       0.3       0.8
 3 P  py              0.0       0.0       0.5       2.1
 3 P  dz2             0.0       0.0       0.2       0.4
 3 P  dxz             0.0       0.0       0.1       0.6
 3 P  dyz             0.0       0.0       0.7       0.3
 3 P  dx2y2           0.0       0.0       0.2       0.9
 3 P  dxy             0.0       0.0       0.3       0.0
 5 O  s               0.0       0.0       1.1       0.7
 5 O  pz              0.0       0.0       0.1       0.2
 5 O  px              0.0       0.0       2.8       0.7
 5 O  py              0.0       0.0       2.1       0.4
 5 O  dz2             0.0       0.0      12.0       0.3
 5 O  dxz             0.0       0.0      12.2       8.4
 5 O  dyz             0.0       0.0       5.4       2.2
 5 O  dx2y2           0.0       0.0       3.5       1.1
 5 O  dxy             0.0       0.0      24.9       0.9
 6 C  s               0.0       0.0       1.6       0.1
 6 C  pz              0.0       0.0       0.1       0.0
 6 C  px              0.0       0.0       1.0       0.1
 6 C  py              0.0       0.0       1.7       0.0
 6 C  dz2             0.0       0.0       1.6       0.1
 6 C  dxz             0.0       0.0       0.6       0.0
 6 C  dyz             0.0       0.0       0.5       0.1
 6 C  dxy             0.0       0.0       6.4       0.1
 7 C  dx2y2           0.0       0.0       0.2       0.0
11 P  s               0.5       0.4       0.0       0.0
11 P  pz              0.7       1.0       0.0       0.0
11 P  px              0.5       0.0       0.0       0.0
11 P  py              0.8       0.0       0.0       0.0
11 P  dz2             0.4       0.7       0.0       0.0
11 P  dyz             0.3       0.0       0.0       0.0
11 P  dx2y2           0.3       0.0       0.0       0.0
11 P  dxy             0.5       0.0       0.0       0.0
13 O  s               0.3       0.1       0.0       0.0
13 O  pz              0.2       0.0       0.0       0.0
13 O  px              0.2       0.0       0.0       0.0
13 O  py              6.5       0.0       0.0       0.0
13 O  dz2             5.7       0.6       0.0       0.0
13 O  dxz             2.2       0.1       0.0       0.0
13 O  dyz             9.8       0.1       0.0       0.0
13 O  dx2y2          25.4       0.6       0.0       0.0
13 O  dxy            26.3       0.0       0.0       0.0
14 C  s               1.6       0.0       0.0       0.0
14 C  py              2.7       0.0       0.0       0.0
14 C  dz2             2.6       0.0       0.0       0.0
14 C  dx2y2           6.9       0.1       0.0       0.0
14 C  dxy             0.4       0.0       0.0       0.0
15 C  dyz             0.2       0.0       0.0       0.0
16 O  s               0.2       1.1       0.0       0.0
16 O  pz              0.2       5.6       0.0       0.0
16 O  px              0.0       0.8       0.0       0.0
16 O  py              0.0       0.2       0.0       0.0
16 O  dz2             2.5       0.0       0.0       0.0
16 O  dxz             0.0      37.5       0.0       0.0
16 O  dyz             1.3      24.8       0.0       0.0
16 O  dx2y2           0.0       0.8       0.0       0.0
16 O  dxy             0.0       7.3       0.0       0.0
17 C  s               0.0       2.0       0.0       0.0
17 C  pz              0.0       2.0       0.0       0.0
17 C  px              0.0       1.1       0.0       0.0
17 C  py              0.0       0.4       0.0       0.0
17 C  dz2             0.0       2.0       0.0       0.0
17 C  dxz             0.0       5.3       0.0       0.0
17 C  dyz             0.0       2.9       0.0       0.0
17 C  dxy             0.0       1.3       0.0       0.0
18 C  px              0.0       0.1       0.0       0.0
18 C  dx2y2           0.0       0.1       0.0       0.0


                      *****************************
                      * MAYER POPULATION ANALYSIS *
                      *****************************

  NA   - Mulliken gross atomic population
  ZA   - Total nuclear charge
  QA   - Mulliken gross atomic charge
  VA   - Mayer's total valence
  BVA  - Mayer's bonded valence
  FA   - Mayer's free valence

  ATOM       NA         ZA         QA         VA         BVA        FA
  0 C      6.2858     6.0000    -0.2858     4.0073     4.0073    -0.0000
  1 C      6.0319     6.0000    -0.0319     3.9409     3.9409    -0.0000
  2 O      8.3658     8.0000    -0.3658     2.1687     2.1687     0.0000
  3 P     14.4260    15.0000     0.5740     4.9841     4.9841     0.0000
  4 S     16.3228    16.0000    -0.3228     2.0250     2.0250    -0.0000
  5 O      8.3668     8.0000    -0.3668     2.1756     2.1756     0.0000
  6 C      6.0045     6.0000    -0.0045     3.9875     3.9875     0.0000
  7 C      6.3122     6.0000    -0.3122     3.9975     3.9975     0.0000
  8 S     16.0708    16.0000    -0.0708     2.2710     2.2710     0.0000
  9 C      6.3443     6.0000    -0.3443     3.8275     3.8275    -0.0000
 10 S     16.1030    16.0000    -0.1030     2.2986     2.2986     0.0000
 11 P     14.3836    15.0000     0.6164     4.9448     4.9448    -0.0000
 12 S     16.3051    16.0000    -0.3051     2.0421     2.0421     0.0000
 13 O      8.3656     8.0000    -0.3656     2.1704     2.1704    -0.0000
 14 C      6.0349     6.0000    -0.0349     4.0169     4.0169     0.0000
 15 C      6.3009     6.0000    -0.3009     3.9938     3.9938    -0.0000
 16 O      8.3800     8.0000    -0.3800     2.1749     2.1749     0.0000
 17 C      6.0070     6.0000    -0.0070     3.9906     3.9906    -0.0000
 18 C      6.3113     6.0000    -0.3113     3.9947     3.9947    -0.0000
 19 H      0.8946     1.0000     0.1054     0.9545     0.9545     0.0000
 20 H      0.8828     1.0000     0.1172     0.9595     0.9595     0.0000
 21 H      0.8824     1.0000     0.1176     0.9731     0.9731     0.0000
 22 H      0.8752     1.0000     0.1248     0.9906     0.9906    -0.0000
 23 H      0.8935     1.0000     0.1065     0.9793     0.9793    -0.0000
 24 H      0.8927     1.0000     0.1073     0.9491     0.9491     0.0000
 25 H      0.8846     1.0000     0.1154     0.9832     0.9832    -0.0000
 26 H      0.8860     1.0000     0.1140     0.9546     0.9546     0.0000
 27 H      0.8701     1.0000     0.1299     0.9793     0.9793     0.0000
 28 H      0.8866     1.0000     0.1134     0.9607     0.9607     0.0000
 29 H      0.8045     1.0000     0.1955     0.9619     0.9619    -0.0000
 30 H      0.8102     1.0000     0.1898     0.9597     0.9597    -0.0000
 31 H      0.8856     1.0000     0.1144     0.9467     0.9467    -0.0000
 32 H      0.8863     1.0000     0.1137     0.9711     0.9711    -0.0000
 33 H      0.8622     1.0000     0.1378     0.9669     0.9669     0.0000
 34 H      0.8735     1.0000     0.1265     0.9569     0.9569    -0.0000
 35 H      0.8857     1.0000     0.1143     0.9549     0.9549    -0.0000
 36 H      0.8828     1.0000     0.1172     0.9863     0.9863    -0.0000
 37 H      0.8921     1.0000     0.1079     0.9479     0.9479    -0.0000
 38 H      0.8712     1.0000     0.1288     0.9791     0.9791    -0.0000
 39 H      0.8840     1.0000     0.1160     0.9549     0.9549    -0.0000
 40 H      0.8911     1.0000     0.1089     0.9570     0.9570    -0.0000

  Mayer bond orders larger than 0.100000
B(  0-C ,  1-C ) :   1.1647 B(  0-C , 19-H ) :   0.9422 B(  0-C , 20-H ) :   0.9485 
B(  0-C , 21-H ) :   0.9444 B(  1-C ,  2-O ) :   0.8930 B(  1-C , 22-H ) :   0.9008 
B(  1-C , 23-H ) :   0.9167 B(  2-O ,  3-P ) :   1.1172 B(  3-P ,  4-S ) :   1.6537 
B(  3-P ,  5-O ) :   1.0945 B(  3-P ,  8-S ) :   0.9692 B(  5-O ,  6-C ) :   0.9055 
B(  6-C ,  7-C ) :   1.1625 B(  6-C , 24-H ) :   0.9345 B(  6-C , 25-H ) :   0.9145 
B(  7-C , 26-H ) :   0.9387 B(  7-C , 27-H ) :   0.9359 B(  7-C , 28-H ) :   0.9472 
B(  8-S ,  9-C ) :   0.9876 B(  9-C , 10-S ) :   0.9964 B(  9-C , 29-H ) :   0.8854 
B(  9-C , 30-H ) :   0.8901 B( 10-S , 11-P ) :   0.9676 B( 10-S , 12-S ) :   0.1031 
B( 11-P , 12-S ) :   1.6409 B( 11-P , 13-O ) :   1.1253 B( 11-P , 16-O ) :   1.0535 
B( 13-O , 14-C ) :   0.8967 B( 14-C , 15-C ) :   1.1681 B( 14-C , 31-H ) :   0.9330 
B( 14-C , 32-H ) :   0.9142 B( 15-C , 33-H ) :   0.9327 B( 15-C , 34-H ) :   0.9446 
B( 15-C , 35-H ) :   0.9382 B( 16-O , 17-C ) :   0.8995 B( 17-C , 18-C ) :   1.1614 
B( 17-C , 36-H ) :   0.9130 B( 17-C , 37-H ) :   0.9324 B( 18-C , 38-H ) :   0.9358 
B( 18-C , 39-H ) :   0.9405 B( 18-C , 40-H ) :   0.9474 

-------
TIMINGS
-------

Total SCF time: 0 days 0 hours 0 min 17 sec 

Total time                  ....      17.160 sec
Sum of individual times     ....      16.665 sec  ( 97.1%)

SCF preparation             ....       0.207 sec  (  1.2%)
Fock matrix formation       ....      15.273 sec  ( 89.0%)
  Startup                   ....       0.069 sec  (  0.5% of F)
  Split-RI-J                ....       9.049 sec  ( 59.2% of F)
  XC integration            ....       5.627 sec  ( 36.8% of F)
    Basis function eval.    ....       2.119 sec  ( 37.7% of XC)
    Density eval.           ....       1.083 sec  ( 19.3% of XC)
    XC-Functional eval.     ....       0.405 sec  (  7.2% of XC)
    XC-Potential eval.      ....       1.238 sec  ( 22.0% of XC)
Diagonalization             ....       0.000 sec  (  0.0%)
Density matrix formation    ....       0.230 sec  (  1.3%)
Total Energy calculation    ....       0.034 sec  (  0.2%)
Population analysis         ....       0.206 sec  (  1.2%)
Orbital Transformation      ....       0.090 sec  (  0.5%)
Orbital Orthonormalization  ....       0.000 sec  (  0.0%)
DIIS solution               ....       0.481 sec  (  2.8%)
  MO trafo                  ....       0.000 sec  (  0.0 % of DIIS)
  Orb grad                  ....       0.000 sec  (  0.0 % of DIIS)
  Energy W gradient         ....       0.000 sec  (  0.0 % of DIIS)
  DIIS error                ....       0.023 sec  (  4.9 % of DIIS)
  DIIS work                 ....       0.395 sec  ( 82.2 % of DIIS)
  Form Q                    ....       0.000 sec  (  0.0 % of DIIS)
  Form QpQm                 ....       0.000 sec  (  0.0 % of DIIS)
  Exp/Cayley                ....       0.000 sec  (  0.0 % of DIIS)
  Orb update                ....       0.000 sec  (  0.0 % of DIIS)
  Wake-sleep                ....       0.015 sec  (  3.2 % of DIIS)
SOSCF solution              ....       0.143 sec  (  0.8%)
  MO trafo                  ....       0.070 sec  ( 49.2 % of SOSCF)
  Orb grad                  ....       0.004 sec  (  2.5 % of SOSCF)
  Rot update                ....       0.030 sec  ( 20.8 % of SOSCF)
  Step                      ....       0.039 sec  ( 27.4 % of SOSCF)
Finished LeanSCF after  17.2 sec

Maximum memory used throughout the entire LEANSCF-calculation: 34.9 MB


-------------------------------------------------------------------------------
                          DFT DISPERSION CORRECTION                            
                                                                               
                                DFTD4 V3.4.0                                   
-------------------------------------------------------------------------------
The PBE functional is recognized
Active option DFTDOPT                   ...         5   

-------------------------   ----------------
Dispersion correction           -0.065933221
-------------------------   ----------------

------------------   -----------------
gCP correction             0.186333313
------------------   -----------------

-------------------------   --------------------
FINAL SINGLE POINT ENERGY     -2929.522892584481
-------------------------   --------------------


------------------------------------------------------------------------------
                              ORCA PROPERTY CALCULATIONS
------------------------------------------------------------------------------

GBWName                                 ... sp.gbw
Number of atoms                         ...     41
Number of basis functions               ...    334
Max core memory                         ...   1024 MB

Electric properties:
Dipole moment                           ... YES
Quadrupole moment                       ...  NO
Static polarizability (Dipole/Dipole)   ...  NO
Static polarizability (Dipole/Quad.)    ...  NO
Static polarizability (Quad./Quad.)     ...  NO
Static polarizability (Velocity)        ...  NO

Atomic electric properties:
Dipole moment                           ...  NO
Quadrupole moment                       ...  NO
Static polarizability                   ...  NO

Choice of electric origin               ... Center of mass
Position of electric origin             ...    -0.000002     0.000003     0.000001

General magnetic properties:
Magnetizability                         ...  NO

EPR properties:
g-Tensor (aka g-matrix)                 ...  NO
Zero-Field splitting spin-orbit         ...  NO
Zero-field splitting spin-spin          ...  NO
Hyperfine couplings                     ...  NO (   0 nuclei)
Quadrupole couplings                    ...  NO (   0 nuclei)
Contact density                         ...  NO (   0 nuclei)

NMR properties:
Chemical shifts                         ...  NO (   0 nuclei)
Spin-rotation constants                 ...  NO (   0 nuclei)
Spin-spin couplings                     ...  NO (   0 nuclei,    0 pairs)

Choice of magnetic origin               ... GIAO
Position of magnetic origin             ...     0.000000     0.000000     0.000000

Properties with geometric perturbations:
SCF Hessian                             ...  NO
IR spectrum                             ...  NO
VCD spectrum                            ...  NO
X-ray spectroscopy properties:
SCF XES/XAS/RIXS spectra                ...  NO


-------------
DIPOLE MOMENT
-------------

Method             : SCF
Type of density    : Electron Density
Multiplicity       :   1
Irrep              :   0
Energy             : -2929.6432926773063627 Eh
Relativity type    : 
Basis              : AO
                                X                 Y                 Z
Electronic contribution:      2.649213646     -12.529188502      -0.153397299
Nuclear contribution   :     -2.677079099      13.686990885      -0.208345539
                        -----------------------------------------
Total Dipole Moment    :     -0.027865453       1.157802384      -0.361742838
                        -----------------------------------------
Magnitude (a.u.)       :      1.213318064
Magnitude (Debye)      :      3.084009428



--------------------
Rotational spectrum 
--------------------
 
Rotational constants in cm-1:             0.011994             0.005077             0.004753 
Rotational constants in MHz :           359.561320           152.213589           142.479914 

Dipole components along the rotational axes: 
x,y,z [a.u.] :    -0.479734     1.087726     0.242585 
x,y,z [Debye]:    -1.219386     2.764781     0.616602 

 

Dipole moment calculation done in   0.0 sec 

Maximum memory used throughout the entire PROP-calculation: 24.2 MB

--------------------------------
SUGGESTED CITATIONS FOR THIS RUN
--------------------------------

Below you find a list of papers that are relevant to this ORCA run
We neither can nor want to force you to cite these papers, but we appreciate if you do
You receive ORCA, which is the product of decades of hard work by many enthusiastic individuals, for free
The only thing we kindly ask in return is that you cite our papers,
We deeply appreciate it, if you show your appreciation for ORCA by not just citing the generic ORCA reference.

Please note that relegating all ORCA citations to the supporting information does *not* help us.
SI sections are not indexed - citations you put there will not count into any citation statistics
But we need these citations in order to attract the funding resources that allow us to do what we are doing

Therefore, if you are a happy ORCA user, please consider citing a few of the papers listed below in the main body of your paper

In addition to the list printed below, the program has created the file sp.bibtex that contains the list in bibtex format
You can import this file easily into all common literature databanks and citation aid programs


List of essential papers. We consider these as the minimum necessary citations

  1. Neese,F.
     Software update: the ORCA program system, version 5.0
     WIRES Comput. Molec. Sci., 2022 12(1)e1606
     doi.org/10.1002/wcms.1606

List of papers to cite with high priority. The work reported in these papers was absolutely
necessary for this run to complete.
Our perspective: the developers of density functionals and basis sets usually get cited in chemistry papers
Good! But without the algorithms to do something with them, the functionals or basis sets would not do anything.
Hence, in our opinion, the algorithm design and method developments papers are equally worthy of getting cited

  1. Neese,F.
     An improvement of the resolution of the identity approximation for the formation of the Coulomb matrix
     J. Comp. Chem., 2003 24(14)1740-1747
     doi.org/10.1002/jcc.10318
  2. Neese,F.
     The SHARK Integral Generation and Digestion System
     J. Comp. Chem., 2022  1-16
     doi.org/10.1002/jcc.26942
  3. Caldeweyher,E.; Bannwarth,C.; Grimme,S.
     Extension of the D3 dispersion coefficient model
     J. Chem. Phys., 2017 147 034112-XXXX
     doi.org/10.1063/1.4993215
  4. Caldeweyher,E.; Ehlert,S.; Hansen,A.; Neugebauer,H.; Spicher,S.; Bannwarth,C.; Grimme,S.
     A generally applicable atomic-charge dependent London dispersion correction
     J. Chem. Phys., 2019 150 154122-XXXX
     doi.org/10.1063/1.5090222
  5. Caldeweyher,E.; Mewes,J.; Ehlert,S.; Grimme,S.
     Extension and evaluation of the D4 London-dispersion model for periodic systems
     Phys. Chem. Chem. Phys., 2020 22(16)8499-8512
     doi.org/10.1039/D0CP00502A

List of suggested additional citations. These are papers that are important in the 'surrounding' of 
of this run, or papers that preceded the highly important papers. If you like your results we are grateful for a citation.

  1. Neese,F.
     The ORCA program system
     WIRES Comput. Molec. Sci., 2012 2(1)73-78
     doi.org/10.1002/wcms.81
  2. Neese,F.
     Software update: the ORCA program system, version 4.0
     WIRES Comput. Molec. Sci., 2018 8(1)1-6
     doi.org/10.1002/wcms.1327
  3. Neese,F.; Wennmohs,F.; Becker,U.; Riplinger,C.
     The ORCA quantum chemistry program package
     J. Chem. Phys., 2020 152 Art. No. L224108
     doi.org/10.1063/5.0004608

List of optional additional citations

  1. Neese,F.
     Approximate second-order SCF convergence for spin unrestricted wavefunctions
     Chem. Phys. Lett., 2000 325(1-3)93-98
     doi.org/10.1016/s0009-2614(00)00662-x

Timings for individual modules:

Sum of individual times          ...       20.849 sec (=   0.347 min)
Startup calculation              ...        1.543 sec (=   0.026 min)   7.4 %
SCF iterations                   ...       19.196 sec (=   0.320 min)  92.1 %
Property calculations            ...        0.110 sec (=   0.002 min)   0.5 %
                             ****ORCA TERMINATED NORMALLY****
TOTAL RUN TIME: 0 days 0 hours 0 minutes 21 seconds 598 msec
