
                                 *****************
                                 * O   R   C   A *
                                 *****************

                                            #,                                       
                                            ###                                      
                                            ####                                     
                                            #####                                    
                                            ######                                   
                                           ########,                                 
                                     ,,################,,,,,                         
                               ,,#################################,,                 
                          ,,##########################################,,             
                       ,#########################################, ''#####,          
                    ,#############################################,,   '####,        
                  ,##################################################,,,,####,       
                ,###########''''           ''''###############################       
              ,#####''   ,,,,##########,,,,          '''####'''          '####       
            ,##' ,,,,###########################,,,                        '##       
           ' ,,###''''                  '''############,,,                           
         ,,##''                                '''############,,,,        ,,,,,,###''
      ,#''                                            '''#######################'''  
     '                                                          ''''####''''         
             ,#######,   #######,   ,#######,      ##                                
            ,#'     '#,  ##    ##  ,#'     '#,    #''#        ,####,   ,####,        
            ##       ##  ##   ,#'  ##            #'  '#       #'       #'  '#        
            ##       ##  #######   ##           ,######,      #####,   #    #        
            '#,     ,#'  ##    ##  '#,     ,#' ,#      #,     #,   #   #,  ,#        
             '#######'   ##     ##  '#######'  #'      '#     '####' # '####'        



                #########################################################
                #                        -***-                          #
                #          Department of theory and spectroscopy        #
                #                                                       #
                #                      Frank Neese                      #
                #                                                       #
                #     Directorship, Architecture, Infrastructure        #
                #                    SHARK, DRIVERS                     #
                #        Core code/Algorithms in most modules           #
                #                                                       #
                #        Max Planck Institute fuer Kohlenforschung      #
                #                Kaiser Wilhelm Platz 1                 #
                #                 D-45470 Muelheim/Ruhr                 #
                #                      Germany                          #
                #                                                       #
                #                  All rights reserved                  #
                #                        -***-                          #
                #########################################################


                         Program Version 6.0.1  -  RELEASE   -


 With contributions from (in alphabetic order):
[Max-Planck-Institut fuer Kohlenforschung]                               
  Daniel Aravena         : Magnetic Suceptibility                        
  Michael Atanasov       : Ab Initio Ligand Field Theory (pilot matlab implementation)
  Alexander A. Auer      : GIAO ZORA, VPT2 properties, NMR spectrum      
  Ute Becker             : All parallelization in ORCA, NUMFREQ, NUMCALC 
  Giovanni Bistoni       : ED, misc. LED, open-shell LED, HFLD           
  Martin Brehm           : Molecular dynamics                            
  Dmytro Bykov           : pre 5.0 version of the SCF Hessian            
  Marcos Casanova-Páez   : Triplet and SCS-CIS(D). UHF-(DLPNO)-IP/EA/STEOM-CCSD. UHF-CVS-IP/STEOM-CCSD   
  Vijay G. Chilkuri      : MRCI spin determinant printing, contributions to CSF-ICE 
  Pauline Colinet        : FMM embedding                                 
  Dipayan Datta          : RHF DLPNO-CCSD density                        
  Achintya Kumar Dutta   : EOM-CC, STEOM-CC                              
  Nicolas Foglia         : Exact transition moments, OPA infrastructure, MCD improvements    
  Dmitry Ganyushin       : Spin-Orbit,Spin-Spin,Magnetic field MRCI      
  Miquel Garcia-Rates    : C-PCM and meta-GGA Hessian, CCSD/C-PCM, Gaussian charge scheme 
  Tiago L. C. Gouveia    : GS-ROHF, GS-ROCIS                             
  Yang Guo               : DLPNO-NEVPT2, F12-NEVPT2, CIM, IAO-localization        
  Andreas Hansen         : Spin unrestricted coupled pair/coupled cluster methods 
  Ingolf Harden          : AUTO-CI MPn and infrastructure                
  Benjamin Helmich-Paris : MC-RPA, TRAH-(SCF,CASSCF), AVAS, COSX integrals, SCF dyn. polar. 
  Lee Huntington         : MR-EOM, pCC                                   
  Robert Izsak           : Overlap fitted RIJCOSX, COSX-SCS-MP3, EOM     
  Riya Kayal             : Wick's Theorem for AUTO-CI, AUTO-CI UHF-CCSDT 
  Emily Kempfer          : AUTO-CI, RHF CISDT and CCSDT                  
  Christian Kollmar      : KDIIS, OOCD, Brueckner-CCSD(T), CCSD density, CASPT2, CASPT2-K, improved NEVPT2 
  Axel Koslowski         : Symmetry handling                             
  Simone Kossmann        : meta-GGA functionals, TD-DFT gradient, OOMP2, (MP2 Hessian; deprecated post 5.0) 
  Lucas Lang             : DCDCAS                                        
  Marvin Lechner         : AUTO-CI (C++ implementation), FIC-MRCC        
  Spencer Leger          : CASSCF response                               
  Dagmar Lenk            : GEPOL surface, SMD, ORCA-2-JSON               
  Dimitrios Liakos       : Extrapolation schemes; Compound Job, initial MDCI parallelization 
  Dimitrios Manganas     : Further ROCIS development; embedding schemes. LFT, Crystal Embedding 
  Dimitrios Pantazis     : SARC Basis sets                               
  Anastasios Papadopoulos: AUTO-CI, single reference methods and gradients 
  Taras Petrenko         : pre 6.0 DFT Hessian and TD-DFT gradient, (ASA, deprecated), ECA, 1-Electron XAS/XES, NRVS 
  Peter Pinski           : DLPNO-MP2, DLPNO-MP2 Gradient                 
  Christoph Reimann      : Effective Core Potentials                     
  Marius Retegan         : Local ZFS, SOC                                
  Christoph Riplinger    : Optimizer, TS searches, QM/MM, DLPNO-CCSD(T), (RO)-DLPNO pert. Triples 
  Michael Roemelt        : Original ROCIS implementation                 
  Masaaki Saitow         : Open-shell DLPNO-CCSD energy and density      
  Barbara Sandhoefer     : DKH picture change effects                    
  Kantharuban Sivalingam : CASSCF convergence/infrastructure, NEVPT2 and variants, FIC-MRCI 
  Bernardo de Souza      : ESD, SOC TD-DFT                               
  Georgi L. Stoychev     : AutoAux, RI-MP2 NMR, DLPNO-MP2 response, X2C  
  Van Anh Tran           : RI-MP2 g-tensors                              
  Willem Van den Heuvel  : Paramagnetic NMR                              
  Zikuan Wang            : NOTCH, Electric field optimization            
  Frank Wennmohs         : Technical directorship and infrastructure     
  Hang Xu                : AUTO-CI-Response properties                   
                                                                         
[FACCTs GmbH]                                                            
  Markus Bursch, Miquel Garcia-Rates, Christoph Riplinger, Bernardo de Souza, Georgi L. Stoychev 
                                                                 
  APM, Basis sets (HGBS, AHGBS, def-TZVP (Ac-Lr), def2-XVPD (La-Lu)), CI-OPT, improved COSX, DLPNO-Multilevel,           
  DOCKER, DRACO, updates on ESD, GOAT, IRC, LR-CPCM, MBIS, meta-GGA TD-DFT gradient, ML-optimized integration grids, 
  MM, NACMEs, nearIR, NEB, NEB-TS, NL-DFT gradient (VV10), 2- and 3-layer-ONIOM, interface openCOSMO-RS, QMMM,   
  Crystal-QMMM, SF, symmetry and pop. for TD-DFT, r2SCAN hybrids, SOLVATOR                                   
                                                                         
[Other institutions]                                                     
  V. Asgeirsson          : NEB                                           
  Christoph Bannwarth    : sTDA-DFT, sTD-DFT, PBEh-3c, B97-3c, D3        
  Sebastian Ehlert       : rSCAN, r2SCAN, r2SCAN-3c, D4, dhf basis sets  
  Marvin Friede          : D4 for Fr, Ra, Ac-Lr                          
  Lars Goerigk           : TD-DFT with DH, B97 family of functionals     
  Stefan Grimme          : VdW corrections, initial TS optimization, DFT functionals, gCP, sTDA/sTD-DF 
  Waldemar Hujo          : DFT-NL                                        
  H. Jonsson             : NEB                                           
  Holger Kruse           : gCP                                           
  Marcel Mueller         : wB97X-3c, vDZP basis set                      
  Hagen Neugebauer       : wr2SCAN                                       
  Tobias Risthaus        : range-separated hybrid DFT                    
  Lukas Wittmann         : regularized MP2, r2SCAN double-hybrids, wr2SCAN        
                                                                         
We gratefully acknowledge several colleagues who have allowed us to      
interface, adapt or use parts of their codes:                            
  Ed Valeev, F. Pavosevic, A. Kumar             : LibInt (2-el integral package), F12 methods 
  Garnet Chan, S. Sharma, J. Yang, R. Olivares  : DMRG                   
  Ulf Ekstrom                                   : XCFun DFT Library      
  Mihaly Kallay                                 : mrcc  (arbitrary order and MRCC methods)
  Frank Weinhold                                : gennbo (NPA and NBO analysis)           
  Simon Mueller                                 : openCOSMO-RS                            
  Christopher J. Cramer and Donald G. Truhlar   : smd solvation model                     
  S Lehtola, MJT Oliveira, MAL Marques          : LibXC Library                           
  Liviu Ungur et al                             : ANISO software                          


 Your calculation uses the libint2 library for the computation of 2-el integrals
 For citations please refer to: http://libint.valeyev.net

 Your ORCA version has been built with support for libXC version: 6.2.2
 For citations please refer to: https://libxc.gitlab.io

 This ORCA versions uses:
   CBLAS   interface :  Fast vector & matrix operations
   LAPACKE interface :  Fast linear algebra routines
   SCALAPACK package :  Parallel linear algebra routines
   Shared memory     :  Shared parallel matrices
   BLAS/LAPACK       :  OpenBLAS 0.3.27  USE64BITINT DYNAMIC_ARCH NO_AFFINITY Zen SINGLE_THREADED
        Core in use  :  Zen
   Copyright (c) 2011-2014, The OpenBLAS Project


Your calculation utilizes the geometrical counterpoise correction gCP
Please cite in your paper:
H.Kruse, S. Grimme J.Chem.Phys., 136, (2012), 154101 
   

Your calculation utilizes the atom-pairwise dispersion correction
based on EEQ partial charges (D4)


================================================================================

----- Orbital basis set information -----
Your calculation utilizes the basis: def2-SV(P)
   F. Weigend and R. Ahlrichs, Phys. Chem. Chem. Phys. 7, 3297 (2005).

----- AuxJ basis set information -----
Your calculation utilizes the auxiliary basis: def2/J
   F. Weigend, Phys. Chem. Chem. Phys. 8, 1057 (2006).

================================================================================
                                        WARNINGS
                       Please study these warnings very carefully!
================================================================================

WARNING: Old DensityContainer found on disk!
         Will remove this file - 
         If you want to keep old densities, please start your calculation with a different basename. 


================================================================================
                                       INPUT FILE
================================================================================
NAME = sp.inp
|  1> ! pbe def2-sv(p) def2/J RI DEFGRID1 loosescf d4 GCP(DFT/SV(P)) printgap
|  2> %output
|  3>     printlevel normal
|  4> end
|  5> * xyz 0 1
|  6> C 5.6627869929 -1.4983849746 -0.2591589347
|  7> C 4.8169519763 -1.6725957539 -1.5102612692
|  8> O 3.4757026575 -2.0802072929 -1.1711962793
|  9> C 2.5920150656 -1.1540355137 -0.8722018647
| 10> O 2.8050558455 0.0415268399 -0.8994478688
| 11> C 1.2605340889 -1.7537887132 -0.4746550503
| 12> C 0.1960349107 -0.6712081511 -0.5358919752
| 13> H -0.0469827425 -0.3826769411 -1.5629132382
| 14> C 0.599406236 0.5802563804 0.2213569006
| 15> O 0.3735690113 1.6968653352 -0.192781075
| 16> O 1.0842730627 0.2960992967 1.4122302193
| 17> C 1.5091893314 1.3825695192 2.2574960623
| 18> C 3.011618725 1.5797159031 2.1414305996
| 19> S -1.3419344568 -1.2447705802 0.2632065051
| 20> P -2.4975903443 0.5019536753 -0.1000236359
| 21> S -2.3790331247 1.2554604749 -1.8985547551
| 22> O -3.9563737112 0.0110999331 0.3231656243
| 23> C -4.6940081823 -0.9056865186 -0.4961508873
| 24> O -2.1848693101 1.5224491787 1.068877333
| 25> C -2.4050527617 1.1819115013 2.4552585813
| 26> H 5.2723303364 -0.6826753152 0.3452752946
| 27> H 5.6548315078 -2.4124291903 0.3277858923
| 28> H 6.682709101 -1.2649473964 -0.5460696026
| 29> H 5.1941801571 -2.4799492989 -2.137636206
| 30> H 4.7654890249 -0.7392071197 -2.0780972502
| 31> H 1.3519706478 -2.12750114 0.548158983
| 32> H 1.0158606595 -2.5915864003 -1.1259199571
| 33> H 0.9708729325 2.2857870487 1.9557246438
| 34> H 1.2226186951 1.0817247486 3.266170456
| 35> H 3.5338533432 0.6890722747 2.4799474419
| 36> H 3.2762741414 1.7698433802 1.1028150328
| 37> H 3.3133732283 2.4271817298 2.747702592
| 38> H -5.7207304401 -0.8513030258 -0.1436518972
| 39> H -4.2944482113 -1.9113222001 -0.3715487379
| 40> H -4.6320255251 -0.604691332 -1.5429191378
| 41> H -1.9575343755 1.9948072512 3.0214053897
| 42> H -1.9231776394 0.2317405678 2.6889803671
| 43> H -3.4736296782 1.115953491 2.6482296091
| 44> *
| 45> 
| 46>                          ****END OF INPUT****
================================================================================

                       ****************************
                       * Single Point Calculation *
                       ****************************

---------------------------------
CARTESIAN COORDINATES (ANGSTROEM)
---------------------------------
  C      5.662787   -1.498385   -0.259159
  C      4.816952   -1.672596   -1.510261
  O      3.475703   -2.080207   -1.171196
  C      2.592015   -1.154036   -0.872202
  O      2.805056    0.041527   -0.899448
  C      1.260534   -1.753789   -0.474655
  C      0.196035   -0.671208   -0.535892
  H     -0.046983   -0.382677   -1.562913
  C      0.599406    0.580256    0.221357
  O      0.373569    1.696865   -0.192781
  O      1.084273    0.296099    1.412230
  C      1.509189    1.382570    2.257496
  C      3.011619    1.579716    2.141431
  S     -1.341934   -1.244771    0.263207
  P     -2.497590    0.501954   -0.100024
  S     -2.379033    1.255460   -1.898555
  O     -3.956374    0.011100    0.323166
  C     -4.694008   -0.905687   -0.496151
  O     -2.184869    1.522449    1.068877
  C     -2.405053    1.181912    2.455259
  H      5.272330   -0.682675    0.345275
  H      5.654832   -2.412429    0.327786
  H      6.682709   -1.264947   -0.546070
  H      5.194180   -2.479949   -2.137636
  H      4.765489   -0.739207   -2.078097
  H      1.351971   -2.127501    0.548159
  H      1.015861   -2.591586   -1.125920
  H      0.970873    2.285787    1.955725
  H      1.222619    1.081725    3.266170
  H      3.533853    0.689072    2.479947
  H      3.276274    1.769843    1.102815
  H      3.313373    2.427182    2.747703
  H     -5.720730   -0.851303   -0.143652
  H     -4.294448   -1.911322   -0.371549
  H     -4.632026   -0.604691   -1.542919
  H     -1.957534    1.994807    3.021405
  H     -1.923178    0.231741    2.688980
  H     -3.473630    1.115953    2.648230

----------------------------
CARTESIAN COORDINATES (A.U.)
----------------------------
  NO LB      ZA    FRAG     MASS         X           Y           Z
   0 C     6.0000    0    12.011   10.701117   -2.831537   -0.489739
   1 C     6.0000    0    12.011    9.102720   -3.160748   -2.853980
   2 O     8.0000    0    15.999    6.568126   -3.931022   -2.213240
   3 C     6.0000    0    12.011    4.898199   -2.180811   -1.648223
   4 O     8.0000    0    15.999    5.300787    0.078474   -1.699710
   5 C     6.0000    0    12.011    2.382064   -3.314180   -0.896968
   6 C     6.0000    0    12.011    0.370452   -1.268400   -1.012689
   7 H     1.0000    0     1.008   -0.088785   -0.723155   -2.953478
   8 C     6.0000    0    12.011    1.132714    1.096526    0.418304
   9 O     8.0000    0    15.999    0.705943    3.206611   -0.364303
  10 O     8.0000    0    15.999    2.048979    0.559547    2.668728
  11 C     6.0000    0    12.011    2.851955    2.612678    4.266049
  12 C     6.0000    0    12.011    5.691135    2.985230    4.046717
  13 S    16.0000    0    32.060   -2.535889   -2.352275    0.497388
  14 P    15.0000    0    30.974   -4.719762    0.948555   -0.189017
  15 S    16.0000    0    32.060   -4.495721    2.372476   -3.587749
  16 O     8.0000    0    15.999   -7.476463    0.020976    0.610695
  17 C     6.0000    0    12.011   -8.870390   -1.711499   -0.937589
  18 O     8.0000    0    15.999   -4.128805    2.877012    2.019885
  19 C     6.0000    0    12.011   -4.544891    2.233489    4.639766
  20 H     1.0000    0     1.008    9.963260   -1.290069    0.652476
  21 H     1.0000    0     1.008   10.686083   -4.558830    0.619426
  22 H     1.0000    0     1.008   12.628490   -2.390404   -1.031922
  23 H     1.0000    0     1.008    9.815578   -4.686425   -4.039547
  24 H     1.0000    0     1.008    9.005469   -1.396899   -3.927035
  25 H     1.0000    0     1.008    2.554854   -4.020395    1.035870
  26 H     1.0000    0     1.008    1.919698   -4.897389   -2.127680
  27 H     1.0000    0     1.008    1.834684    4.319512    3.695784
  28 H     1.0000    0     1.008    2.310414    2.044164    6.172168
  29 H     1.0000    0     1.008    6.678015    1.302158    4.686421
  30 H     1.0000    0     1.008    6.191261    3.344519    2.084018
  31 H     1.0000    0     1.008    6.261368    4.586709    5.192405
  32 H     1.0000    0     1.008  -10.810614   -1.608730   -0.271463
  33 H     1.0000    0     1.008   -8.115331   -3.611876   -0.702125
  34 H     1.0000    0     1.008   -8.753260   -1.142701   -2.915695
  35 H     1.0000    0     1.008   -3.699204    3.769639    5.709629
  36 H     1.0000    0     1.008   -3.634279    0.437926    5.081436
  37 H     1.0000    0     1.008   -6.564209    2.108846    5.004429

--------------------------------
INTERNAL COORDINATES (ANGSTROEM)
--------------------------------
 C      0   0   0     0.000000000000     0.00000000     0.00000000
 C      1   0   0     1.520211604456     0.00000000     0.00000000
 O      2   1   0     1.442241994009   110.87561673     0.00000000
 C      3   2   1     1.314570494354   118.65301886    85.46945766
 O      4   3   2     1.214700810894   124.78108905     2.48683030
 C      4   3   2     1.513469180811   111.83547772   182.88033544
 C      6   4   3     1.519502923589   108.86879884   196.21397161
 H      7   6   4     1.094111746379   112.41529187    71.40227733
 C      7   6   4     1.517332448601   112.41232921   309.20337895
 O      9   7   6     1.212158518030   122.66517548   139.84341670
 O      9   7   6     1.316822064306   111.79204124   313.38950974
 C     11   9   7     1.440640734232   118.45539261   180.19687144
 C     12  11   9     1.519747337905   110.15803636   262.84799336
 S      7   6   4     1.825618256006   110.40782636   191.88933868
 P     14   7   6     2.125681606073    97.18322456   181.41451675
 S     15  14   7     1.953597322401   116.18439614    44.91919197
 O     15  14   7     1.596269230965   101.47007075   170.03407843
 C     17  15  14     1.433834564082   121.01516063   287.35510676
 O     15  14   7     1.582888180759   107.22803444   275.01169284
 C     19  15  14     1.444472093093   121.77988076   302.04813863
 H      1   2   3     1.087740495979   110.09182310   295.29479477
 H      1   2   3     1.086298461722   110.13110477    55.70637395
 H      1   2   3     1.084920246314   109.27344243   175.80193871
 H      2   1   3     1.089825746777   111.47325752   244.20916161
 H      2   1   3     1.093755219022   110.83293517   120.72824484
 H      6   4   3     1.092780933657   107.92444882    76.99345943
 H      6   4   3     1.088997718268   110.20864366   318.80591103
 H     12  11   9     1.093916102790   108.40224178    24.47581567
 H     12  11   9     1.090896117003   104.89484800   142.77002054
 H     13  12  11     1.086539793002   110.18388818   297.91734612
 H     13  12  11     1.088537203121   109.62641306    57.72620122
 H     13  12  11     1.084813272621   109.49057620   177.52287745
 H     18  17  15     1.086909240449   105.58404031   195.51772483
 H     18  17  15     1.089255245554   109.64763820    76.07380197
 H     18  17  15     1.090946250924   110.03763069   314.83497270
 H     20  19  15     1.087011690302   105.11906085   171.07149689
 H     20  19  15     1.090712752982   110.10225797    51.48427766
 H     20  19  15     1.087862538729   109.52846253   290.31901155

---------------------------
INTERNAL COORDINATES (A.U.)
---------------------------
 C      0   0   0     0.000000000000     0.00000000     0.00000000
 C      1   0   0     2.872783598031     0.00000000     0.00000000
 O      2   1   0     2.725442387518   110.87561673     0.00000000
 C      3   2   1     2.484178218063   118.65301886    85.46945766
 O      4   3   2     2.295451867241   124.78108905     2.48683030
 C      4   3   2     2.860042263863   111.83547772   182.88033544
 C      6   4   3     2.871444385276   108.86879884   196.21397161
 H      7   6   4     2.067571560563   112.41529187    71.40227733
 C      7   6   4     2.867342781968   112.41232921   309.20337895
 O      9   7   6     2.290647629977   122.66517548   139.84341670
 O      9   7   6     2.488433068643   111.79204124   313.38950974
 C     11   9   7     2.722416445069   118.45539261   180.19687144
 C     12  11   9     2.871906261397   110.15803636   262.84799336
 S      7   6   4     3.449918528938   110.40782636   191.88933868
 P     14   7   6     4.016956083392    97.18322456   181.41451675
 S     15  14   7     3.691763915300   116.18439614    44.91919197
 O     15  14   7     3.016511682528   101.47007075   170.03407843
 C     17  15  14     2.709554647465   121.01516063   287.35510676
 O     15  14   7     2.991225162255   107.22803444   275.01169284
 C     19  15  14     2.729656664038   121.77988076   302.04813863
 H      1   2   3     2.055531642176   110.09182310   295.29479477
 H      1   2   3     2.052806592355   110.13110477    55.70637395
 H      1   2   3     2.050202142680   109.27344243   175.80193871
 H      2   1   3     2.059472195105   111.47325752   244.20916161
 H      2   1   3     2.066897821499   110.83293517   120.72824484
 H      6   4   3     2.065056688982   107.92444882    76.99345943
 H      6   4   3     2.057907447992   110.20864366   318.80591103
 H     12  11   9     2.067201847760   108.40224178    24.47581567
 H     12  11   9     2.061494901694   104.89484800   142.77002054
 H     13  12  11     2.053262642381   110.18388818   297.91734612
 H     13  12  11     2.057037200482   109.62641306    57.72620122
 H     13  12  11     2.049999991697   109.49057620   177.52287745
 H     18  17  15     2.053960796876   105.58404031   195.51772483
 H     18  17  15     2.058394104034   109.64763820    76.07380197
 H     18  17  15     2.061589641074   110.03763069   314.83497270
 H     20  19  15     2.054154399042   105.11906085   171.07149689
 H     20  19  15     2.061148393911   110.10225797    51.48427766
 H     20  19  15     2.055762269550   109.52846253   290.31901155

---------------------
BASIS SET INFORMATION
---------------------
There are 5 groups of distinct atoms

 Group   1 Type C   : 7s4p1d contracted to 3s2p1d pattern {511/31/1}
 Group   2 Type O   : 7s4p1d contracted to 3s2p1d pattern {511/31/1}
 Group   3 Type H   : 4s contracted to 2s pattern {31}
 Group   4 Type S   : 10s7p1d contracted to 4s3p1d pattern {5311/511/1}
 Group   5 Type P   : 10s7p1d contracted to 4s3p1d pattern {5311/511/1}

Atom   0C    basis set group =>   1
Atom   1C    basis set group =>   1
Atom   2O    basis set group =>   2
Atom   3C    basis set group =>   1
Atom   4O    basis set group =>   2
Atom   5C    basis set group =>   1
Atom   6C    basis set group =>   1
Atom   7H    basis set group =>   3
Atom   8C    basis set group =>   1
Atom   9O    basis set group =>   2
Atom  10O    basis set group =>   2
Atom  11C    basis set group =>   1
Atom  12C    basis set group =>   1
Atom  13S    basis set group =>   4
Atom  14P    basis set group =>   5
Atom  15S    basis set group =>   4
Atom  16O    basis set group =>   2
Atom  17C    basis set group =>   1
Atom  18O    basis set group =>   2
Atom  19C    basis set group =>   1
Atom  20H    basis set group =>   3
Atom  21H    basis set group =>   3
Atom  22H    basis set group =>   3
Atom  23H    basis set group =>   3
Atom  24H    basis set group =>   3
Atom  25H    basis set group =>   3
Atom  26H    basis set group =>   3
Atom  27H    basis set group =>   3
Atom  28H    basis set group =>   3
Atom  29H    basis set group =>   3
Atom  30H    basis set group =>   3
Atom  31H    basis set group =>   3
Atom  32H    basis set group =>   3
Atom  33H    basis set group =>   3
Atom  34H    basis set group =>   3
Atom  35H    basis set group =>   3
Atom  36H    basis set group =>   3
Atom  37H    basis set group =>   3
---------------------------------
AUXILIARY/J BASIS SET INFORMATION
---------------------------------
There are 5 groups of distinct atoms

 Group   1 Type C   : 12s5p4d2f1g contracted to 6s4p3d1f1g pattern {711111/2111/211/2/1}
 Group   2 Type O   : 12s5p4d2f1g contracted to 6s4p3d1f1g pattern {711111/2111/211/2/1}
 Group   3 Type H   : 5s2p1d contracted to 3s1p1d pattern {311/2/1}
 Group   4 Type S   : 14s5p5d2f1g contracted to 8s4p3d1f1g pattern {71111111/2111/311/2/1}
 Group   5 Type P   : 14s5p5d2f1g contracted to 8s4p3d1f1g pattern {71111111/2111/311/2/1}

Atom   0C    basis set group =>   1
Atom   1C    basis set group =>   1
Atom   2O    basis set group =>   2
Atom   3C    basis set group =>   1
Atom   4O    basis set group =>   2
Atom   5C    basis set group =>   1
Atom   6C    basis set group =>   1
Atom   7H    basis set group =>   3
Atom   8C    basis set group =>   1
Atom   9O    basis set group =>   2
Atom  10O    basis set group =>   2
Atom  11C    basis set group =>   1
Atom  12C    basis set group =>   1
Atom  13S    basis set group =>   4
Atom  14P    basis set group =>   5
Atom  15S    basis set group =>   4
Atom  16O    basis set group =>   2
Atom  17C    basis set group =>   1
Atom  18O    basis set group =>   2
Atom  19C    basis set group =>   1
Atom  20H    basis set group =>   3
Atom  21H    basis set group =>   3
Atom  22H    basis set group =>   3
Atom  23H    basis set group =>   3
Atom  24H    basis set group =>   3
Atom  25H    basis set group =>   3
Atom  26H    basis set group =>   3
Atom  27H    basis set group =>   3
Atom  28H    basis set group =>   3
Atom  29H    basis set group =>   3
Atom  30H    basis set group =>   3
Atom  31H    basis set group =>   3
Atom  32H    basis set group =>   3
Atom  33H    basis set group =>   3
Atom  34H    basis set group =>   3
Atom  35H    basis set group =>   3
Atom  36H    basis set group =>   3
Atom  37H    basis set group =>   3

Checking for AutoStart:
The File: sp.gbw exists
Trying to determine its content:
     ... Fine, the file contains calculation information
     ... Fine, the calculation information was read
     ... Fine, the file contains a basis set
     ... Fine, the basis set was read
     ... Fine, the file contains a geometry
     ... Fine, the geometry was read
     ... Fine, the file contains a set of orbitals
     ... Fine, the orbitals can be read
     => possible old guess file was deleted
     => GBW file was renamed to GES file
     => GES file is set as startup file
     => Guess is set to MORead
     ... now leaving AutoStart

------------------------------------------------------------------------------
                             ORCA STARTUP CALCULATIONS
                           -- RI-GTO INTEGRALS CHOSEN --
------------------------------------------------------------------------------
------------------------------------------------------------------------------
                   ___                                                        
                  /   \      - P O W E R E D   B Y -                         
                 /     \                                                     
                 |  |  |   _    _      __       _____    __    __             
                 |  |  |  | |  | |    /  \     |  _  \  |  |  /  |          
                  \  \/   | |  | |   /    \    | | | |  |  | /  /          
                 / \  \   | |__| |  /  /\  \   | |_| |  |  |/  /          
                |  |  |   |  __  | /  /__\  \  |    /   |      \           
                |  |  |   | |  | | |   __   |  |    \   |  |\   \          
                \     /   | |  | | |  |  |  |  | |\  \  |  | \   \       
                 \___/    |_|  |_| |__|  |__|  |_| \__\ |__|  \__/        
                                                                              
                      - O R C A' S   B I G   F R I E N D -                    
                                      &                                       
                       - I N T E G R A L  F E E D E R -                       
                                                                              
 v1 FN, 2020, v2 2021, v3 2022-2024                                           
------------------------------------------------------------------------------


----------------------
SHARK INTEGRAL PACKAGE
----------------------

Number of atoms                             ...     38
Number of basis functions                   ...    316
Number of shells                            ...    158
Maximum angular momentum                    ...      2
Integral batch strategy                     ... SHARK/LIBINT Hybrid
RI-J (if used) integral strategy            ... SPLIT-RIJ (Revised 2003 algorithm where possible)
Printlevel                                  ...      1
Contraction scheme used                     ... SEGMENTED contraction
Prescreening option                         ... SCHWARTZ
   Thresh                                   ... 1.000e-09
   Tcut                                     ... 1.000e-10
   Tpresel                                  ... 1.000e-10 
Coulomb Range Separation                    ... NOT USED
Exchange Range Separation                   ... NOT USED
Multipole approximations                    ... NOT USED
Finite Nucleus Model                        ... NOT USED
CABS basis                                  ... NOT available
Auxiliary Coulomb fitting basis             ... AVAILABLE
   # of basis functions in Aux-J            ...   1146
   # of shells in Aux-J                     ...    386
   Maximum angular momentum in Aux-J        ...      4
Auxiliary J/K fitting basis                 ... NOT available
Auxiliary Correlation fitting basis         ... NOT available
Auxiliary 'external' fitting basis          ... NOT available

Checking pre-screening integrals            ... done (  0.0 sec) Dimension = 158
Check shell pair data                       ... done (  0.0 sec)
Shell pair information
Shell pair cut-off parameter TPreSel        ...   1.0e-10
Total number of shell pairs                 ...     12561
Shell pairs after pre-screening             ...      9016
Total number of primitive shell pairs       ...     52337
Primitive shell pairs kept                  ...     22272
          la=0 lb=0:   3390 shell pairs
          la=1 lb=0:   3027 shell pairs
          la=1 lb=1:    709 shell pairs
          la=2 lb=0:   1206 shell pairs
          la=2 lb=1:    568 shell pairs
          la=2 lb=2:    116 shell pairs

Calculating one electron integrals          ... done (  0.1 sec)
Calculating RI/J V-Matrix + Cholesky decomp.... done (  0.1 sec)
Calculating Nuclear repulsion               ... done (  0.0 sec) ENN=   2143.522483599204 Eh

Diagonalization of the overlap matrix:
Smallest eigenvalue                        ... 1.126e-03
Time for diagonalization                   ...    0.010 sec
Threshold for overlap eigenvalues          ... 1.000e-07
Number of eigenvalues below threshold      ... 0
Time for construction of square roots      ...    0.007 sec
Total time needed                          ...    0.018 sec

-------------------
DFT GRID GENERATION
-------------------

General Integration Accuracy     IntAcc      ... 4.159
Radial Grid Type                 RadialGrid  ... OptM3 with GC (2021)
Angular Grid (max. ang.)         AngularGrid ... 3 (Lebedev-194)
Angular grid pruning method      GridPruning ... 4 (adaptive)
Weight generation scheme         WeightScheme... mBecke (2022)
Basis function cutoff            BFCut       ... 1.0000e-10
Integration weight cutoff        WCut        ... 1.0000e-14
Partially contracted basis set               ... off
Rotationally invariant grid construction     ... off
Angular grids for H and He will be reduced by one unit

Total number of grid points                  ...    90829
Total number of batches                      ...     1439
Average number of points per batch           ...       63
Average number of grid points per atom       ...     2390
Initializing property integral containers    ... done (  0.0 sec)

SHARK setup successfully completed in   1.3 seconds

Maximum memory used throughout the entire STARTUP-calculation: 49.2 MB
-------------------------------------------------------------------------------
                                 ORCA GUESS
                   Start orbitals & Density for SCF / CASSCF
-------------------------------------------------------------------------------

------------
SCF SETTINGS
------------
Hamiltonian:
 Density Functional     Method          .... DFT(GTOs)
 Exchange Functional    Exchange        .... PBE
   PBE kappa parameter   XKappa         ....  0.804000
   PBE mue parameter    XMuePBE         ....  0.219520
 Correlation Functional Correlation     .... PBE
   PBE beta parameter  CBetaPBE         ....  0.066725
 LDA part of GGA corr.  LDAOpt          .... PW91-LDA
 Gradients option       PostSCFGGA      .... off
   NL short-range parameter             ....  6.400000
 RI-approximation to the Coulomb term is turned on
   Number of AuxJ basis functions       .... 1146


General Settings:
 Integral files         IntName         .... sp
 Hartree-Fock type      HFTyp           .... RHF
 Total Charge           Charge          ....    0
 Multiplicity           Mult            ....    1
 Number of Electrons    NEL             ....  174
 Basis Dimension        Dim             ....  316
 Nuclear Repulsion      ENuc            ....   2143.5224835992 Eh

Convergence Acceleration:
 AO-DIIS                CNVDIIS         .... on
   Start iteration      DIISMaxIt       ....    12
   Startup error        DIISStart       ....  0.200000
   # of expansion vecs  DIISMaxEq       ....     5
   Bias factor          DIISBfac        ....   1.050
   Max. coefficient     DIISMaxC        ....  10.000
 MO-DIIS                CNVKDIIS        .... off
 Trust-Rad. Augm. Hess. CNVTRAH         .... auto
   Auto Start mean grad. ratio tolernc. ....  1.125000
   Auto Start start iteration           ....     1
   Auto Start num. interpolation iter.  ....    10
   Max. Number of Micro iterations      ....    24
   Max. Number of Macro iterations      .... Maxiter - #DIIS iter
   Number of Davidson start vectors     ....     2
   Converg. threshold    (grad. norm)   ....   1.000e-04
   Grad. Scal. Fac. for Micro threshold ....   0.100
   Minimum threshold for Micro iter.    ....   1.000e-02
   NR start threshold (gradient norm)   ....   1.000e-04
   Initial trust radius                 ....   0.400
   Minimum AH scaling param. (alpha)    ....   1.000
   Maximum AH scaling param. (alpha)    .... 1000.000
   Quad. conv. algorithm                .... NR
   White noise on init. David. guess    .... on
   Maximum white noise                  ....   0.010
   Pseudo random numbers                .... off
   Inactive MOs                         .... canonical
   Orbital update algorithm             .... Taylor
   Preconditioner                       .... Diag
   Full preconditioner red. dimension   ....   250
 SOSCF                  CNVSOSCF        .... on
   Start iteration      SOSCFMaxIt      ....   150
   Startup grad/error   SOSCFStart      ....  0.003300
   Hessian update       SOSCFHessUp     .... L-BFGS
 Level Shifting         CNVShift        .... on
   Level shift para.    LevelShift      ....    0.2500
   Turn off err/grad.   ShiftErr        ....    0.0010
 Zerner damping         CNVZerner       .... off
 Static damping         CNVDamp         .... on
   Fraction old density DampFac         ....    0.7000
   Max. Damping (<1)    DampMax         ....    0.9800
   Min. Damping (>=0)   DampMin         ....    0.0000
   Turn off err/grad.   DampErr         ....    0.1000

SCF Procedure:
 Maximum # iterations   MaxIter         ....   125
 SCF integral mode      SCFMode         .... Direct
   Integral package                     .... SHARK and LIBINT hybrid scheme
 Reset frequency        DirectResetFreq ....    20
 Integral Threshold     Thresh          ....  1.000e-09 Eh
 Primitive CutOff       TCut            ....  1.000e-10 Eh

Convergence Tolerance:
 Convergence Check Mode ConvCheckMode   .... Total+1el-Energy
 Convergence forced     ConvForced      .... 0
 Energy Change          TolE            ....  1.000e-05 Eh
 1-El. energy change                    ....  1.000e-02 Eh
 Orbital Gradient       TolG            ....  1.000e-04
 Orbital Rotation angle TolX            ....  1.000e-04
 DIIS Error             TolErr          ....  5.000e-04

---------------------
INITIAL GUESS: MOREAD
---------------------
Guess MOs are being read from file: sp.ges
Input Geometry matches current geometry (good)
Input basis set matches current basis set (good)
Occupation numbers will be reassigned to an Aufbau configuration
MOs were renormalized
MOs were reorthogonalized (Cholesky)
                      ------------------
                      INITIAL GUESS DONE (   0.0 sec)
                      ------------------
             **** ENERGY FILE WAS UPDATED (sp.en.tmp) ****
Finished Guess after   0.1 sec
Maximum memory used throughout the entire GUESS-calculation: 24.6 MB

-------------------------------------------------------------------------------------------
                                      ORCA LEAN-SCF
                              memory conserving SCF solver
-------------------------------------------------------------------------------------------

----------------------------------------D-I-I-S--------------------------------------------
Iteration    Energy (Eh)           Delta-E    RMSDP     MaxDP     DIISErr   Damp  Time(sec)
-------------------------------------------------------------------------------------------
               ***  Starting incremental Fock matrix formation  ***
                              *** Initializing SOSCF ***
---------------------------------------S-O-S-C-F--------------------------------------
Iteration    Energy (Eh)           Delta-E    RMSDP     MaxDP     MaxGrad    Time(sec)
--------------------------------------------------------------------------------------
    1    -1979.1464911842717811     0.00e+00  1.15e-05  5.55e-04  6.20e-05     1.8
               *** Restarting incremental Fock matrix formation ***
    2    -1979.1464910086647251     1.76e-07  2.25e-05  1.41e-03  1.62e-04     2.3
    3    -1979.1464860620048967     4.95e-06  1.72e-05  1.09e-03  5.79e-04     1.2
                 **** Energy Check signals convergence ****

               *****************************************************
               *                     SUCCESS                       *
               *           SCF CONVERGED AFTER   3 CYCLES          *
               *****************************************************

             **** ENERGY FILE WAS UPDATED (sp.en.tmp) ****

----------------
TOTAL SCF ENERGY
----------------

Total Energy       :      -1979.14648606200490 Eh          -53855.31384 eV

Components:
Nuclear Repulsion  :       2143.52248359920441 Eh           58328.21213 eV
Electronic Energy  :      -4122.66896966120839 Eh         -112183.52596 eV
One Electron Energy:      -6991.25791147321706 Eh         -190241.79948 eV
Two Electron Energy:       2868.58894181200822 Eh           78058.27351 eV

Virial components:
Potential Energy   :      -3949.32696542424492 Eh         -107466.65023 eV
Kinetic Energy     :       1970.18047936224025 Eh           53611.33639 eV
Virial Ratio       :          2.00455085551485

DFT components:
N(Alpha)           :       87.000333370638 electrons
N(Beta)            :       87.000333370638 electrons
N(Total)           :      174.000666741275 electrons
E(X)               :     -180.014034575725 Eh       
E(C)               :       -6.123560919452 Eh       
E(XC)              :     -186.137595495177 Eh       

---------------
SCF CONVERGENCE
---------------

  Last Energy change         ...   -4.9467e-06  Tolerance :   1.0000e-05
  Last MAX-Density change    ...    1.0889e-03  Tolerance :   1.0000e-03
  Last RMS-Density change    ...    1.7166e-05  Tolerance :   1.0000e-04
  Last DIIS Error            ...    3.4737e-04  Tolerance :   5.0000e-04
  Last Orbital Gradient      ...    5.7904e-04  Tolerance :   1.0000e-04
  Last Orbital Rotation      ...    5.9699e-04  Tolerance :   1.0000e-04


----------------
ORBITAL ENERGIES
----------------

  NO   OCC          E(Eh)            E(eV) 
   0   2.0000     -88.039619     -2395.6798 
   1   2.0000     -87.973497     -2393.8806 
   2   2.0000     -76.419874     -2079.4905 
   3   2.0000     -18.815236      -511.9886 
   4   2.0000     -18.796193      -511.4704 
   5   2.0000     -18.792167      -511.3609 
   6   2.0000     -18.789207      -511.2803 
   7   2.0000     -18.752684      -510.2865 
   8   2.0000     -18.717984      -509.3422 
   9   2.0000     -10.023749      -272.7601 
  10   2.0000     -10.002134      -272.1719 
  11   2.0000      -9.957674      -270.9621 
  12   2.0000      -9.946585      -270.6603 
  13   2.0000      -9.944493      -270.6034 
  14   2.0000      -9.942653      -270.5533 
  15   2.0000      -9.939427      -270.4656 
  16   2.0000      -9.918704      -269.9017 
  17   2.0000      -9.895923      -269.2818 
  18   2.0000      -9.881444      -268.8878 
  19   2.0000      -7.684335      -209.1014 
  20   2.0000      -7.618908      -207.3210 
  21   2.0000      -6.417137      -174.6192 
  22   2.0000      -5.711831      -155.4268 
  23   2.0000      -5.709022      -155.3504 
  24   2.0000      -5.701580      -155.1479 
  25   2.0000      -5.648074      -153.6919 
  26   2.0000      -5.639199      -153.4504 
  27   2.0000      -5.639097      -153.4476 
  28   2.0000      -4.640058      -126.2624 
  29   2.0000      -4.639016      -126.2341 
  30   2.0000      -4.637198      -126.1846 
  31   2.0000      -1.023943       -27.8629 
  32   2.0000      -1.002515       -27.2798 
  33   2.0000      -0.984619       -26.7929 
  34   2.0000      -0.940315       -25.5873 
  35   2.0000      -0.929693       -25.2982 
  36   2.0000      -0.901203       -24.5230 
  37   2.0000      -0.765952       -20.8426 
  38   2.0000      -0.720745       -19.6125 
  39   2.0000      -0.700306       -19.0563 
  40   2.0000      -0.690702       -18.7950 
  41   2.0000      -0.662757       -18.0345 
  42   2.0000      -0.636636       -17.3238 
  43   2.0000      -0.620112       -16.8741 
  44   2.0000      -0.610371       -16.6090 
  45   2.0000      -0.598025       -16.2731 
  46   2.0000      -0.562173       -15.2975 
  47   2.0000      -0.513066       -13.9612 
  48   2.0000      -0.509056       -13.8521 
  49   2.0000      -0.495726       -13.4894 
  50   2.0000      -0.478825       -13.0295 
  51   2.0000      -0.473778       -12.8922 
  52   2.0000      -0.463162       -12.6033 
  53   2.0000      -0.442973       -12.0539 
  54   2.0000      -0.439284       -11.9535 
  55   2.0000      -0.429939       -11.6992 
  56   2.0000      -0.429233       -11.6800 
  57   2.0000      -0.419423       -11.4131 
  58   2.0000      -0.413591       -11.2544 
  59   2.0000      -0.410897       -11.1811 
  60   2.0000      -0.402883       -10.9630 
  61   2.0000      -0.398956       -10.8561 
  62   2.0000      -0.391437       -10.6515 
  63   2.0000      -0.383011       -10.4223 
  64   2.0000      -0.375084       -10.2066 
  65   2.0000      -0.367795       -10.0082 
  66   2.0000      -0.360702        -9.8152 
  67   2.0000      -0.358652        -9.7594 
  68   2.0000      -0.345038        -9.3890 
  69   2.0000      -0.339167        -9.2292 
  70   2.0000      -0.333458        -9.0739 
  71   2.0000      -0.329270        -8.9599 
  72   2.0000      -0.320178        -8.7125 
  73   2.0000      -0.314932        -8.5697 
  74   2.0000      -0.305474        -8.3124 
  75   2.0000      -0.300513        -8.1774 
  76   2.0000      -0.295773        -8.0484 
  77   2.0000      -0.286556        -7.7976 
  78   2.0000      -0.272481        -7.4146 
  79   2.0000      -0.269572        -7.3354 
  80   2.0000      -0.259391        -7.0584 
  81   2.0000      -0.247905        -6.7458 
  82   2.0000      -0.236960        -6.4480 
  83   2.0000      -0.230230        -6.2649 
  84   2.0000      -0.211521        -5.7558 
  85   2.0000      -0.190529        -5.1845 
  86   2.0000      -0.184041        -5.0080 
  87   0.0000      -0.042060        -1.1445 
  88   0.0000      -0.033303        -0.9062 
  89   0.0000      -0.011268        -0.3066 
  90   0.0000       0.012500         0.3401 
  91   0.0000       0.026615         0.7242 
  92   0.0000       0.031584         0.8594 
  93   0.0000       0.041781         1.1369 
  94   0.0000       0.046244         1.2584 
  95   0.0000       0.055170         1.5013 
  96   0.0000       0.057925         1.5762 
  97   0.0000       0.062142         1.6910 
*Only the first 10 virtual orbitals were printed.

                    ********************************
                    * MULLIKEN POPULATION ANALYSIS *
                    ********************************

-----------------------
MULLIKEN ATOMIC CHARGES
-----------------------
   0 C :   -0.313286
   1 C :   -0.014962
   2 O :   -0.224445
   3 C :    0.127287
   4 O :   -0.194919
   5 C :   -0.056852
   6 C :   -0.292234
   7 H :    0.146822
   8 C :    0.170900
   9 O :   -0.169463
  10 O :   -0.246992
  11 C :   -0.023878
  12 C :   -0.306698
  13 S :   -0.115550
  14 P :    0.603737
  15 S :   -0.282352
  16 O :   -0.392290
  17 C :   -0.100711
  18 O :   -0.356741
  19 C :   -0.107600
  20 H :    0.132542
  21 H :    0.116503
  22 H :    0.117862
  23 H :    0.108021
  24 H :    0.116636
  25 H :    0.127136
  26 H :    0.123549
  27 H :    0.119084
  28 H :    0.094179
  29 H :    0.107515
  30 H :    0.144298
  31 H :    0.107912
  32 H :    0.125489
  33 H :    0.115700
  34 H :    0.120113
  35 H :    0.130324
  36 H :    0.117425
  37 H :    0.125939
Sum of atomic charges:   -0.0000000

--------------------------------
MULLIKEN REDUCED ORBITAL CHARGES
--------------------------------
  0 C s       :     3.104815  s :     3.104815
      pz      :     1.041702  p :     3.180610
      px      :     1.046115
      py      :     1.092794
      dz2     :     0.003408  d :     0.027860
      dxz     :     0.005149
      dyz     :     0.009884
      dx2y2   :     0.006813
      dxy     :     0.002606

  1 C s       :     3.078839  s :     3.078839
      pz      :     1.074213  p :     2.877706
      px      :     0.752029
      py      :     1.051464
      dz2     :     0.007452  d :     0.058417
      dxz     :     0.012558
      dyz     :     0.012217
      dx2y2   :     0.015725
      dxy     :     0.010465

  2 O s       :     3.727231  s :     3.727231
      pz      :     1.657940  p :     4.480740
      px      :     1.244369
      py      :     1.578431
      dz2     :     0.002078  d :     0.016474
      dxz     :     0.002315
      dyz     :     0.002798
      dx2y2   :     0.003521
      dxy     :     0.005762

  3 C s       :     3.046967  s :     3.046967
      pz      :     0.860607  p :     2.692469
      px      :     0.951696
      py      :     0.880166
      dz2     :     0.008973  d :     0.133277
      dxz     :     0.009460
      dyz     :     0.030820
      dx2y2   :     0.031808
      dxy     :     0.052217

  4 O s       :     3.767790  s :     3.767790
      pz      :     1.422702  p :     4.409558
      px      :     1.686183
      py      :     1.300673
      dz2     :     0.001949  d :     0.017571
      dxz     :     0.000247
      dyz     :     0.005268
      dx2y2   :     0.005771
      dxy     :     0.004336

  5 C s       :     2.944313  s :     2.944313
      pz      :     1.073317  p :     3.079863
      px      :     0.944899
      py      :     1.061647
      dz2     :     0.006521  d :     0.032676
      dxz     :     0.004208
      dyz     :     0.008018
      dx2y2   :     0.007150
      dxy     :     0.006779

  6 C s       :     3.207524  s :     3.207524
      pz      :     1.097200  p :     3.042713
      px      :     0.939681
      py      :     1.005833
      dz2     :     0.009123  d :     0.041997
      dxz     :     0.007785
      dyz     :     0.007922
      dx2y2   :     0.008082
      dxy     :     0.009087

  7 H s       :     0.853178  s :     0.853178

  8 C s       :     3.018596  s :     3.018596
      pz      :     0.884392  p :     2.677114
      px      :     0.861248
      py      :     0.931473
      dz2     :     0.033257  d :     0.133391
      dxz     :     0.018592
      dyz     :     0.037996
      dx2y2   :     0.020545
      dxy     :     0.023000

  9 O s       :     3.749130  s :     3.749130
      pz      :     1.623776  p :     4.402272
      px      :     1.418313
      py      :     1.360183
      dz2     :     0.002284  d :     0.018062
      dxz     :     0.000891
      dyz     :     0.005107
      dx2y2   :     0.004861
      dxy     :     0.004919

 10 O s       :     3.729494  s :     3.729494
      pz      :     1.295219  p :     4.501244
      px      :     1.638785
      py      :     1.567240
      dz2     :     0.004311  d :     0.016254
      dxz     :     0.002864
      dyz     :     0.004385
      dx2y2   :     0.002549
      dxy     :     0.002144

 11 C s       :     3.081319  s :     3.081319
      pz      :     0.942850  p :     2.883765
      px      :     1.037681
      py      :     0.903234
      dz2     :     0.012056  d :     0.058794
      dxz     :     0.009168
      dyz     :     0.013263
      dx2y2   :     0.010524
      dxy     :     0.013783

 12 C s       :     3.104019  s :     3.104019
      pz      :     1.100529  p :     3.174815
      px      :     1.015927
      py      :     1.058359
      dz2     :     0.006195  d :     0.027864
      dxz     :     0.004475
      dyz     :     0.005240
      dx2y2   :     0.005549
      dxy     :     0.006406

 13 S s       :     5.885512  s :     5.885512
      pz      :     3.678378  p :    10.156832
      px      :     3.088207
      py      :     3.390247
      dz2     :     0.009885  d :     0.073206
      dxz     :     0.014452
      dyz     :     0.008437
      dx2y2   :     0.015206
      dxy     :     0.025227

 14 P s       :     5.210429  s :     5.210429
      pz      :     2.907442  p :     8.597581
      px      :     2.832203
      py      :     2.857936
      dz2     :     0.123327  d :     0.588253
      dxz     :     0.113979
      dyz     :     0.133056
      dx2y2   :     0.100430
      dxy     :     0.117461

 15 S s       :     5.914332  s :     5.914332
      pz      :     3.102538  p :    10.325246
      px      :     3.662935
      py      :     3.559774
      dz2     :     0.017843  d :     0.042774
      dxz     :     0.007847
      dyz     :     0.012783
      dx2y2   :     0.002148
      dxy     :     0.002153

 16 O s       :     3.762117  s :     3.762117
      pz      :     1.637972  p :     4.617010
      px      :     1.382341
      py      :     1.596697
      dz2     :     0.002292  d :     0.013164
      dxz     :     0.002983
      dyz     :     0.002718
      dx2y2   :     0.003114
      dxy     :     0.002057

 17 C s       :     3.122500  s :     3.122500
      pz      :     0.999078  p :     2.926233
      px      :     0.991885
      py      :     0.935269
      dz2     :     0.013120  d :     0.051978
      dxz     :     0.007754
      dyz     :     0.009116
      dx2y2   :     0.013038
      dxy     :     0.008949

 18 O s       :     3.764328  s :     3.764328
      pz      :     1.212550  p :     4.578743
      px      :     1.759001
      py      :     1.607191
      dz2     :     0.002669  d :     0.013670
      dxz     :     0.002216
      dyz     :     0.004756
      dx2y2   :     0.002081
      dxy     :     0.001948

 19 C s       :     3.131351  s :     3.131351
      pz      :     0.738488  p :     2.924951
      px      :     1.099853
      py      :     1.086611
      dz2     :     0.016243  d :     0.051297
      dxz     :     0.010506
      dyz     :     0.012467
      dx2y2   :     0.007272
      dxy     :     0.004809

 20 H s       :     0.867458  s :     0.867458

 21 H s       :     0.883497  s :     0.883497

 22 H s       :     0.882138  s :     0.882138

 23 H s       :     0.891979  s :     0.891979

 24 H s       :     0.883364  s :     0.883364

 25 H s       :     0.872864  s :     0.872864

 26 H s       :     0.876451  s :     0.876451

 27 H s       :     0.880916  s :     0.880916

 28 H s       :     0.905821  s :     0.905821

 29 H s       :     0.892485  s :     0.892485

 30 H s       :     0.855702  s :     0.855702

 31 H s       :     0.892088  s :     0.892088

 32 H s       :     0.874511  s :     0.874511

 33 H s       :     0.884300  s :     0.884300

 34 H s       :     0.879887  s :     0.879887

 35 H s       :     0.869676  s :     0.869676

 36 H s       :     0.882575  s :     0.882575

 37 H s       :     0.874061  s :     0.874061


------------------------
MULLIKEN OVERLAP CHARGES
------------------------
B(  0-C ,  1-C ) :   0.9421 B(  0-C ,  2-O ) :  -0.0811 B(  0-C , 20-H ) :   0.7472 
B(  0-C , 21-H ) :   0.7409 B(  0-C , 22-H ) :   0.7136 B(  0-C , 23-H ) :  -0.0532 
B(  0-C , 24-H ) :  -0.0574 B(  1-C ,  2-O ) :   0.5207 B(  1-C ,  3-C ) :  -0.0631 
B(  1-C , 23-H ) :   0.7392 B(  1-C , 24-H ) :   0.7175 B(  2-O ,  3-C ) :   0.8024 
B(  2-O ,  4-O ) :  -0.1511 B(  2-O ,  5-C ) :  -0.2615 B(  2-O , 23-H ) :  -0.0528 
B(  2-O , 24-H ) :  -0.0602 B(  3-C ,  4-O ) :   1.3131 B(  3-C ,  5-C ) :   0.4297 
B(  4-O ,  5-C ) :  -0.2707 B(  4-O ,  8-C ) :   0.0880 B(  5-C ,  6-C ) :   0.2456 
B(  5-C ,  8-C ) :  -0.0604 B(  5-C , 13-S ) :  -0.1131 B(  5-C , 25-H ) :   0.5674 
B(  5-C , 26-H ) :   0.5951 B(  6-C ,  7-H ) :   0.6224 B(  6-C ,  8-C ) :   0.1848 
B(  6-C ,  9-O ) :  -0.1776 B(  6-C , 10-O ) :  -0.3132 B(  6-C , 13-S ) :   0.4396 
B(  7-H , 13-S ) :  -0.0560 B(  7-H , 15-S ) :   0.0652 B(  8-C ,  9-O ) :   1.3451 
B(  8-C , 10-O ) :   0.6764 B(  8-C , 11-C ) :  -0.0609 B(  8-C , 13-S ) :  -0.1065 
B(  9-O , 10-O ) :  -0.1598 B(  9-O , 27-H ) :   0.0731 B( 10-O , 11-C ) :   0.5355 
B( 10-O , 12-C ) :  -0.0808 B( 10-O , 27-H ) :  -0.0691 B( 10-O , 28-H ) :  -0.0603 
B( 11-C , 12-C ) :   0.9282 B( 11-C , 27-H ) :   0.7008 B( 11-C , 28-H ) :   0.7279 
B( 12-C , 27-H ) :  -0.0550 B( 12-C , 28-H ) :  -0.0608 B( 12-C , 29-H ) :   0.7367 
B( 12-C , 30-H ) :   0.7465 B( 12-C , 31-H ) :   0.7070 B( 13-S , 14-P ) :   0.5360 
B( 13-S , 15-S ) :  -0.0859 B( 13-S , 16-O ) :  -0.0722 B( 13-S , 18-O ) :  -0.0626 
B( 13-S , 36-H ) :   0.0549 B( 14-P , 15-S ) :   0.9635 B( 14-P , 16-O ) :   0.6059 
B( 14-P , 17-C ) :  -0.0892 B( 14-P , 18-O ) :   0.5908 B( 14-P , 19-C ) :  -0.0561 
B( 15-S , 16-O ) :  -0.0652 B( 15-S , 18-O ) :  -0.0554 B( 15-S , 34-H ) :   0.0712 
B( 16-O , 17-C ) :   0.5808 B( 16-O , 18-O ) :  -0.0615 B( 16-O , 32-H ) :  -0.0545 
B( 16-O , 33-H ) :  -0.0640 B( 16-O , 34-H ) :  -0.0711 B( 17-C , 32-H ) :   0.7580 
B( 17-C , 33-H ) :   0.7583 B( 17-C , 34-H ) :   0.7168 B( 18-O , 19-C ) :   0.5463 
B( 18-O , 35-H ) :  -0.0548 B( 18-O , 36-H ) :  -0.0635 B( 18-O , 37-H ) :  -0.0554 
B( 19-C , 35-H ) :   0.7603 B( 19-C , 36-H ) :   0.7284 B( 19-C , 37-H ) :   0.7613 
B( 20-H , 21-H ) :  -0.0521 B( 23-H , 24-H ) :  -0.0612 B( 27-H , 28-H ) :  -0.0621 
B( 29-H , 30-H ) :  -0.0563 B( 32-H , 33-H ) :  -0.0523 B( 33-H , 34-H ) :  -0.0565 
B( 35-H , 37-H ) :  -0.0514 B( 36-H , 37-H ) :  -0.0599 


                     *******************************
                     * LOEWDIN POPULATION ANALYSIS *
                     *******************************

----------------------
LOEWDIN ATOMIC CHARGES
----------------------
   0 C :   -0.356555
   1 C :   -0.108880
   2 O :   -0.053416
   3 C :    0.045643
   4 O :   -0.145547
   5 C :   -0.254188
   6 C :   -0.258860
   7 H :    0.139278
   8 C :   -0.010443
   9 O :   -0.146668
  10 O :   -0.065834
  11 C :   -0.111582
  12 C :   -0.357312
  13 S :    0.086256
  14 P :    0.570908
  15 S :   -0.290208
  16 O :   -0.260021
  17 C :   -0.214990
  18 O :   -0.233958
  19 C :   -0.211650
  20 H :    0.130885
  21 H :    0.126130
  22 H :    0.133411
  23 H :    0.120519
  24 H :    0.123385
  25 H :    0.148354
  26 H :    0.143761
  27 H :    0.122951
  28 H :    0.111852
  29 H :    0.119280
  30 H :    0.136035
  31 H :    0.127949
  32 H :    0.122550
  33 H :    0.110097
  34 H :    0.112714
  35 H :    0.123997
  36 H :    0.107264
  37 H :    0.116894

-------------------------------
LOEWDIN REDUCED ORBITAL CHARGES
-------------------------------
  0 C s       :     2.951350  s :     2.951350
      pz      :     1.095197  p :     3.336591
      px      :     1.105770
      py      :     1.135624
      dz2     :     0.008780  d :     0.068613
      dxz     :     0.014383
      dyz     :     0.022872
      dx2y2   :     0.016783
      dxy     :     0.005795

  1 C s       :     2.926121  s :     2.926121
      pz      :     1.098362  p :     3.052863
      px      :     0.835698
      py      :     1.118803
      dz2     :     0.015483  d :     0.129896
      dxz     :     0.030962
      dyz     :     0.027918
      dx2y2   :     0.033885
      dxy     :     0.021649

  2 O s       :     3.443548  s :     3.443548
      pz      :     1.644916  p :     4.576547
      px      :     1.302944
      py      :     1.628686
      dz2     :     0.004113  d :     0.033321
      dxz     :     0.004914
      dyz     :     0.003880
      dx2y2   :     0.007705
      dxy     :     0.012709

  3 C s       :     2.839735  s :     2.839735
      pz      :     0.844607  p :     2.813183
      px      :     0.964603
      py      :     1.003973
      dz2     :     0.020689  d :     0.301439
      dxz     :     0.017816
      dyz     :     0.061498
      dx2y2   :     0.078937
      dxy     :     0.122497

  4 O s       :     3.549097  s :     3.549097
      pz      :     1.422141  p :     4.565229
      px      :     1.691304
      py      :     1.451784
      dz2     :     0.004403  d :     0.031221
      dxz     :     0.000306
      dyz     :     0.006797
      dx2y2   :     0.012451
      dxy     :     0.007263

  5 C s       :     2.915951  s :     2.915951
      pz      :     1.122607  p :     3.252944
      px      :     1.045784
      py      :     1.084554
      dz2     :     0.016647  d :     0.085293
      dxz     :     0.009521
      dyz     :     0.019157
      dx2y2   :     0.017565
      dxy     :     0.022403

  6 C s       :     2.952586  s :     2.952586
      pz      :     1.121175  p :     3.205251
      px      :     1.013650
      py      :     1.070427
      dz2     :     0.021784  d :     0.101022
      dxz     :     0.016255
      dyz     :     0.019233
      dx2y2   :     0.019031
      dxy     :     0.024721

  7 H s       :     0.860722  s :     0.860722

  8 C s       :     2.852167  s :     2.852167
      pz      :     0.928587  p :     2.851253
      px      :     0.871339
      py      :     1.051327
      dz2     :     0.076718  d :     0.307023
      dxz     :     0.041081
      dyz     :     0.091967
      dx2y2   :     0.048881
      dxy     :     0.048377

  9 O s       :     3.550696  s :     3.550696
      pz      :     1.643167  p :     4.564051
      px      :     1.430196
      py      :     1.490689
      dz2     :     0.003974  d :     0.031921
      dxz     :     0.001353
      dyz     :     0.009293
      dx2y2   :     0.010247
      dxy     :     0.007054

 10 O s       :     3.438760  s :     3.438760
      pz      :     1.365382  p :     4.593686
      px      :     1.629746
      py      :     1.598558
      dz2     :     0.009922  d :     0.033388
      dxz     :     0.006718
      dyz     :     0.009367
      dx2y2   :     0.003878
      dxy     :     0.003503

 11 C s       :     2.925779  s :     2.925779
      pz      :     1.002109  p :     3.055023
      px      :     1.079545
      py      :     0.973369
      dz2     :     0.028330  d :     0.130781
      dxz     :     0.017627
      dyz     :     0.028844
      dx2y2   :     0.026843
      dxy     :     0.029137

 12 C s       :     2.951918  s :     2.951918
      pz      :     1.143125  p :     3.336629
      px      :     1.071972
      py      :     1.121533
      dz2     :     0.015822  d :     0.068765
      dxz     :     0.009585
      dyz     :     0.012623
      dx2y2   :     0.015638
      dxy     :     0.015098

 13 S s       :     5.637154  s :     5.637154
      pz      :     3.681115  p :    10.183198
      px      :     3.104538
      py      :     3.397545
      dz2     :     0.012062  d :     0.093392
      dxz     :     0.019015
      dyz     :     0.009861
      dx2y2   :     0.019385
      dxy     :     0.033068

 14 P s       :     5.061358  s :     5.061358
      pz      :     2.888790  p :     8.550413
      px      :     2.803505
      py      :     2.858118
      dz2     :     0.167954  d :     0.817321
      dxz     :     0.148572
      dyz     :     0.194689
      dx2y2   :     0.139590
      dxy     :     0.166515

 15 S s       :     5.764659  s :     5.764659
      pz      :     3.204867  p :    10.467317
      px      :     3.666320
      py      :     3.596131
      dz2     :     0.025557  d :     0.058232
      dxz     :     0.008785
      dyz     :     0.019059
      dx2y2   :     0.002589
      dxy     :     0.002244

 16 O s       :     3.501532  s :     3.501532
      pz      :     1.665124  p :     4.734461
      px      :     1.453093
      py      :     1.616245
      dz2     :     0.003624  d :     0.024028
      dxz     :     0.005606
      dyz     :     0.004520
      dx2y2   :     0.006145
      dxy     :     0.004133

 17 C s       :     2.972228  s :     2.972228
      pz      :     1.062946  p :     3.127971
      px      :     1.054675
      py      :     1.010350
      dz2     :     0.030492  d :     0.114792
      dxz     :     0.016292
      dyz     :     0.019115
      dx2y2   :     0.030088
      dxy     :     0.018804

 18 O s       :     3.505691  s :     3.505691
      pz      :     1.297581  p :     4.703891
      px      :     1.753936
      py      :     1.652375
      dz2     :     0.005838  d :     0.024376
      dxz     :     0.004111
      dyz     :     0.009696
      dx2y2   :     0.002627
      dxy     :     0.002104

 19 C s       :     2.974574  s :     2.974574
      pz      :     0.827250  p :     3.124965
      px      :     1.152452
      py      :     1.145262
      dz2     :     0.034715  d :     0.112110
      dxz     :     0.021570
      dyz     :     0.026782
      dx2y2   :     0.017795
      dxy     :     0.011248

 20 H s       :     0.869115  s :     0.869115

 21 H s       :     0.873870  s :     0.873870

 22 H s       :     0.866589  s :     0.866589

 23 H s       :     0.879481  s :     0.879481

 24 H s       :     0.876615  s :     0.876615

 25 H s       :     0.851646  s :     0.851646

 26 H s       :     0.856239  s :     0.856239

 27 H s       :     0.877049  s :     0.877049

 28 H s       :     0.888148  s :     0.888148

 29 H s       :     0.880720  s :     0.880720

 30 H s       :     0.863965  s :     0.863965

 31 H s       :     0.872051  s :     0.872051

 32 H s       :     0.877450  s :     0.877450

 33 H s       :     0.889903  s :     0.889903

 34 H s       :     0.887286  s :     0.887286

 35 H s       :     0.876003  s :     0.876003

 36 H s       :     0.892736  s :     0.892736

 37 H s       :     0.883106  s :     0.883106


---------------------------------
LOEWDIN BOND ORDERS (THRESH 0.050000)
---------------------------------
B(  0-C ,  1-C ) :   1.1515 B(  0-C ,  2-O ) :   0.0527 B(  0-C , 20-H ) :   0.9341 
B(  0-C , 21-H ) :   0.9378 B(  0-C , 22-H ) :   0.9287 B(  1-C ,  2-O ) :   1.0604 
B(  1-C ,  3-C ) :   0.0766 B(  1-C , 23-H ) :   0.9201 B(  1-C , 24-H ) :   0.9079 
B(  2-O ,  3-C ) :   1.4416 B(  2-O ,  4-O ) :   0.2033 B(  2-O ,  5-C ) :   0.0734 
B(  3-C ,  4-O ) :   2.1553 B(  3-C ,  5-C ) :   1.0413 B(  3-C ,  6-C ) :   0.0599 
B(  4-O ,  5-C ) :   0.0946 B(  4-O ,  8-C ) :   0.0627 B(  5-C ,  6-C ) :   1.0649 
B(  5-C ,  8-C ) :   0.0557 B(  5-C , 13-S ) :   0.0543 B(  5-C , 25-H ) :   0.8738 
B(  5-C , 26-H ) :   0.8863 B(  6-C ,  7-H ) :   0.8647 B(  6-C ,  8-C ) :   1.0193 
B(  6-C ,  9-O ) :   0.0933 B(  6-C , 10-O ) :   0.0655 B(  6-C , 13-S ) :   1.0957 
B(  8-C ,  9-O ) :   2.1918 B(  8-C , 10-O ) :   1.3963 B(  8-C , 11-C ) :   0.0753 
B(  8-C , 13-S ) :   0.0847 B(  9-O , 10-O ) :   0.1944 B( 10-O , 11-C ) :   1.0636 
B( 10-O , 12-C ) :   0.0543 B( 11-C , 12-C ) :   1.1511 B( 11-C , 27-H ) :   0.9021 
B( 11-C , 28-H ) :   0.9211 B( 12-C , 29-H ) :   0.9392 B( 12-C , 30-H ) :   0.9312 
B( 12-C , 31-H ) :   0.9296 B( 13-S , 14-P ) :   1.0235 B( 13-S , 15-S ) :   0.1300 
B( 13-S , 16-O ) :   0.0601 B( 13-S , 18-O ) :   0.0717 B( 14-P , 15-S ) :   1.7959 
B( 14-P , 16-O ) :   1.2460 B( 14-P , 17-C ) :   0.0667 B( 14-P , 18-O ) :   1.2895 
B( 14-P , 19-C ) :   0.0658 B( 15-S , 16-O ) :   0.0890 B( 15-S , 18-O ) :   0.0708 
B( 16-O , 17-C ) :   1.1268 B( 16-O , 18-O ) :   0.0516 B( 17-C , 32-H ) :   0.9505 
B( 17-C , 33-H ) :   0.9495 B( 17-C , 34-H ) :   0.9376 B( 18-O , 19-C ) :   1.1133 
B( 19-C , 35-H ) :   0.9507 B( 19-C , 36-H ) :   0.9412 B( 19-C , 37-H ) :   0.9490 


------------------------------------------
LOEWDIN REDUCED ORBITAL POPULATIONS PER MO
-------------------------------------------
THRESHOLD FOR PRINTING IS 0.1%%
                      0         1         2         3         4         5   
                 -88.03962 -87.97350 -76.41987 -18.81524 -18.79619 -18.79217
                   2.00000   2.00000   2.00000   2.00000   2.00000   2.00000
                  --------  --------  --------  --------  --------  --------
 2 O  s               0.0       0.0       0.0      99.9       0.0       0.0
10 O  s               0.0       0.0       0.0       0.0      99.9       0.0
13 S  s             100.0       0.0       0.0       0.0       0.0       0.0
14 P  s               0.0       0.0     100.0       0.0       0.0       0.0
15 S  s               0.0     100.0       0.0       0.0       0.0       0.0
16 O  s               0.0       0.0       0.0       0.0       0.0      99.9

                      6         7         8         9        10        11   
                 -18.78921 -18.75268 -18.71798 -10.02375 -10.00213  -9.95767
                   2.00000   2.00000   2.00000   2.00000   2.00000   2.00000
                  --------  --------  --------  --------  --------  --------
 1 C  s               0.0       0.0       0.0       0.0       0.0      99.7
 3 C  s               0.0       0.0       0.0      99.3       0.0       0.0
 4 O  s               0.0      99.9       0.0       0.0       0.0       0.0
 4 O  py              0.0       0.0       0.0       0.3       0.0       0.0
 8 C  s               0.0       0.0       0.0       0.0      99.3       0.0
 9 O  s               0.0       0.0      99.9       0.0       0.0       0.0
 9 O  py              0.0       0.0       0.0       0.0       0.2       0.0
10 O  pz              0.0       0.0       0.0       0.0       0.2       0.0
18 O  s              99.9       0.0       0.0       0.0       0.0       0.0

                     12        13        14        15        16        17   
                  -9.94659  -9.94449  -9.94265  -9.93943  -9.91870  -9.89592
                   2.00000   2.00000   2.00000   2.00000   2.00000   2.00000
                  --------  --------  --------  --------  --------  --------
 0 C  s               0.0       0.0       0.0       0.0       0.0      99.7
 5 C  s               0.0       0.0       0.0       0.0      99.6       0.0
 6 C  s               0.0       0.0       0.0      99.6       0.0       0.0
11 C  s               0.0       0.0      99.7       0.0       0.0       0.0
12 C  px              0.0       0.0       0.1       0.0       0.0       0.0
17 C  s               0.0      99.7       0.0       0.0       0.0       0.0
19 C  s              99.7       0.0       0.0       0.0       0.0       0.0

                     18        19        20        21        22        23   
                  -9.88144  -7.68434  -7.61891  -6.41714  -5.71183  -5.70902
                   2.00000   2.00000   2.00000   2.00000   2.00000   2.00000
                  --------  --------  --------  --------  --------  --------
 6 C  px              0.0       0.1       0.0       0.0       0.0       0.0
11 C  px              0.1       0.0       0.0       0.0       0.0       0.0
12 C  s              99.7       0.0       0.0       0.0       0.0       0.0
13 S  s               0.0      99.8       0.0       0.0       0.0       0.0
13 S  pz              0.0       0.0       0.0       0.0       4.8      19.2
13 S  px              0.0       0.0       0.0       0.0      86.3       3.2
13 S  py              0.0       0.0       0.0       0.0       8.9      77.5
14 P  s               0.0       0.0       0.0      99.3       0.0       0.0
15 S  s               0.0       0.0      99.9       0.0       0.0       0.0
16 O  px              0.0       0.0       0.0       0.2       0.0       0.0
18 O  pz              0.0       0.0       0.0       0.1       0.0       0.0
18 O  py              0.0       0.0       0.0       0.1       0.0       0.0

                     24        25        26        27        28        29   
                  -5.70158  -5.64807  -5.63920  -5.63910  -4.64006  -4.63902
                   2.00000   2.00000   2.00000   2.00000   2.00000   2.00000
                  --------  --------  --------  --------  --------  --------
13 S  pz             76.0       0.0       0.0       0.0       0.0       0.0
13 S  px             10.5       0.0       0.0       0.0       0.0       0.0
13 S  py             13.6       0.0       0.0       0.0       0.0       0.0
14 P  pz              0.0       0.0       0.0       0.0       4.5      17.2
14 P  px              0.0       0.0       0.0       0.0      42.0      54.3
14 P  py              0.0       0.0       0.0       0.0      53.5      28.4
15 S  pz              0.0      83.8       1.5      14.7       0.0       0.0
15 S  px              0.0       0.0      92.3       7.7       0.0       0.0
15 S  py              0.0      16.2       6.2      77.7       0.0       0.0

                     30        31        32        33        34        35   
                  -4.63720  -1.02394  -1.00252  -0.98462  -0.94031  -0.92969
                   2.00000   2.00000   2.00000   2.00000   2.00000   2.00000
                  --------  --------  --------  --------  --------  --------
 0 C  s               0.0       0.2       0.0       0.0       0.0       0.2
 0 C  pz              0.0       0.2       0.0       0.0       0.0       0.1
 0 C  px              0.0       0.3       0.0       0.0       0.0       0.1
 1 C  s               0.0       4.3       0.1       0.0       0.0       2.1
 1 C  pz              0.0       0.4       0.0       0.0       0.0       0.1
 1 C  px              0.0       4.8       0.1       0.0       0.0       1.2
 1 C  py              0.0       0.1       0.0       0.0       0.0       0.3
 1 C  dx2y2           0.0       0.2       0.0       0.0       0.0       0.1
 2 O  s               0.0      40.4       0.8       0.0       0.0      15.2
 2 O  px              0.0       0.1       0.0       0.0       0.0       0.4
 2 O  py              0.0       3.2       0.0       0.0       0.0       0.2
 3 C  s               0.0      19.0       0.1       0.0       0.0       4.8
 3 C  pz              0.0       0.4       0.0       0.0       0.0       0.2
 3 C  px              0.0       4.4       0.2       0.0       0.0       0.7
 3 C  py              0.0       0.2       0.1       0.0       0.0      23.8
 3 C  dz2             0.0       0.5       0.0       0.0       0.0       0.1
 3 C  dx2y2           0.0       0.2       0.0       0.0       0.0       1.0
 3 C  dxy             0.0       0.3       0.0       0.0       0.0       0.8
 4 O  s               0.0      11.3       0.0       0.0       0.0      41.2
 4 O  px              0.0       0.0       0.0       0.0       0.0       0.3
 4 O  py              0.0       2.7       0.0       0.0       0.0       4.1
 4 O  dx2y2           0.0       0.1       0.0       0.0       0.0       0.1
 5 C  s               0.0       1.1       0.1       0.0       0.0       0.3
 5 C  pz              0.0       0.1       0.0       0.0       0.0       0.0
 5 C  px              0.0       1.5       0.1       0.0       0.0       0.1
 5 C  py              0.0       0.2       0.2       0.0       0.0       0.5
 6 C  s               0.0       0.2       1.1       0.0       0.0       0.1
 6 C  pz              0.0       0.0       0.8       0.0       0.0       0.0
 6 C  px              0.0       0.2       0.1       0.0       0.0       0.2
 6 C  py              0.0       0.0       1.0       0.0       0.0       0.0
 7 H  s               0.0       0.0       0.2       0.0       0.0       0.0
 8 C  s               0.0       0.3      17.9       0.1       0.0       0.0
 8 C  pz              0.0       0.0       4.2       0.1       0.0       0.2
 8 C  px              0.0       0.1       0.5       0.1       0.0       0.1
 8 C  py              0.0       0.0       0.4       0.0       0.0       0.0
 8 C  dz2             0.0       0.0       0.3       0.0       0.0       0.0
 8 C  dxz             0.0       0.0       0.4       0.0       0.0       0.0
 8 C  dyz             0.0       0.0       0.3       0.0       0.0       0.0
 8 C  dx2y2           0.0       0.0       0.1       0.0       0.0       0.0
 9 O  s               0.0       0.1       8.8       0.0       0.0       0.0
 9 O  pz              0.0       0.0       0.5       0.0       0.0       0.0
 9 O  px              0.0       0.0       0.1       0.0       0.0       0.0
 9 O  py              0.0       0.0       1.7       0.0       0.0       0.0
10 O  s               0.0       0.4      42.2       0.4       0.1       0.4
10 O  pz              0.0       0.0       1.3       0.0       0.0       0.0
10 O  px              0.0       0.0       0.2       0.0       0.0       0.0
10 O  py              0.0       0.0       1.7       0.0       0.0       0.0
11 C  s               0.0       0.0       4.6       0.0       0.0       0.1
11 C  pz              0.0       0.0       2.5       0.0       0.0       0.0
11 C  px              0.0       0.0       0.5       0.0       0.0       0.0
11 C  py              0.0       0.0       2.5       0.0       0.0       0.0
11 C  dyz             0.0       0.0       0.3       0.0       0.0       0.0
12 C  s               0.0       0.0       0.3       0.0       0.0       0.0
12 C  px              0.0       0.0       0.5       0.0       0.0       0.0
13 S  s               0.0       0.0       0.1       0.3       0.0       0.0
13 S  px              0.0       0.0       0.0       0.1       0.0       0.0
13 S  py              0.0       0.0       0.0       0.2       0.0       0.0
14 P  s               0.0       0.0       0.2      13.7       0.0       0.0
14 P  pz             78.3       0.0       0.0       3.3       1.4       0.0
14 P  px              3.6       0.0       0.0       1.7       5.2       0.0
14 P  py             18.0       0.0       0.0       0.2       4.0       0.0
14 P  dz2             0.0       0.0       0.0       0.0       0.8       0.0
14 P  dxz             0.0       0.0       0.0       0.0       0.4       0.0
14 P  dyz             0.0       0.0       0.0       0.4       1.1       0.0
14 P  dx2y2           0.0       0.0       0.0       0.1       1.0       0.0
14 P  dxy             0.0       0.0       0.0       0.5       0.1       0.0
15 S  s               0.0       0.0       0.0       0.3       0.0       0.0
15 S  pz              0.0       0.0       0.0       0.3       0.0       0.0
16 O  s               0.0       0.0       0.1      29.8      29.8       0.0
16 O  pz              0.0       0.0       0.0       0.7       1.0       0.0
16 O  px              0.0       0.0       0.0       0.9       0.0       0.0
16 O  py              0.0       0.0       0.0       0.0       0.5       0.0
17 C  s               0.0       0.0       0.0       3.4       4.8       0.0
17 C  pz              0.0       0.0       0.0       1.0       1.3       0.0
17 C  px              0.0       0.0       0.0       1.3       1.2       0.0
17 C  py              0.0       0.0       0.0       1.5       1.7       0.0
17 C  dxz             0.0       0.0       0.0       0.1       0.1       0.0
17 C  dyz             0.0       0.0       0.0       0.1       0.2       0.0
17 C  dxy             0.0       0.0       0.0       0.1       0.2       0.0
18 O  s               0.0       0.0       0.3      26.9      31.9       0.0
18 O  pz              0.0       0.0       0.0       0.0       0.2       0.0
18 O  px              0.0       0.0       0.0       0.3       0.1       0.0
18 O  py              0.0       0.0       0.0       1.6       0.8       0.0
19 C  s               0.0       0.0       0.0       3.3       4.4       0.0
19 C  pz              0.0       0.0       0.0       3.7       3.6       0.0
19 C  px              0.0       0.0       0.0       0.0       0.1       0.0
19 C  py              0.0       0.0       0.0       0.1       0.2       0.0
[...]
19 C  dz2             0.0       4.6       2.5       1.8       0.0       0.0
19 C  dxz             0.0       0.5       0.2       0.0       0.0       0.0
19 C  dyz             0.0       1.0       0.4       0.1       0.0       0.0

                    312       313       314       315   
                   3.50869   3.51902   3.55945   3.60734
                   0.00000   0.00000   0.00000   0.00000
                  --------  --------  --------  --------
 1 C  s               0.2       0.1       0.0       0.0
 1 C  px              0.3       0.1       0.1       0.0
 1 C  dz2             0.0       0.0       0.1       0.0
 1 C  dx2y2           0.6       0.3       0.0       0.0
 1 C  dxy             0.0       0.0       0.6       0.0
 2 O  s               0.7       0.2       0.5       0.0
 2 O  pz              0.2       0.1       0.0       0.0
 2 O  px              2.1       1.0       0.2       0.0
 2 O  py              0.5       0.2       0.1       0.0
 2 O  dz2             1.0       0.4       0.8       0.0
 2 O  dxz             0.7       0.2       2.4       0.0
 2 O  dyz             1.9       1.0       0.1       0.0
 2 O  dx2y2           0.1       0.1       8.5       0.3
 2 O  dxy            20.9       9.8       2.0       0.0
 3 C  s               0.2       0.1       6.4       0.2
 3 C  px              0.3       0.2       0.3       0.0
 3 C  py              2.5       1.2       3.3       0.1
 3 C  dz2             0.1       0.0       1.7       0.0
 3 C  dyz             1.2       0.6       0.2       0.0
 3 C  dx2y2           0.0       0.0      10.4       0.3
 3 C  dxy            11.7       6.0       0.9       0.0
 4 O  s               0.8       0.2       4.1       0.0
 4 O  px              0.3       0.2       0.5       0.0
 4 O  py              0.7       0.4       2.9       0.1
 4 O  dz2             1.2       0.6      10.9       0.2
 4 O  dxz             0.2       0.4       0.0       0.1
 4 O  dyz             0.7       0.4       0.7       0.1
 4 O  dx2y2          10.3       5.6      22.1       0.9
 4 O  dxy             4.8       2.8      15.6       0.6
 5 C  px              0.2       0.0       0.1       0.0
 5 C  dxz             0.2       0.1       0.0       0.0
 5 C  dx2y2           0.8       1.0       0.0       0.0
 5 C  dxy             0.0       0.0       0.6       0.1
 6 C  pz              0.1       0.1       0.0       0.0
 6 C  py              0.0       0.0       0.0       0.1
 6 C  dz2             0.1       0.2       0.0       0.0
 6 C  dxz             0.1       0.1       0.0       0.0
 6 C  dyz             0.2       0.5       0.0       0.1
 6 C  dx2y2           0.1       0.2       0.1       0.1
 6 C  dxy             0.2       0.1       0.0       0.1
 8 C  s               0.0       0.4       0.1       7.5
 8 C  pz              0.9       1.8       0.0       0.0
 8 C  px              0.2       0.4       0.0       0.0
 8 C  py              0.7       1.4       0.1       3.1
 8 C  dz2             2.7       5.7       0.0       0.2
 8 C  dxz             0.8       1.9       0.0       1.0
 8 C  dyz             1.0       1.1       0.4       9.4
 8 C  dx2y2           1.4       2.5       0.0       1.2
 8 C  dxy             0.1       0.1       0.1       1.6
 9 O  s               0.6       0.9       0.0       4.5
 9 O  pz              0.3       0.6       0.0       0.1
 9 O  py              0.2       0.3       0.1       3.0
 9 O  dz2             0.1       0.2       0.4      11.6
 9 O  dxz             0.7       1.0       0.0       0.0
 9 O  dyz             6.9      14.5       0.0       3.6
 9 O  dx2y2           0.3       0.8       0.9      29.8
 9 O  dxy             1.8       2.6       0.1       2.5
10 O  s               0.2       0.8       0.0       0.8
10 O  pz              1.1       2.3       0.0       0.4
10 O  px              0.2       0.4       0.0       0.1
10 O  py              0.1       0.1       0.0       0.2
10 O  dz2             5.8      11.9       0.3       8.4
10 O  dxz             2.2       3.8       0.1       3.8
10 O  dyz             2.5       5.6       0.2       1.7
10 O  dx2y2           1.0       1.5       0.0       0.5
10 O  dxy             0.7       0.9       0.0       0.3
11 C  s               0.1       0.3       0.0       0.0
11 C  pz              0.1       0.2       0.0       0.0
11 C  py              0.1       0.1       0.0       0.0
11 C  dz2             0.1       0.1       0.0       0.2
11 C  dxz             0.1       0.1       0.0       0.0
11 C  dyz             0.3       0.5       0.0       0.0
11 C  dx2y2           0.0       0.0       0.0       0.4
11 C  dxy             0.1       0.1       0.0       0.0


                      *****************************
                      * MAYER POPULATION ANALYSIS *
                      *****************************

  NA   - Mulliken gross atomic population
  ZA   - Total nuclear charge
  QA   - Mulliken gross atomic charge
  VA   - Mayer's total valence
  BVA  - Mayer's bonded valence
  FA   - Mayer's free valence

  ATOM       NA         ZA         QA         VA         BVA        FA
  0 C      6.3133     6.0000    -0.3133     4.0132     4.0132    -0.0000
  1 C      6.0150     6.0000    -0.0150     4.0382     4.0382     0.0000
  2 O      8.2244     8.0000    -0.2244     2.2880     2.2880    -0.0000
  3 C      5.8727     6.0000     0.1273     4.3811     4.3811    -0.0000
  4 O      8.1949     8.0000    -0.1949     2.3122     2.3122     0.0000
  5 C      6.0569     6.0000    -0.0569     3.8227     3.8227     0.0000
  6 C      6.2922     6.0000    -0.2922     3.8816     3.8816    -0.0000
  7 H      0.8532     1.0000     0.1468     0.9899     0.9899    -0.0000
  8 C      5.8291     6.0000     0.1709     4.3228     4.3228     0.0000
  9 O      8.1695     8.0000    -0.1695     2.3316     2.3316    -0.0000
 10 O      8.2470     8.0000    -0.2470     2.2459     2.2459     0.0000
 11 C      6.0239     6.0000    -0.0239     4.0387     4.0387     0.0000
 12 C      6.3067     6.0000    -0.3067     4.0187     4.0187     0.0000
 13 S     16.1155    16.0000    -0.1155     2.2713     2.2713     0.0000
 14 P     14.3963    15.0000     0.6037     4.9793     4.9793     0.0000
 15 S     16.2824    16.0000    -0.2824     2.0628     2.0628     0.0000
 16 O      8.3923     8.0000    -0.3923     2.1578     2.1578     0.0000
 17 C      6.1007     6.0000    -0.1007     3.8088     3.8088     0.0000
 18 O      8.3567     8.0000    -0.3567     2.1774     2.1774     0.0000
 19 C      6.1076     6.0000    -0.1076     3.8242     3.8242    -0.0000
 20 H      0.8675     1.0000     0.1325     0.9693     0.9693    -0.0000
 21 H      0.8835     1.0000     0.1165     0.9563     0.9563    -0.0000
 22 H      0.8821     1.0000     0.1179     0.9544     0.9544     0.0000
 23 H      0.8920     1.0000     0.1080     0.9500     0.9500    -0.0000
 24 H      0.8834     1.0000     0.1166     0.9734     0.9734    -0.0000
 25 H      0.8729     1.0000     0.1271     0.9789     0.9789     0.0000
 26 H      0.8765     1.0000     0.1235     0.9660     0.9660     0.0000
 27 H      0.8809     1.0000     0.1191     0.9898     0.9898    -0.0000
 28 H      0.9058     1.0000     0.0942     0.9489     0.9489     0.0000
 29 H      0.8925     1.0000     0.1075     0.9558     0.9558    -0.0000
 30 H      0.8557     1.0000     0.1443     0.9707     0.9707    -0.0000
 31 H      0.8921     1.0000     0.1079     0.9543     0.9543    -0.0000
 32 H      0.8745     1.0000     0.1255     0.9550     0.9550    -0.0000
 33 H      0.8843     1.0000     0.1157     0.9634     0.9634     0.0000
 34 H      0.8799     1.0000     0.1201     1.0011     1.0011    -0.0000
 35 H      0.8697     1.0000     0.1303     0.9543     0.9543     0.0000
 36 H      0.8826     1.0000     0.1174     0.9812     0.9812    -0.0000
 37 H      0.8741     1.0000     0.1259     0.9637     0.9637     0.0000

  Mayer bond orders larger than 0.100000
B(  0-C ,  1-C ) :   1.1747 B(  0-C , 20-H ) :   0.9431 B(  0-C , 21-H ) :   0.9483 
B(  0-C , 22-H ) :   0.9429 B(  1-C ,  2-O ) :   0.9081 B(  1-C , 23-H ) :   0.9368 
B(  1-C , 24-H ) :   0.9149 B(  2-O ,  3-C ) :   1.2561 B(  3-C ,  4-O ) :   1.9811 
B(  3-C ,  5-C ) :   1.0173 B(  5-C ,  6-C ) :   1.0347 B(  5-C , 25-H ) :   0.8688 
B(  5-C , 26-H ) :   0.8958 B(  6-C ,  7-H ) :   0.8685 B(  6-C ,  8-C ) :   0.9032 
B(  6-C , 13-S ) :   1.0157 B(  8-C ,  9-O ) :   2.0562 B(  8-C , 10-O ) :   1.2003 
B( 10-O , 11-C ) :   0.9194 B( 11-C , 12-C ) :   1.1784 B( 11-C , 27-H ) :   0.9053 
B( 11-C , 28-H ) :   0.9360 B( 12-C , 29-H ) :   0.9478 B( 12-C , 30-H ) :   0.9385 
B( 12-C , 31-H ) :   0.9428 B( 13-S , 14-P ) :   0.9497 B( 13-S , 15-S ) :   0.1136 
B( 14-P , 15-S ) :   1.6953 B( 14-P , 16-O ) :   1.0656 B( 14-P , 18-O ) :   1.1101 
B( 16-O , 17-C ) :   0.9296 B( 17-C , 32-H ) :   0.9587 B( 17-C , 33-H ) :   0.9507 
B( 17-C , 34-H ) :   0.9316 B( 18-O , 19-C ) :   0.9188 B( 19-C , 35-H ) :   0.9569 
B( 19-C , 36-H ) :   0.9335 B( 19-C , 37-H ) :   0.9492 

-------
TIMINGS
-------

Total SCF time: 0 days 0 hours 0 min 16 sec 

Total time                  ....      16.930 sec
Sum of individual times     ....      16.899 sec  ( 99.8%)

SCF preparation             ....       2.512 sec  ( 14.8%)
Fock matrix formation       ....       5.178 sec  ( 30.6%)
  Startup                   ....       0.631 sec  ( 12.2% of F)
  Split-RI-J                ....       2.887 sec  ( 55.8% of F)
  XC integration            ....       1.618 sec  ( 31.2% of F)
    Basis function eval.    ....       0.655 sec  ( 40.5% of XC)
    Density eval.           ....       0.399 sec  ( 24.7% of XC)
    XC-Functional eval.     ....       0.090 sec  (  5.6% of XC)
    XC-Potential eval.      ....       0.396 sec  ( 24.5% of XC)
Diagonalization             ....       0.000 sec  (  0.0%)
Density matrix formation    ....       0.027 sec  (  0.2%)
Total Energy calculation    ....       0.001 sec  (  0.0%)
Population analysis         ....       9.091 sec  ( 53.7%)
Orbital Transformation      ....       0.019 sec  (  0.1%)
Orbital Orthonormalization  ....       0.000 sec  (  0.0%)
DIIS solution               ....       0.025 sec  (  0.1%)
  MO trafo                  ....       0.000 sec  (  0.0 % of DIIS)
  Orb grad                  ....       0.000 sec  (  0.0 % of DIIS)
  Energy W gradient         ....       0.000 sec  (  0.0 % of DIIS)
  DIIS error                ....       0.003 sec  ( 12.5 % of DIIS)
  DIIS work                 ....       0.022 sec  ( 86.5 % of DIIS)
  Form Q                    ....       0.000 sec  (  0.0 % of DIIS)
  Form QpQm                 ....       0.000 sec  (  0.0 % of DIIS)
  Exp/Cayley                ....       0.000 sec  (  0.0 % of DIIS)
  Orb update                ....       0.000 sec  (  0.0 % of DIIS)
  Wake-sleep                ....       0.000 sec  (  1.0 % of DIIS)
SOSCF solution              ....       0.046 sec  (  0.3%)
  MO trafo                  ....       0.029 sec  ( 63.3 % of SOSCF)
  Orb grad                  ....       0.000 sec  (  0.7 % of SOSCF)
  Rot update                ....       0.002 sec  (  4.6 % of SOSCF)
  Step                      ....       0.014 sec  ( 30.9 % of SOSCF)
Finished LeanSCF after  25.0 sec

Maximum memory used throughout the entire LEANSCF-calculation: 33.0 MB


-------------------------------------------------------------------------------
                          DFT DISPERSION CORRECTION                            
                                                                               
                                DFTD4 V3.4.0                                   
-------------------------------------------------------------------------------
The PBE functional is recognized
Active option DFTDOPT                   ...         5   

-------------------------   ----------------
Dispersion correction           -0.051807327
-------------------------   ----------------

------------------   -----------------
gCP correction             0.183507944
------------------   -----------------

-------------------------   --------------------
FINAL SINGLE POINT ENERGY     -1979.014785445105
-------------------------   --------------------


------------------------------------------------------------------------------
                              ORCA PROPERTY CALCULATIONS
------------------------------------------------------------------------------

GBWName                                 ... sp.gbw
Number of atoms                         ...     38
Number of basis functions               ...    316
Max core memory                         ...   1024 MB

Electric properties:
Dipole moment                           ... YES
Quadrupole moment                       ...  NO
Static polarizability (Dipole/Dipole)   ...  NO
Static polarizability (Dipole/Quad.)    ...  NO
Static polarizability (Quad./Quad.)     ...  NO
Static polarizability (Velocity)        ...  NO

Atomic electric properties:
Dipole moment                           ...  NO
Quadrupole moment                       ...  NO
Static polarizability                   ...  NO

Choice of electric origin               ... Center of mass
Position of electric origin             ...     0.000004    -0.000005     0.000005

General magnetic properties:
Magnetizability                         ...  NO

EPR properties:
g-Tensor (aka g-matrix)                 ...  NO
Zero-Field splitting spin-orbit         ...  NO
Zero-field splitting spin-spin          ...  NO
Hyperfine couplings                     ...  NO (   0 nuclei)
Quadrupole couplings                    ...  NO (   0 nuclei)
Contact density                         ...  NO (   0 nuclei)

NMR properties:
Chemical shifts                         ...  NO (   0 nuclei)
Spin-rotation constants                 ...  NO (   0 nuclei)
Spin-spin couplings                     ...  NO (   0 nuclei,    0 pairs)

Choice of magnetic origin               ... GIAO
Position of magnetic origin             ...     0.000000     0.000000     0.000000

Properties with geometric perturbations:
SCF Hessian                             ...  NO
IR spectrum                             ...  NO
VCD spectrum                            ...  NO
X-ray spectroscopy properties:
SCF XES/XAS/RIXS spectra                ...  NO


-------------
DIPOLE MOMENT
-------------

Method             : SCF
Type of density    : Electron Density
Multiplicity       :   1
Irrep              :   0
Energy             : -1979.1464860620048967 Eh
Relativity type    : 
Basis              : AO
                                X                 Y                 Z
Electronic contribution:    -20.459121725       2.951417379      -9.695992507
Nuclear contribution   :     21.319522555      -4.603679962      11.049501031
                        -----------------------------------------
Total Dipole Moment    :      0.860400830      -1.652262582       1.353508524
                        -----------------------------------------
Magnitude (a.u.)       :      2.302660755
Magnitude (Debye)      :      5.852898503



--------------------
Rotational spectrum 
--------------------
 
Rotational constants in cm-1:             0.017853             0.005625             0.005008 
Rotational constants in MHz :           535.213111           168.645020           150.142361 

Dipole components along the rotational axes: 
x,y,z [a.u.] :     1.092850     0.147053     2.021460 
x,y,z [Debye]:     2.777803     0.373779     5.138144 

 

Dipole moment calculation done in   2.9 sec 

Maximum memory used throughout the entire PROP-calculation: 23.1 MB

--------------------------------
SUGGESTED CITATIONS FOR THIS RUN
--------------------------------

Below you find a list of papers that are relevant to this ORCA run
We neither can nor want to force you to cite these papers, but we appreciate if you do
You receive ORCA, which is the product of decades of hard work by many enthusiastic individuals, for free
The only thing we kindly ask in return is that you cite our papers,
We deeply appreciate it, if you show your appreciation for ORCA by not just citing the generic ORCA reference.

Please note that relegating all ORCA citations to the supporting information does *not* help us.
SI sections are not indexed - citations you put there will not count into any citation statistics
But we need these citations in order to attract the funding resources that allow us to do what we are doing

Therefore, if you are a happy ORCA user, please consider citing a few of the papers listed below in the main body of your paper

In addition to the list printed below, the program has created the file sp.bibtex that contains the list in bibtex format
You can import this file easily into all common literature databanks and citation aid programs


List of essential papers. We consider these as the minimum necessary citations

  1. Neese,F.
     Software update: the ORCA program system, version 5.0
     WIRES Comput. Molec. Sci., 2022 12(1)e1606
     doi.org/10.1002/wcms.1606

List of papers to cite with high priority. The work reported in these papers was absolutely
necessary for this run to complete.
Our perspective: the developers of density functionals and basis sets usually get cited in chemistry papers
Good! But without the algorithms to do something with them, the functionals or basis sets would not do anything.
Hence, in our opinion, the algorithm design and method developments papers are equally worthy of getting cited

  1. Neese,F.
     An improvement of the resolution of the identity approximation for the formation of the Coulomb matrix
     J. Comp. Chem., 2003 24(14)1740-1747
     doi.org/10.1002/jcc.10318
  2. Neese,F.
     The SHARK Integral Generation and Digestion System
     J. Comp. Chem., 2022  1-16
     doi.org/10.1002/jcc.26942
  3. Caldeweyher,E.; Bannwarth,C.; Grimme,S.
     Extension of the D3 dispersion coefficient model
     J. Chem. Phys., 2017 147 034112
     doi.org/10.1063/1.4993215
  4. Caldeweyher,E.; Ehlert,S.; Hansen,A.; Neugebauer,H.; Spicher,S.; Bannwarth,C.; Grimme,S.
     A generally applicable atomic-charge dependent London dispersion correction
     J. Chem. Phys., 2019 150 154122
     doi.org/10.1063/1.5090222
  5. Caldeweyher,E.; Mewes,J.; Ehlert,S.; Grimme,S.
     Extension and evaluation of the D4 London-dispersion model for periodic systems
     Phys. Chem. Chem. Phys., 2020 22(16)8499-8512
     doi.org/10.1039/D0CP00502A
  6. Wittmann,L.; Gordiy,I.; Friede,M.; Helmich-Paris,B.; Grimme,S.; Hansen,A.; Bursch,M.
     Extension of the D3 and D4 London Dispersion Corrections to the full Actinides Series
     Phys. Chem. Chem. Phys., 2024 26(32)21379-21394
     doi.org/https://doi.org/10.1039/D4CP01514B 

List of suggested additional citations. These are papers that are important in the 'surrounding' of 
of this run, or papers that preceded the highly important papers. If you like your results we are grateful for a citation.

  1. Neese,F.
     The ORCA program system
     WIRES Comput. Molec. Sci., 2012 2(1)73-78
     doi.org/10.1002/wcms.81
  2. Neese,F.
     Software update: the ORCA program system, version 4.0
     WIRES Comput. Molec. Sci., 2018 8(1)1-6
     doi.org/10.1002/wcms.1327
  3. Neese,F.; Wennmohs,F.; Becker,U.; Riplinger,C.
     The ORCA quantum chemistry program package
     J. Chem. Phys., 2020 152 Art. No. L224108
     doi.org/10.1063/5.0004608

List of optional additional citations

  1. Neese,F.
     Approximate second-order SCF convergence for spin unrestricted wavefunctions
     Chem. Phys. Lett., 2000 325(1-3)93-98
     doi.org/10.1016/s0009-2614(00)00662-x

Timings for individual modules:

Sum of individual times          ...       29.465 sec (=   0.491 min)
Startup calculation              ...        1.283 sec (=   0.021 min)   4.4 %
SCF iterations                   ...       25.180 sec (=   0.420 min)  85.5 %
Property calculations            ...        3.003 sec (=   0.050 min)  10.2 %
                             ****ORCA TERMINATED NORMALLY****
TOTAL RUN TIME: 0 days 0 hours 0 minutes 41 seconds 807 msec
