
                                 *****************
                                 * O   R   C   A *
                                 *****************

                                            #,                                       
                                            ###                                      
                                            ####                                     
                                            #####                                    
                                            ######                                   
                                           ########,                                 
                                     ,,################,,,,,                         
                               ,,#################################,,                 
                          ,,##########################################,,             
                       ,#########################################, ''#####,          
                    ,#############################################,,   '####,        
                  ,##################################################,,,,####,       
                ,###########''''           ''''###############################       
              ,#####''   ,,,,##########,,,,          '''####'''          '####       
            ,##' ,,,,###########################,,,                        '##       
           ' ,,###''''                  '''############,,,                           
         ,,##''                                '''############,,,,        ,,,,,,###''
      ,#''                                            '''#######################'''  
     '                                                          ''''####''''         
             ,#######,   #######,   ,#######,      ##                                
            ,#'     '#,  ##    ##  ,#'     '#,    #''#        ,####,   ,####,        
            ##       ##  ##   ,#'  ##            #'  '#       #'       #'  '#        
            ##       ##  #######   ##           ,######,      #####,   #    #        
            '#,     ,#'  ##    ##  '#,     ,#' ,#      #,     #,   #   #,  ,#        
             '#######'   ##     ##  '#######'  #'      '#     '####' # '####'        



                #########################################################
                #                        -***-                          #
                #          Department of theory and spectroscopy        #
                #                                                       #
                #                      Frank Neese                      #
                #                                                       #
                #     Directorship, Architecture, Infrastructure        #
                #                    SHARK, DRIVERS                     #
                #        Core code/Algorithms in most modules           #
                #                                                       #
                #        Max Planck Institute fuer Kohlenforschung      #
                #                Kaiser Wilhelm Platz 1                 #
                #                 D-45470 Muelheim/Ruhr                 #
                #                      Germany                          #
                #                                                       #
                #                  All rights reserved                  #
                #                        -***-                          #
                #########################################################


                         Program Version 6.0.0  -   RELEASE  -


 With contributions from (in alphabetic order):
   Daniel Aravena         : Magnetic Suceptibility
   Michael Atanasov       : Ab Initio Ligand Field Theory (pilot matlab implementation)
   Alexander A. Auer      : GIAO ZORA, VPT2 properties, NMR spectrum
   Ute Becker             : All parallelization in ORCA, NUMFREQ, NUMCALC
   Giovanni Bistoni       : ED, misc. LED, open-shell LED, HFLD
   Martin Brehm           : Molecular dynamics
   Dmytro Bykov           : pre 5.0 version of the SCF Hessian
   Marcos Casanova-Páez   : Triplet and SCS-CIS(D). UHF-(DLPNO)-IP/EA/STEOM-CCSD. UHF-CVS-IP/STEOM-CCSD
   Vijay G. Chilkuri      : MRCI spin determinant printing, contributions to CSF-ICE
   Pauline Colinet        : FMM embedding
   Dipayan Datta          : RHF DLPNO-CCSD density
   Achintya Kumar Dutta   : EOM-CC, STEOM-CC
   Nicolas Foglia         : Exact transition moments, OPA infrastructure, MCD improvements
   Dmitry Ganyushin       : Spin-Orbit,Spin-Spin,Magnetic field MRCI
   Miquel Garcia          : C-PCM and meta-GGA Hessian, CCSD/C-PCM, Gaussian charge scheme
   Tiago L. C. Gouveia    : GS-ROHF, GS-ROCIS
   Yang Guo               : DLPNO-NEVPT2, F12-NEVPT2, CIM, IAO-localization
   Andreas Hansen         : Spin unrestricted coupled pair/coupled cluster methods
   Ingolf Harden          : AUTO-CI MPn and infrastructure 
   Benjamin Helmich-Paris : MC-RPA, TRAH-(SCF,CASSCF), AVAS, COSX integrals, SCF dyn. polar.
   Lee Huntington         : MR-EOM, pCC
   Robert Izsak           : Overlap fitted RIJCOSX, COSX-SCS-MP3, EOM
   Riya Kayal             : Wick's Theorem for AUTO-CI, AUTO-CI UHF-CCSDT
   Emily Kempfer          : AUTO-CI, RHF CISDT and CCSDT
   Christian Kollmar      : KDIIS, OOCD, Brueckner-CCSD(T), CCSD density, CASPT2, CASPT2-K, improved NEVPT2
   Axel Koslowski         : Symmetry handling
   Simone Kossmann        : Meta GGA functionals, TD-DFT gradient, OOMP2, (MP2 Hessian; deprecated post 5.0)
   Lucas Lang             : DCDCAS
   Marvin Lechner         : AUTO-CI (C++ implementation), FIC-MRCC
   Spencer Leger          : CASSCF response
   Dagmar Lenk            : GEPOL surface, SMD, ORCA-2-JSON
   Dimitrios Liakos       : Extrapolation schemes; Compound Job, initial MDCI parallelization
   Dimitrios Manganas     : Further ROCIS development; embedding schemes. LFT, Crystal Embedding
   Dimitrios Pantazis     : SARC Basis sets
   Anastasios Papadopoulos: AUTO-CI, single reference methods and gradients
   Taras Petrenko         : pre 6.0 DFT Hessian and TD-DFT gradient, (ASA, deprecated), ECA, 1-Electron XAS/XES, NRVS
   Peter Pinski           : DLPNO-MP2, DLPNO-MP2 Gradient
   Christoph Reimann      : Effective Core Potentials
   Marius Retegan         : Local ZFS, SOC
   Christoph Riplinger    : Optimizer, TS searches, QM/MM, DLPNO-CCSD(T), (RO)-DLPNO pert. Triples
   Michael Roemelt        : Original ROCIS implementation
   Masaaki Saitow         : Open-shell DLPNO-CCSD energy and density
   Barbara Sandhoefer     : DKH picture change effects
   Kantharuban Sivalingam : CASSCF convergence/infrastructure, NEVPT2 and variants, FIC-MRCI
   Bernardo de Souza      : ESD, SOC TD-DFT
   Georgi Stoychev        : AutoAux, RI-MP2 NMR, DLPNO-MP2 response, X2C
   Van Anh Tran           : RI-MP2 g-tensors
   Willem Van den Heuvel  : Paramagnetic NMR
   Zikuan Wang            : NOTCH, Electric field optimization 
   Frank Wennmohs         : Technical directorship and infrastructure
   Hang Xu                : AUTO-CI-Response properties 


 We gratefully acknowledge several colleagues who have allowed us to
 interface, adapt or use parts of their codes:
   Stefan Grimme, W. Hujo, H. Kruse, P. Pracht,  : VdW corrections, initial TS optimization,
                  C. Bannwarth, S. Ehlert,         DFT functionals, gCP, sTDA/sTD-DF
                  L. Wittmann, M. Mueller
   Ed Valeev, F. Pavosevic, A. Kumar             : LibInt (2-el integral package), F12 methods
   Garnet Chan, S. Sharma, J. Yang, R. Olivares  : DMRG
   Ulf Ekstrom                                   : XCFun DFT Library
   Mihaly Kallay                                 : mrcc  (arbitrary order and MRCC methods)
   Frank Weinhold                                : gennbo (NPA and NBO analysis)
   Simon Mueller                                 : openCOSMO-RS
   Christopher J. Cramer and Donald G. Truhlar   : smd solvation model
   Lars Goerigk                                  : TD-DFT with DH, B97 family of functionals
   V. Asgeirsson, H. Jonsson                     : NEB implementation
   FAccTs GmbH                                   : IRC, NEB, NEB-TS, DLPNO-Multilevel, CI-OPT
                                                   MM, QMMM, 2- and 3-layer-ONIOM, Crystal-QMMM,
                                                   LR-CPCM, SF, NACMEs, symmetry and pop. for TD-DFT,
                                                   nearIR, NL-DFT gradient (VV10), updates on ESD,
                                                   ML-optimized integration grids, MBIS, APM,
                                                   GOAT, DOCKER, SOLVATOR, interface openCOSMO-RS
   S Lehtola, MJT Oliveira, MAL Marques          : LibXC Library
   Liviu Ungur et al                             : ANISO software


 Your calculation uses the libint2 library for the computation of 2-el integrals
 For citations please refer to: http://libint.valeyev.net

 Your ORCA version has been built with support for libXC version: 6.2.2
 For citations please refer to: https://libxc.gitlab.io

 This ORCA versions uses:
   CBLAS   interface :  Fast vector & matrix operations
   LAPACKE interface :  Fast linear algebra routines
   SCALAPACK package :  Parallel linear algebra routines
   Shared memory     :  Shared parallel matrices
   BLAS/LAPACK       :  OpenBLAS 0.3.27  USE64BITINT DYNAMIC_ARCH NO_AFFINITY SapphireRapids SINGLE_THREADED
        Core in use  :  SapphireRapids
   Copyright (c) 2011-2014, The OpenBLAS Project


Your calculation utilizes the geometrical counterpoise correction gCP
Please cite in your paper:
H.Kruse, S. Grimme J.Chem.Phys., 136, (2012), 154101 
   

Your calculation utilizes the DFT-NL dispersion correction.
Cite in your paper:
Vydrov, O. A.; Van Voorhis, T. J. Chem. Phys. 2010, 133, 244103
Hujo, W.; Grimme, S. J. Chem. Theory Comput. 2011, 7, 3866 
   

================================================================================

----- Orbital basis set information -----
Your calculation utilizes the basis: def2-TZVP
   F. Weigend and R. Ahlrichs, Phys. Chem. Chem. Phys. 7, 3297 (2005).

----- AuxJ basis set information -----
Your calculation utilizes the auxiliary basis: def2/J
   F. Weigend, Phys. Chem. Chem. Phys. 8, 1057 (2006).

================================================================================
                                        WARNINGS
                       Please study these warnings very carefully!
================================================================================


================================================================================
                                       INPUT FILE
================================================================================
NAME = sp_gas.inp
|  1> ! wb97x-v def2-tzvp def2/J RIJCOSX DEFGRID2 scfconv7 GCP(DFT/TZ) printgap
|  2> %output
|  3>     printlevel normal
|  4> end
|  5> * xyz 0 1
|  6> C -1.8422449830167313 -1.4508060647657555 -5.7283683969693715e-05
|  7> C -0.5306962020795539 -0.7213556490994657 -4.2803743156381055e-05
|  8> C 0.6892253748095551 -1.4012551506185669 -5.5243891457926364e-05
|  9> C 1.9068593153841835 -0.7243049860489613 -2.3051209184847622e-05
| 10> C 1.916749146494685 0.6684212687372081 2.19285258333191e-05
| 11> C 0.717862242376335 1.3740151798929896 3.526740616651717e-05
| 12> C -0.4906538786527518 0.6815237371753694 8.33796317240555e-06
| 13> O -1.6442476384878506 1.4400632399803746 4.136738160989379e-05
| 14> H -1.679445181440132 -2.530532047932978 -0.00023590363724902022
| 15> H -2.443689257401916 -1.203973885667092 0.884163933692029
| 16> H -2.4438278078267963 -1.2037086243095296 -0.8841095022009074
| 17> H 0.6750953627521354 -2.4878866457422792 -9.553040490259586e-05
| 18> H 2.83822265722156 -1.2809469041876884 -3.11219605411083e-05
| 19> H 2.8567739584208844 1.211306448831494 4.6289359194209915e-05
| 20> H 0.7060595616608868 2.4593885154350517 7.157465559049257e-05
| 21> H -2.4150627858407927 0.8560437642522665 3.799456316062996e-05
| 22> *
| 23> 
| 24>                          ****END OF INPUT****
================================================================================

                       ****************************
                       * Single Point Calculation *
                       ****************************

---------------------------------
CARTESIAN COORDINATES (ANGSTROEM)
---------------------------------
  C     -1.842245   -1.450806   -0.000057
  C     -0.530696   -0.721356   -0.000043
  C      0.689225   -1.401255   -0.000055
  C      1.906859   -0.724305   -0.000023
  C      1.916749    0.668421    0.000022
  C      0.717862    1.374015    0.000035
  C     -0.490654    0.681524    0.000008
  O     -1.644248    1.440063    0.000041
  H     -1.679445   -2.530532   -0.000236
  H     -2.443689   -1.203974    0.884164
  H     -2.443828   -1.203709   -0.884110
  H      0.675095   -2.487887   -0.000096
  H      2.838223   -1.280947   -0.000031
  H      2.856774    1.211306    0.000046
  H      0.706060    2.459389    0.000072
  H     -2.415063    0.856044    0.000038

----------------------------
CARTESIAN COORDINATES (A.U.)
----------------------------
  NO LB      ZA    FRAG     MASS         X           Y           Z
   0 C     6.0000    0    12.011   -3.481338   -2.741626   -0.000108
   1 C     6.0000    0    12.011   -1.002870   -1.363165   -0.000081
   2 C     6.0000    0    12.011    1.302447   -2.647988   -0.000104
   3 C     6.0000    0    12.011    3.603442   -1.368738   -0.000044
   4 C     6.0000    0    12.011    3.622131    1.263133    0.000041
   5 C     6.0000    0    12.011    1.356563    2.596512    0.000067
   6 C     6.0000    0    12.011   -0.927201    1.287893    0.000016
   7 O     8.0000    0    15.999   -3.107178    2.721325    0.000078
   8 H     1.0000    0     1.008   -3.173691   -4.782013   -0.000446
   9 H     1.0000    0     1.008   -4.617903   -2.275181    1.670828
  10 H     1.0000    0     1.008   -4.618165   -2.274680   -1.670725
  11 H     1.0000    0     1.008    1.275745   -4.701424   -0.000181
  12 H     1.0000    0     1.008    5.363464   -2.420639   -0.000059
  13 H     1.0000    0     1.008    5.398520    2.289037    0.000087
  14 H     1.0000    0     1.008    1.334259    4.647571    0.000135
  15 H     1.0000    0     1.008   -4.563807    1.617688    0.000072

--------------------------------
INTERNAL COORDINATES (ANGSTROEM)
--------------------------------
 C      0   0   0     0.000000000000     0.00000000     0.00000000
 C      1   0   0     1.500752515874     0.00000000     0.00000000
 C      2   1   0     1.396592992278   121.78603248     0.00000000
 C      3   2   1     1.393159696369   121.79563537   180.00090750
 C      4   3   2     1.392761369206   119.47896126     0.00000000
 C      5   4   3     1.391111992797   120.07169562     0.00000000
 C      6   5   4     1.392858791748   119.70832390     0.00000000
 O      7   6   5     1.380637802299   116.86016414   179.99916709
 H      1   2   3     1.091930403471   110.50730872     0.00000000
 H      1   2   3     1.097501025552   111.69091478   119.88132764
 H      1   2   3     1.097500508087   111.69144310   240.10103502
 H      3   2   1     1.086723361789   118.38725358     0.00000000
 H      4   3   2     1.085028985610   120.06267057   179.99983752
 H      5   4   3     1.085527966658   120.41424073   180.00007013
 H      6   5   4     1.085437507227   121.10157671   179.99991325
 H      8   7   6     0.967075353543   109.52336413   180.00123788

---------------------------
INTERNAL COORDINATES (A.U.)
---------------------------
 C      0   0   0     0.000000000000     0.00000000     0.00000000
 C      1   0   0     2.836011249796     0.00000000     0.00000000
 C      2   1   0     2.639178275959   121.78603248     0.00000000
 C      3   2   1     2.632690286954   121.79563537   180.00090750
 C      4   3   2     2.631937557705   119.47896126     0.00000000
 C      5   4   3     2.628820688000   120.07169562     0.00000000
 C      6   5   4     2.632121659628   119.70832390     0.00000000
 O      7   6   5     2.609027336484   116.86016414   179.99916709
 H      1   2   3     2.063449419863   110.50730872     0.00000000
 H      1   2   3     2.073976369991   111.69091478   119.88132764
 H      1   2   3     2.073975392124   111.69144310   240.10103502
 H      3   2   1     2.053609537116   118.38725358     0.00000000
 H      4   3   2     2.050407630168   120.06267057   179.99983752
 H      5   4   3     2.051350567696   120.41424073   180.00007013
 H      6   5   4     2.051179624146   121.10157671   179.99991325
 H      8   7   6     1.827507569061   109.52336413   180.00123788

---------------------
BASIS SET INFORMATION
---------------------
There are 3 groups of distinct atoms

 Group   1 Type C   : 11s6p2d1f contracted to 5s3p2d1f pattern {62111/411/11/1}
 Group   2 Type O   : 11s6p2d1f contracted to 5s3p2d1f pattern {62111/411/11/1}
 Group   3 Type H   : 5s1p contracted to 3s1p pattern {311/1}

Atom   0C    basis set group =>   1
Atom   1C    basis set group =>   1
Atom   2C    basis set group =>   1
Atom   3C    basis set group =>   1
Atom   4C    basis set group =>   1
Atom   5C    basis set group =>   1
Atom   6C    basis set group =>   1
Atom   7O    basis set group =>   2
Atom   8H    basis set group =>   3
Atom   9H    basis set group =>   3
Atom  10H    basis set group =>   3
Atom  11H    basis set group =>   3
Atom  12H    basis set group =>   3
Atom  13H    basis set group =>   3
Atom  14H    basis set group =>   3
Atom  15H    basis set group =>   3
---------------------------------
AUXILIARY/J BASIS SET INFORMATION
---------------------------------
There are 3 groups of distinct atoms

 Group   1 Type C   : 12s5p4d2f1g contracted to 6s4p3d1f1g pattern {711111/2111/211/2/1}
 Group   2 Type O   : 12s5p4d2f1g contracted to 6s4p3d1f1g pattern {711111/2111/211/2/1}
 Group   3 Type H   : 5s2p1d contracted to 3s1p1d pattern {311/2/1}

Atom   0C    basis set group =>   1
Atom   1C    basis set group =>   1
Atom   2C    basis set group =>   1
Atom   3C    basis set group =>   1
Atom   4C    basis set group =>   1
Atom   5C    basis set group =>   1
Atom   6C    basis set group =>   1
Atom   7O    basis set group =>   2
Atom   8H    basis set group =>   3
Atom   9H    basis set group =>   3
Atom  10H    basis set group =>   3
Atom  11H    basis set group =>   3
Atom  12H    basis set group =>   3
Atom  13H    basis set group =>   3
Atom  14H    basis set group =>   3
Atom  15H    basis set group =>   3

Checking for AutoStart:
The File: sp_gas.gbw exists
Trying to determine its content:
     ... Fine, the file contains calculation information
     ... Fine, the calculation information was read
     ... Fine, the file contains a basis set
     ... Fine, the basis set was read
     ... Fine, the file contains a geometry
     ... Fine, the geometry was read
     ... Fine, the file contains a set of orbitals
     ... Fine, the orbitals can be read
     => possible old guess file was deleted
     => GBW file was renamed to GES file
     => GES file is set as startup file
     => Guess is set to MORead
     ... now leaving AutoStart

------------------------------------------------------------------------------
                             ORCA STARTUP CALCULATIONS
                           -- RI-GTO INTEGRALS CHOSEN --
------------------------------------------------------------------------------
------------------------------------------------------------------------------
                   ___                                                        
                  /   \      - P O W E R E D   B Y -                         
                 /     \                                                     
                 |  |  |   _    _      __       _____    __    __             
                 |  |  |  | |  | |    /  \     |  _  \  |  |  /  |          
                  \  \/   | |  | |   /    \    | | | |  |  | /  /          
                 / \  \   | |__| |  /  /\  \   | |_| |  |  |/  /          
                |  |  |   |  __  | /  /__\  \  |    /   |      \           
                |  |  |   | |  | | |   __   |  |    \   |  |\   \          
                \     /   | |  | | |  |  |  |  | |\  \  |  | \   \       
                 \___/    |_|  |_| |__|  |__|  |_| \__\ |__|  \__/        
                                                                              
                      - O R C A' S   B I G   F R I E N D -                    
                                      &                                       
                       - I N T E G R A L  F E E D E R -                       
                                                                              
 v1 FN, 2020, v2 2021, v3 2022-2024                                           
------------------------------------------------------------------------------


----------------------
SHARK INTEGRAL PACKAGE
----------------------

Number of atoms                             ...     16
Number of basis functions                   ...    296
Number of shells                            ...    120
Maximum angular momentum                    ...      3
Integral batch strategy                     ... SHARK/LIBINT Hybrid
RI-J (if used) integral strategy            ... SPLIT-RIJ (Revised 2003 algorithm where possible)
Printlevel                                  ...      1
Contraction scheme used                     ... SEGMENTED contraction
Prescreening option                         ... SCHWARTZ
   Thresh                                   ... 3.000e-11
   Tcut                                     ... 1.000e-12
   Tpresel                                  ... 1.000e-12 
Coulomb Range Separation                    ... NOT USED
Exchange Range Separation                   ... Long Range
   Mu parameter                             ... 3.000e-01
   Scaling (regular/separated)              ... 1.670e-01 8.330e-01
Multipole approximations                    ... NOT USED
Finite Nucleus Model                        ... NOT USED
CABS basis                                  ... NOT available
Auxiliary Coulomb fitting basis             ... AVAILABLE
   # of basis functions in Aux-J            ...    480
   # of shells in Aux-J                     ...    160
   Maximum angular momentum in Aux-J        ...      4
Auxiliary J/K fitting basis                 ... NOT available
Auxiliary Correlation fitting basis         ... NOT available
Auxiliary 'external' fitting basis          ... NOT available

Checking pre-screening integrals            ... done (  0.0 sec) Dimension = 120
Check shell pair data                       ... done (  0.0 sec)
Shell pair information
Shell pair cut-off parameter TPreSel        ...   1.0e-12
Total number of shell pairs                 ...      7260
Shell pairs after pre-screening             ...      6762
Total number of primitive shell pairs       ...     21936
Primitive shell pairs kept                  ...     15535
          la=0 lb=0:   1848 shell pairs
          la=1 lb=0:   1912 shell pairs
          la=1 lb=1:    507 shell pairs
          la=2 lb=0:    973 shell pairs
          la=2 lb=1:    497 shell pairs
          la=2 lb=2:    132 shell pairs
          la=3 lb=0:    478 shell pairs
          la=3 lb=1:    252 shell pairs
          la=3 lb=2:    127 shell pairs
          la=3 lb=3:     36 shell pairs

Calculating one electron integrals          ... done (  0.0 sec)
Calculating RI/J V-Matrix + Cholesky decomp.... done (  0.2 sec)
Calculating Nuclear repulsion               ... done (  0.0 sec) ENN=    348.055269308435 Eh

Diagonalization of the overlap matrix:
Smallest eigenvalue                        ... 9.171e-06
Time for diagonalization                   ...    0.007 sec
Threshold for overlap eigenvalues          ... 1.000e-07
Number of eigenvalues below threshold      ... 0
Time for construction of square roots      ...    0.017 sec
Total time needed                          ...    0.090 sec

-------------------
DFT GRID GENERATION
-------------------

General Integration Accuracy     IntAcc      ... 4.388
Radial Grid Type                 RadialGrid  ... OptM3 with GC (2021)
Angular Grid (max. ang.)         AngularGrid ... 4 (Lebedev-302)
Angular grid pruning method      GridPruning ... 4 (adaptive)
Weight generation scheme         WeightScheme... mBecke (2022)
Basis function cutoff            BFCut       ... 1.0000e-11
Integration weight cutoff        WCut        ... 1.0000e-14
Partially contracted basis set               ... off
Rotationally invariant grid construction     ... off
Angular grids for H and He will be reduced by one unit

Total number of grid points                  ...    73824
Total number of batches                      ...     1162
Average number of points per batch           ...       63
Average number of grid points per atom       ...     4614

--------------------
COSX GRID GENERATION
--------------------

GRIDX 1
-------
General Integration Accuracy     IntAcc      ... 3.816
Radial Grid Type                 RadialGrid  ... OptM3 with GC (2021)
Angular Grid (max. ang.)         AngularGrid ... 1 (Lebedev-50)
Angular grid pruning method      GridPruning ... 4 (adaptive)
Weight generation scheme         WeightScheme... mBecke (2022)
Basis function cutoff            BFCut       ... 1.0000e-11
Integration weight cutoff        WCut        ... 1.0000e-14
Partially contracted basis set               ... on
Rotationally invariant grid construction     ... off
Angular grids for H and He will be reduced by one unit

Total number of grid points                  ...     9459
Total number of batches                      ...       83
Average number of points per batch           ...      113
Average number of grid points per atom       ...      591
UseSFitting                                  ... on

GRIDX 2
-------
General Integration Accuracy     IntAcc      ... 4.020
Radial Grid Type                 RadialGrid  ... OptM3 with GC (2021)
Angular Grid (max. ang.)         AngularGrid ... 2 (Lebedev-110)
Angular grid pruning method      GridPruning ... 4 (adaptive)
Weight generation scheme         WeightScheme... mBecke (2022)
Basis function cutoff            BFCut       ... 1.0000e-11
Integration weight cutoff        WCut        ... 1.0000e-14
Partially contracted basis set               ... on
Rotationally invariant grid construction     ... off
Angular grids for H and He will be reduced by one unit

Total number of grid points                  ...    20452
Total number of batches                      ...      167
Average number of points per batch           ...      122
Average number of grid points per atom       ...     1278
UseSFitting                                  ... on

GRIDX 3
-------
General Integration Accuracy     IntAcc      ... 4.338
Radial Grid Type                 RadialGrid  ... OptM3 with GC (2021)
Angular Grid (max. ang.)         AngularGrid ... 3 (Lebedev-194)
Angular grid pruning method      GridPruning ... 4 (adaptive)
Weight generation scheme         WeightScheme... mBecke (2022)
Basis function cutoff            BFCut       ... 1.0000e-11
Integration weight cutoff        WCut        ... 1.0000e-14
Partially contracted basis set               ... on
Rotationally invariant grid construction     ... off
Angular grids for H and He will be reduced by one unit

Total number of grid points                  ...    44931
Total number of batches                      ...      358
Average number of points per batch           ...      125
Average number of grid points per atom       ...     2808
UseSFitting                                  ... on
Initializing property integral containers    ... done (  0.0 sec)

SHARK setup successfully completed in   2.6 seconds

Maximum memory used throughout the entire STARTUP-calculation: 43.7 MB
-------------------------------------------------------------------------------
                                 ORCA GUESS
                   Start orbitals & Density for SCF / CASSCF
-------------------------------------------------------------------------------

------------
SCF SETTINGS
------------
Hamiltonian:
 Density Functional     Method          .... DFT(GTOs)
 Exchange Functional    Exchange        .... WB97X-V
 Correlation Functional Correlation     .... WB97X-V
 Gradients option       PostSCFGGA      .... off
 Hybrid DFT is turned on
   Fraction HF Exchange ScalHFX         ....  0.167000
   Scaling of DF-GGA-X  ScalDFX         ....  0.000000
   Scaling of DF-GGA-C  ScalDFC         ....  1.000000
   Scaling of DF-LDA-C  ScalLDAC        ....  1.000000
   Perturbative correction              ....  0.000000
 Long-range corrected/Screened/Range-Separated Hybrid DFT is turned on
   Amount of maximum screened exact exchange              ....  0.833000
   Range separation parameter mu (erf(mu*r12)/r12)        ....  0.300000
   NL short-range parameter             ....  6.000000
   NL long-range parameter              ....  0.010000
 RI-approximation to the Coulomb term is turned on
   Number of AuxJ basis functions       .... 480
   RIJ-COSX (HFX calculated with COS-X)).... on


General Settings:
 Integral files         IntName         .... sp_gas
 Hartree-Fock type      HFTyp           .... RHF
 Total Charge           Charge          ....    0
 Multiplicity           Mult            ....    1
 Number of Electrons    NEL             ....   58
 Basis Dimension        Dim             ....  296
 Nuclear Repulsion      ENuc            ....    348.0552693084 Eh

Convergence Acceleration:
 AO-DIIS                CNVDIIS         .... on
   Start iteration      DIISMaxIt       ....    12
   Startup error        DIISStart       ....  0.200000
   # of expansion vecs  DIISMaxEq       ....     5
   Bias factor          DIISBfac        ....   1.050
   Max. coefficient     DIISMaxC        ....  10.000
 MO-DIIS                CNVKDIIS        .... off
 Trust-Rad. Augm. Hess. CNVTRAH         .... auto
   Auto Start mean grad. ratio tolernc. ....  1.125000
   Auto Start start iteration           ....     1
   Auto Start num. interpolation iter.  ....    10
   Max. Number of Micro iterations      ....    24
   Max. Number of Macro iterations      .... Maxiter - #DIIS iter
   Number of Davidson start vectors     ....     2
   Converg. threshold    (grad. norm)   ....   1.000e-04
   Grad. Scal. Fac. for Micro threshold ....   0.100
   Minimum threshold for Micro iter.    ....   1.000e-02
   NR start threshold (gradient norm)   ....   1.000e-04
   Initial trust radius                 ....   0.400
   Minimum AH scaling param. (alpha)    ....   1.000
   Maximum AH scaling param. (alpha)    .... 1000.000
   Quad. conv. algorithm                .... NR
   White noise on init. David. guess    .... on
   Maximum white noise                  ....   0.010
   Pseudo random numbers                .... off
   Inactive MOs                         .... canonical
   Orbital update algorithm             .... Taylor
   Preconditioner                       .... Diag
   Full preconditioner red. dimension   ....   250
 SOSCF                  CNVSOSCF        .... on
   Start iteration      SOSCFMaxIt      ....   150
   Startup grad/error   SOSCFStart      ....  0.003300
   Hessian update       SOSCFHessUp     .... L-BFGS
 Level Shifting         CNVShift        .... on
   Level shift para.    LevelShift      ....    0.2500
   Turn off err/grad.   ShiftErr        ....    0.0010
 Zerner damping         CNVZerner       .... off
 Static damping         CNVDamp         .... on
   Fraction old density DampFac         ....    0.7000
   Max. Damping (<1)    DampMax         ....    0.9800
   Min. Damping (>=0)   DampMin         ....    0.0000
   Turn off err/grad.   DampErr         ....    0.1000

SCF Procedure:
 Maximum # iterations   MaxIter         ....   125
 SCF integral mode      SCFMode         .... Direct
   Integral package                     .... SHARK and LIBINT hybrid scheme
 Reset frequency        DirectResetFreq ....    20
 Integral Threshold     Thresh          ....  3.000e-11 Eh
 Primitive CutOff       TCut            ....  1.000e-12 Eh

Convergence Tolerance:
 Convergence Check Mode ConvCheckMode   .... Total+1el-Energy
 Convergence forced     ConvForced      .... 0
 Energy Change          TolE            ....  1.000e-07 Eh
 1-El. energy change                    ....  1.000e-04 Eh
 Orbital Gradient       TolG            ....  1.000e-04
 Orbital Rotation angle TolX            ....  1.000e-04
 DIIS Error             TolErr          ....  1.000e-07

---------------------
INITIAL GUESS: MOREAD
---------------------
Guess MOs are being read from file: sp_gas.ges
Input Geometry matches current geometry (good)
Atom 0: N(Shells)= 11 and 9 - projection required
Input basis set needs projection
NBasis(read)= 197
NBasis(calc)= 296
Basis set overlap was calculated
Using GuessMode=FMatrix for the initial guess
C*T matrix was formed
Effective Fockian was calculated
Effective Fockian was diagonalized
Initial density was built
                      ------------------
                      INITIAL GUESS DONE (   0.1 sec)
                      ------------------
             **** ENERGY FILE WAS UPDATED (sp_gas.en.tmp) ****
Finished Guess after   0.9 sec
Maximum memory used throughout the entire GUESS-calculation: 26.8 MB

-------------------------------------------------------------------------------------------
                                      ORCA LEAN-SCF
                              memory conserving SCF solver
-------------------------------------------------------------------------------------------

----------------------------------------D-I-I-S--------------------------------------------
Iteration    Energy (Eh)           Delta-E    RMSDP     MaxDP     DIISErr   Damp  Time(sec)
-------------------------------------------------------------------------------------------
               ***  Starting incremental Fock matrix formation  ***
    1    -347.0130317689719277     0.00e+00  1.51e-03  5.09e-02  6.96e-02  0.700  16.0
    2    -347.0189113632429780    -5.88e-03  1.27e-03  3.89e-02  5.04e-02  0.700   7.8
                               ***Turning on AO-DIIS***
    3    -347.0232568736120129    -4.35e-03  1.01e-03  3.14e-02  3.60e-02  0.700   8.2
    4    -347.0264026691133949    -3.15e-03  2.47e-03  7.78e-02  2.53e-02  0.000   8.1
                              *** Initializing SOSCF ***
---------------------------------------S-O-S-C-F--------------------------------------
Iteration    Energy (Eh)           Delta-E    RMSDP     MaxDP     MaxGrad    Time(sec)
--------------------------------------------------------------------------------------
    5    -347.0343336381228028    -7.93e-03  9.21e-05  3.62e-03  1.51e-03     8.2
               *** Restarting incremental Fock matrix formation ***
    6    -347.0343591312913532    -2.55e-05  3.97e-05  1.18e-03  4.81e-04    15.6
    7    -347.0343657057047722    -6.57e-06  2.87e-05  1.26e-03  2.22e-04    12.3
    8    -347.0343668976183835    -1.19e-06  9.39e-06  2.80e-04  1.01e-04    12.1
    9    -347.0343671863147392    -2.89e-07  3.42e-06  1.25e-04  2.33e-05    11.2
                  *** Gradient check signals convergence ***

               *****************************************************
               *                     SUCCESS                       *
               *           SCF CONVERGED AFTER   9 CYCLES          *
               *****************************************************


------------------
NL GRID GENERATION
------------------

General Integration Accuracy     IntAcc      ... 4.004
Radial Grid Type                 RadialGrid  ... OptM3 with GC (2021)
Angular Grid (max. ang.)         AngularGrid ... 2 (Lebedev-110)
Angular grid pruning method      GridPruning ... 4 (adaptive)
Weight generation scheme         WeightScheme... mBecke (2022)
Basis function cutoff            BFCut       ... 1.0000e-10
Integration weight cutoff        WCut        ... 1.0000e-14
Partially contracted basis set               ... off
Rotationally invariant grid construction     ... off
Angular grids for H and He will be reduced by one unit

Total number of grid points                  ...    23204
Total number of batches                      ...      370
Average number of points per batch           ...       62
Average number of grid points per atom       ...     1450
Final grid set up in    0.2 sec

-------------------------------------------------------------------------------
                    post-SCF DFT-NL dispersion correction                      
-------------------------------------------------------------------------------

SCF Energy:     -347.034367186 
NL    Energy:      0.221124848 
SC+NL Energy:   -346.813242338 
NL done in  :              1.8 sec
-------------------------------------------------------------------------------
Recomputing exchange energy using gridx3       ... done (   28.994 sec)
Old exchange energy                            :    -15.466423190 Eh
New exchange energy                            :    -15.466381909 Eh
Exchange energy change after final integration :      0.000041281 Eh
Total energy after final integration           :   -346.813201057 Eh
             **** ENERGY FILE WAS UPDATED (sp_gas.en.tmp) ****

----------------
TOTAL SCF ENERGY
----------------

Total Energy       :       -346.81320105704799 Eh           -9437.26698 eV

Components:
Nuclear Repulsion  :        348.05526930843462 Eh            9471.06538 eV
Electronic Energy  :       -695.08963649474936 Eh          -18914.35060 eV
One Electron Energy:      -1158.17326043599996 Eh          -31515.49663 eV
Two Electron Energy:        463.08362394125061 Eh           12601.14604 eV

Virial components:
Potential Energy   :       -692.22860725674218 Eh          -18836.49803 eV
Kinetic Energy     :        345.41540619969413 Eh            9399.23105 eV
Virial Ratio       :          2.00404670675443

DFT components:
N(Alpha)           :       28.999998722825 electrons
N(Beta)            :       28.999998722825 electrons
N(Total)           :       57.999997445651 electrons
E(X)               :      -31.889504769921 Eh       
E(C)               :       -2.397217769829 Eh       
NL Energy, E(C,NL) :        0.221124848386 Eh       
E(XC)              :      -34.065597691364 Eh       

---------------
SCF CONVERGENCE
---------------

  Last Energy change         ...    2.8870e-07  Tolerance :   1.0000e-07
  Last MAX-Density change    ...    1.2457e-04  Tolerance :   1.0000e-05
  Last RMS-Density change    ...    3.4189e-06  Tolerance :   1.0000e-06
  Last DIIS Error            ...    1.5099e-03  Tolerance :   1.0000e-07
  Last Orbital Gradient      ...    2.3340e-05  Tolerance :   1.0000e-04
  Last Orbital Rotation      ...    4.5017e-05  Tolerance :   1.0000e-04


----------------
ORBITAL ENERGIES
----------------

  NO   OCC          E(Eh)            E(eV) 
   0   2.0000     -21.701557      -590.5294 
   1   2.0000     -12.110128      -329.5333 
   2   2.0000     -12.060505      -328.1830 
   3   2.0000     -12.058642      -328.1323 
   4   2.0000     -12.052043      -327.9528 
   5   2.0000     -12.050771      -327.9181 
   6   2.0000     -12.044528      -327.7483 
   7   2.0000     -12.042914      -327.7043 
   8   2.0000      -1.713554       -46.6282 
   9   2.0000      -1.385740       -37.7079 
  10   2.0000      -1.299635       -35.3649 
  11   2.0000      -1.277470       -34.7617 
  12   2.0000      -1.207334       -32.8532 
  13   2.0000      -1.141953       -31.0741 
  14   2.0000      -1.110687       -30.2233 
  15   2.0000      -1.053918       -28.6786 
  16   2.0000      -1.001460       -27.2511 
  17   2.0000      -0.944951       -25.7134 
  18   2.0000      -0.943133       -25.6640 
  19   2.0000      -0.938602       -25.5406 
  20   2.0000      -0.896106       -24.3843 
  21   2.0000      -0.874789       -23.8042 
  22   2.0000      -0.851539       -23.1716 
  23   2.0000      -0.844032       -22.9673 
  24   2.0000      -0.823555       -22.4101 
  25   2.0000      -0.808098       -21.9895 
  26   2.0000      -0.760544       -20.6955 
  27   2.0000      -0.637716       -17.3531 
  28   2.0000      -0.632591       -17.2137 
  29   0.0000      -0.244489        -6.6529 
  30   0.0000      -0.238200        -6.4818 
  31   0.0000      -0.148875        -4.0511 
  32   0.0000      -0.071454        -1.9444 
  33   0.0000      -0.068948        -1.8762 
  34   0.0000      -0.027041        -0.7358 
  35   0.0000      -0.007701        -0.2096 
  36   0.0000      -0.002036        -0.0554 
  37   0.0000       0.016094         0.4379 
  38   0.0000       0.022991         0.6256 
  39   0.0000       0.041513         1.1296 
*Only the first 10 virtual orbitals were printed.

                    ********************************
                    * MULLIKEN POPULATION ANALYSIS *
                    ********************************

-----------------------
MULLIKEN ATOMIC CHARGES
-----------------------
   0 C :   -0.459799
   1 C :    0.114772
   2 C :   -0.178009
   3 C :   -0.134382
   4 C :   -0.104826
   5 C :   -0.209695
   6 C :    0.176801
   7 O :   -0.388925
   8 H :    0.126425
   9 H :    0.138341
  10 H :    0.138330
  11 H :    0.110829
  12 H :    0.114415
  13 H :    0.116460
  14 H :    0.120301
  15 H :    0.318960
Sum of atomic charges:   -0.0000000

--------------------------------
MULLIKEN REDUCED ORBITAL CHARGES
--------------------------------
  0 C s       :     3.313863  s :     3.313863
      pz      :     1.044219  p :     3.083811
      px      :     0.959943
      py      :     1.079648
      dz2     :     0.005404  d :     0.058782
      dxz     :     0.025674
      dyz     :     0.004230
      dx2y2   :     0.014482
      dxy     :     0.008993
      f0      :     0.000326  f :     0.003344
      f+1     :     0.000852
      f-1     :     0.000178
      f+2     :     0.000041
      f-2     :     0.000400
      f+3     :     0.000830
      f-3     :     0.000718

  1 C s       :     3.177725  s :     3.177725
      pz      :     0.988088  p :     2.568623
      px      :     0.773872
      py      :     0.806663
      dz2     :     0.006898  d :     0.129107
      dxz     :     0.024957
      dyz     :     0.019026
      dx2y2   :     0.047614
      dxy     :     0.030612
      f0      :     0.001748  f :     0.009773
      f+1     :     0.000808
      f-1     :     0.000673
      f+2     :     0.001078
      f-2     :     0.000865
      f+3     :     0.003242
      f-3     :     0.001358

  2 C s       :     3.190022  s :     3.190022
      pz      :     0.974329  p :     2.887490
      px      :     0.932128
      py      :     0.981033
      dz2     :     0.004715  d :     0.092849
      dxz     :     0.027802
      dyz     :     0.004322
      dx2y2   :     0.033398
      dxy     :     0.022611
      f0      :     0.001604  f :     0.007649
      f+1     :     0.000622
      f-1     :     0.000669
      f+2     :     0.000243
      f-2     :     0.001220
      f+3     :     0.002179
      f-3     :     0.001111

  3 C s       :     3.160233  s :     3.160233
      pz      :     1.002997  p :     2.880835
      px      :     0.949476
      py      :     0.928362
      dz2     :     0.004546  d :     0.085861
      dxz     :     0.009860
      dyz     :     0.018024
      dx2y2   :     0.025353
      dxy     :     0.028078
      f0      :     0.001625  f :     0.007453
      f+1     :     0.000692
      f-1     :     0.000642
      f+2     :     0.000917
      f-2     :     0.000411
      f+3     :     0.002120
      f-3     :     0.001046

  4 C s       :     3.165891  s :     3.165891
      pz      :     0.956135  p :     2.844179
      px      :     0.952062
      py      :     0.935982
      dz2     :     0.004388  d :     0.087267
      dxz     :     0.010713
      dyz     :     0.020441
      dx2y2   :     0.023276
      dxy     :     0.028448
      f0      :     0.001619  f :     0.007489
      f+1     :     0.000667
      f-1     :     0.000628
      f+2     :     0.000950
      f-2     :     0.000457
      f+3     :     0.002118
      f-3     :     0.001050

  5 C s       :     3.226754  s :     3.226754
      pz      :     1.018118  p :     2.896650
      px      :     0.917113
      py      :     0.961420
      dz2     :     0.004359  d :     0.078685
      dxz     :     0.022409
      dyz     :     0.005543
      dx2y2   :     0.025129
      dxy     :     0.021246
      f0      :     0.001665  f :     0.007606
      f+1     :     0.000692
      f-1     :     0.000730
      f+2     :     0.000240
      f-2     :     0.001127
      f+3     :     0.002077
      f-3     :     0.001076

  6 C s       :     3.051007  s :     3.051007
      pz      :     0.921221  p :     2.577207
      px      :     0.793404
      py      :     0.862582
      dz2     :     0.005232  d :     0.179573
      dxz     :     0.042946
      dyz     :     0.026759
      dx2y2   :     0.055210
      dxy     :     0.049427
      f0      :     0.002526  f :     0.015412
      f+1     :     0.001118
      f-1     :     0.000914
      f+2     :     0.001178
      f-2     :     0.002431
      f+3     :     0.005265
      f-3     :     0.001980

  7 O s       :     3.741332  s :     3.741332
      pz      :     1.839003  p :     4.614539
      px      :     1.224091
      py      :     1.551444
      dz2     :     0.004408  d :     0.031381
      dxz     :     0.002917
      dyz     :     0.003707
      dx2y2   :     0.004261
      dxy     :     0.016088
      f0      :     0.000227  f :     0.001673
      f+1     :     0.000443
      f-1     :     0.000226
      f+2     :     0.000038
      f-2     :     0.000092
      f+3     :     0.000197
      f-3     :     0.000450

  8 H s       :     0.851772  s :     0.851772
      pz      :     0.004369  p :     0.021802
      px      :     0.004246
      py      :     0.013187

  9 H s       :     0.841080  s :     0.841080
      pz      :     0.009493  p :     0.020579
      px      :     0.006766
      py      :     0.004321

 10 H s       :     0.841091  s :     0.841091
      pz      :     0.009491  p :     0.020579
      px      :     0.006767
      py      :     0.004322

 11 H s       :     0.867261  s :     0.867261
      pz      :     0.004531  p :     0.021910
      px      :     0.003503
      py      :     0.013875

 12 H s       :     0.863431  s :     0.863431
      pz      :     0.004848  p :     0.022154
      px      :     0.011115
      py      :     0.006190

 13 H s       :     0.861593  s :     0.861593
      pz      :     0.004483  p :     0.021947
      px      :     0.011339
      py      :     0.006125

 14 H s       :     0.857537  s :     0.857537
      pz      :     0.004749  p :     0.022161
      px      :     0.003333
      py      :     0.014079

 15 H s       :     0.633190  s :     0.633190
      pz      :     0.016458  p :     0.047850
      px      :     0.017082
      py      :     0.014311


------------------------
MULLIKEN OVERLAP CHARGES
------------------------
B(  0-C ,  1-C ) :   0.4940 B(  0-C ,  2-C ) :  -0.1146 B(  0-C ,  6-C ) :  -0.0947 
B(  0-C ,  8-H ) :   0.8018 B(  0-C ,  9-H ) :   0.8592 B(  0-C , 10-H ) :   0.8592 
B(  1-C ,  2-C ) :   0.7639 B(  1-C ,  4-C ) :  -0.1678 B(  1-C ,  6-C ) :   0.3688 
B(  1-C ,  7-O ) :  -0.1931 B(  1-C ,  8-H ) :  -0.0852 B(  1-C ,  9-H ) :  -0.1094 
B(  1-C , 10-H ) :  -0.1095 B(  1-C , 11-H ) :  -0.0862 B(  1-C , 15-H ) :  -0.0834 
B(  2-C ,  3-C ) :   0.9569 B(  2-C ,  5-C ) :  -0.1680 B(  2-C ,  6-C ) :   0.1306 
B(  2-C , 11-H ) :   0.8222 B(  2-C , 12-H ) :  -0.1028 B(  3-C ,  4-C ) :   0.9970 
B(  3-C ,  6-C ) :  -0.1744 B(  3-C , 11-H ) :  -0.0660 B(  3-C , 12-H ) :   0.8652 
B(  3-C , 13-H ) :  -0.1021 B(  4-C ,  5-C ) :   0.9899 B(  4-C , 12-H ) :  -0.0956 
B(  4-C , 13-H ) :   0.8687 B(  4-C , 14-H ) :  -0.1038 B(  5-C ,  6-C ) :   0.9845 
B(  5-C ,  7-O ) :  -0.0911 B(  5-C , 13-H ) :  -0.1054 B(  5-C , 14-H ) :   0.8443 
B(  6-C ,  7-O ) :   0.7673 B(  6-C , 14-H ) :  -0.1008 B(  7-O , 15-H ) :   0.6262 
B(  9-H , 10-H ) :  -0.1032 


                     *******************************
                     * LOEWDIN POPULATION ANALYSIS *
                     *******************************

----------------------
LOEWDIN ATOMIC CHARGES
----------------------
   0 C :   -0.265346
   1 C :   -0.170040
   2 C :   -0.117351
   3 C :   -0.159137
   4 C :   -0.139714
   5 C :   -0.122378
   6 C :   -0.228181
   7 O :    0.066445
   8 H :    0.130727
   9 H :    0.125164
  10 H :    0.125160
  11 H :    0.143215
  12 H :    0.139986
  13 H :    0.141986
  14 H :    0.147365
  15 H :    0.182103

-------------------------------
LOEWDIN REDUCED ORBITAL CHARGES
-------------------------------
  0 C s       :     2.813228  s :     2.813228
      pz      :     1.063248  p :     3.165411
      px      :     1.040687
      py      :     1.061475
      dz2     :     0.032609  d :     0.261531
      dxz     :     0.096485
      dyz     :     0.011587
      dx2y2   :     0.076549
      dxy     :     0.044302
      f0      :     0.002128  f :     0.025177
      f+1     :     0.003878
      f-1     :     0.002680
      f+2     :     0.001679
      f-2     :     0.004555
      f+3     :     0.005868
      f-3     :     0.004389

  1 C s       :     2.709395  s :     2.709395
      pz      :     0.879579  p :     2.897709
      px      :     1.006062
      py      :     1.012069
      dz2     :     0.033091  d :     0.506328
      dxz     :     0.075775
      dyz     :     0.069231
      dx2y2   :     0.169650
      dxy     :     0.158580
      f0      :     0.004175  f :     0.056609
      f+1     :     0.004068
      f-1     :     0.004348
      f+2     :     0.007648
      f-2     :     0.006003
      f+3     :     0.021381
      f-3     :     0.008987

  2 C s       :     2.756785  s :     2.756785
      pz      :     0.886907  p :     2.925452
      px      :     1.054999
      py      :     0.983546
      dz2     :     0.025436  d :     0.392430
      dxz     :     0.089703
      dyz     :     0.011126
      dx2y2   :     0.165501
      dxy     :     0.100664
      f0      :     0.003001  f :     0.042684
      f+1     :     0.004230
      f-1     :     0.003104
      f+2     :     0.001407
      f-2     :     0.008200
      f+3     :     0.014951
      f-3     :     0.007790

  3 C s       :     2.761506  s :     2.761506
      pz      :     0.916214  p :     2.972077
      px      :     1.008128
      py      :     1.047735
      dz2     :     0.024996  d :     0.382662
      dxz     :     0.029887
      dyz     :     0.060771
      dx2y2   :     0.115103
      dxy     :     0.151906
      f0      :     0.003064  f :     0.042892
      f+1     :     0.003509
      f-1     :     0.004031
      f+2     :     0.006181
      f-2     :     0.002758
      f+3     :     0.015524
      f-3     :     0.007825

  4 C s       :     2.762937  s :     2.762937
      pz      :     0.878187  p :     2.939795
      px      :     1.008322
      py      :     1.053285
      dz2     :     0.024932  d :     0.393446
      dxz     :     0.032063
      dyz     :     0.069205
      dx2y2   :     0.116232
      dxy     :     0.151014
      f0      :     0.003086  f :     0.043537
      f+1     :     0.003436
      f-1     :     0.003998
      f+2     :     0.006565
      f-2     :     0.003198
      f+3     :     0.015497
      f-3     :     0.007757

  5 C s       :     2.758966  s :     2.758966
      pz      :     0.918771  p :     2.957101
      px      :     1.049435
      py      :     0.988895
      dz2     :     0.025434  d :     0.364016
      dxz     :     0.074830
      dyz     :     0.012376
      dx2y2   :     0.149767
      dxy     :     0.101609
      f0      :     0.003164  f :     0.042295
      f+1     :     0.004446
      f-1     :     0.003225
      f+2     :     0.001374
      f-2     :     0.007760
      f+3     :     0.014168
      f-3     :     0.008159

  6 C s       :     2.715340  s :     2.715340
      pz      :     0.854542  p :     2.752911
      px      :     0.893978
      py      :     1.004390
      dz2     :     0.044382  d :     0.666691
      dxz     :     0.120963
      dyz     :     0.093982
      dx2y2   :     0.181603
      dxy     :     0.225762
      f0      :     0.006710  f :     0.093240
      f+1     :     0.007304
      f-1     :     0.005954
      f+2     :     0.008972
      f-2     :     0.015408
      f+3     :     0.033328
      f-3     :     0.015563

  7 O s       :     3.327408  s :     3.327408
      pz      :     1.725881  p :     4.532373
      px      :     1.252669
      py      :     1.553823
      dz2     :     0.008181  d :     0.069183
      dxz     :     0.009530
      dyz     :     0.004425
      dx2y2   :     0.014089
      dxy     :     0.032957
      f0      :     0.000381  f :     0.004592
      f+1     :     0.000808
      f-1     :     0.000298
      f+2     :     0.000093
      f-2     :     0.000471
      f+3     :     0.001253
      f-3     :     0.001287

  8 H s       :     0.809133  s :     0.809133
      pz      :     0.012991  p :     0.060141
      px      :     0.012622
      py      :     0.034528

  9 H s       :     0.814557  s :     0.814557
      pz      :     0.027763  p :     0.060279
      px      :     0.018342
      py      :     0.014174

 10 H s       :     0.814561  s :     0.814561
      pz      :     0.027758  p :     0.060279
      px      :     0.018345
      py      :     0.014177

 11 H s       :     0.799096  s :     0.799096
      pz      :     0.013326  p :     0.057689
      px      :     0.010434
      py      :     0.033929

 12 H s       :     0.801542  s :     0.801542
      pz      :     0.014006  p :     0.058472
      px      :     0.027743
      py      :     0.016723

 13 H s       :     0.800219  s :     0.800219
      pz      :     0.012921  p :     0.057795
      px      :     0.028258
      py      :     0.016617

 14 H s       :     0.793600  s :     0.793600
      pz      :     0.013915  p :     0.059036
      px      :     0.010262
      py      :     0.034859

 15 H s       :     0.663949  s :     0.663949
      pz      :     0.043792  p :     0.153948
      px      :     0.053785
      py      :     0.056371


---------------------------------
LOEWDIN BOND ORDERS (THRESH 0.050000)
---------------------------------
B(  0-C ,  1-C ) :   1.2169 B(  0-C ,  2-C ) :   0.1769 B(  0-C ,  6-C ) :   0.1700 
B(  0-C ,  8-H ) :   0.8883 B(  0-C ,  9-H ) :   0.8932 B(  0-C , 10-H ) :   0.8932 
B(  1-C ,  2-C ) :   1.4944 B(  1-C ,  3-C ) :   0.2309 B(  1-C ,  4-C ) :   0.0993 
B(  1-C ,  5-C ) :   0.2189 B(  1-C ,  6-C ) :   1.3998 B(  1-C ,  7-O ) :   0.1362 
B(  1-C ,  8-H ) :   0.0834 B(  1-C ,  9-H ) :   0.0797 B(  1-C , 10-H ) :   0.0797 
B(  1-C , 11-H ) :   0.0948 B(  2-C ,  3-C ) :   1.5824 B(  2-C ,  4-C ) :   0.2460 
B(  2-C ,  5-C ) :   0.1083 B(  2-C ,  6-C ) :   0.2359 B(  2-C , 11-H ) :   0.8220 
B(  2-C , 12-H ) :   0.0966 B(  3-C ,  4-C ) :   1.5805 B(  3-C ,  5-C ) :   0.2413 
B(  3-C ,  6-C ) :   0.1030 B(  3-C , 11-H ) :   0.0944 B(  3-C , 12-H ) :   0.8328 
B(  3-C , 13-H ) :   0.0946 B(  4-C ,  5-C ) :   1.5877 B(  4-C ,  6-C ) :   0.2442 
B(  4-C , 12-H ) :   0.0951 B(  4-C , 13-H ) :   0.8312 B(  4-C , 14-H ) :   0.0946 
B(  5-C ,  6-C ) :   1.4949 B(  5-C ,  7-O ) :   0.1517 B(  5-C , 13-H ) :   0.0968 
B(  5-C , 14-H ) :   0.8242 B(  6-C ,  7-O ) :   1.6065 B(  6-C , 14-H ) :   0.0981 
B(  6-C , 15-H ) :   0.1004 B(  7-O , 15-H ) :   0.9940 

------------------------------------------
LOEWDIN REDUCED ORBITAL POPULATIONS PER MO
-------------------------------------------
THRESHOLD FOR PRINTING IS 0.1%%
                      0         1         2         3         4         5   
                 -21.70156 -12.11013 -12.06051 -12.05864 -12.05204 -12.05077
                   2.00000   2.00000   2.00000   2.00000   2.00000   2.00000
                  --------  --------  --------  --------  --------  --------
 0 C  s               0.0       0.0      14.6      84.8       0.1       0.0
 1 C  s               0.0       0.1      83.2      13.9       1.6       0.0
 1 C  dx2y2           0.0       0.2       0.0       0.0       0.1       0.0
 1 C  dxy             0.0       0.0       0.0       0.1       0.1       0.0
 2 C  s               0.0       0.0       1.1       0.7      95.9       0.0
 2 C  dxy             0.0       0.0       0.1       0.0       0.0       0.0
 3 C  s               0.0       0.0       0.0       0.0       1.2       1.7
 3 C  dx2y2           0.0       0.0       0.0       0.0       0.1       0.2
 3 C  dxy             0.0       0.0       0.0       0.0       0.1       0.0
 4 C  s               0.0       0.0       0.0       0.0       0.1      94.7
 5 C  s               0.0       0.0       0.0       0.0       0.0       2.5
 5 C  dxy             0.0       0.2       0.0       0.0       0.0       0.2
 6 C  s               0.0      98.9       0.0       0.0       0.0       0.0
 6 C  dx2y2           0.0       0.0       0.2       0.0       0.0       0.0
 7 O  s              99.8       0.0       0.0       0.0       0.0       0.0

                      6         7         8         9        10        11   
                 -12.04453 -12.04291  -1.71355  -1.38574  -1.29963  -1.27747
                   2.00000   2.00000   2.00000   2.00000   2.00000   2.00000
                  --------  --------  --------  --------  --------  --------
 0 C  s               0.0       0.0       0.0       2.3      11.0       0.0
 0 C  px              0.0       0.0       0.0       1.5       1.7       0.0
 0 C  py              0.0       0.0       0.2       0.4       0.5       0.1
 0 C  dz2             0.0       0.0       0.0       0.1       0.2       0.0
 0 C  dx2y2           0.0       0.0       0.0       0.1       0.1       0.0
 0 C  dxy             0.0       0.0       0.0       0.2       0.3       0.0
 1 C  s               0.0       0.0       0.4      13.6      13.9       0.0
 1 C  px              0.0       0.0       0.2       1.6       1.6       2.0
 1 C  py              0.0       0.0       1.2       0.4       1.0       5.5
 1 C  dz2             0.0       0.0       0.1       0.7       0.3       0.0
 1 C  dx2y2           0.0       0.0       0.2       0.0       0.0       1.6
 1 C  dxy             0.0       0.0       0.2       0.0       0.0       0.5
 1 C  f-3             0.0       0.0       0.0       0.1       0.2       0.0
 2 C  s               0.1       1.2       0.0      10.9       1.6      10.8
 2 C  px              0.0       0.1       0.0       0.1       6.8       2.8
 2 C  py              0.0       0.0       0.0       3.1       0.1       0.3
 2 C  dz2             0.0       0.1       0.0       0.6       0.0       0.2
 2 C  dx2y2           0.0       0.1       0.0       0.1       0.3       0.3
 2 C  dxy             0.0       0.1       0.0       0.0       1.0       0.7
 2 C  f-3             0.0       0.1       0.0       0.1       0.0       0.1
 3 C  s               3.4      92.7       0.0       8.9       3.7      13.5
 3 C  px              0.0       0.0       0.0       2.5       0.4       1.2
 3 C  py              0.0       0.0       0.0       0.6       3.9       0.5
 3 C  dz2             0.0       0.0       0.0       0.5       0.1       0.2
 3 C  dx2y2           0.0       0.0       0.0       0.0       1.0       0.0
 3 C  dxy             0.0       0.0       0.0       0.0       0.1       0.6
 3 C  f-3             0.0       0.0       0.0       0.1       0.0       0.1
 4 C  s               1.8       2.4       0.0       8.7      13.0       0.6
 4 C  px              0.1       0.0       0.1       2.3       0.9       1.6
 4 C  py              0.0       0.1       0.0       0.7       0.1       6.5
 4 C  dz2             0.0       0.1       0.0       0.5       0.3       0.0
 4 C  dx2y2           0.1       0.2       0.0       0.0       0.0       1.6
 4 C  dxy             0.2       0.0       0.0       0.0       0.3       0.4
 4 C  f-3             0.0       0.1       0.0       0.1       0.1       0.0
 5 C  s              93.6       2.8       0.4       9.4       7.4       8.1
 5 C  px              0.0       0.0       1.3       0.0       2.5       3.6
 5 C  py              0.0       0.0       0.0       3.2       0.4       0.3
 5 C  dz2             0.0       0.0       0.1       0.5       0.2       0.1
 5 C  dx2y2           0.0       0.0       0.3       0.0       0.2       0.3
 5 C  dxy             0.0       0.0       0.0       0.0       0.8       0.8
 6 C  s               0.0       0.0       6.9       9.9       0.2      11.3
 6 C  px              0.1       0.0       7.8       3.5       2.7       1.6
 6 C  py              0.0       0.0       2.8       2.0       7.1       0.9
 6 C  dz2             0.1       0.0       1.2       0.4       0.0       0.0
 6 C  dx2y2           0.1       0.0       0.7       0.2       1.6       0.0
 6 C  dxy             0.1       0.0       2.7       0.2       0.0       1.0
 6 C  f+1             0.0       0.0       0.2       0.0       0.0       0.0
 6 C  f-3             0.1       0.0       0.5       0.1       0.0       0.1
 7 O  s               0.0       0.0      56.7       0.9       0.1       1.1
 7 O  px              0.0       0.0       0.1       1.9       0.0       8.9
 7 O  py              0.0       0.0       1.2       0.3       0.3       0.4
 7 O  dxy             0.0       0.0       0.0       0.1       0.0       0.3
 8 H  s               0.0       0.0       0.0       0.4       2.1       0.0
 8 H  py              0.0       0.0       0.0       0.0       0.2       0.0
 9 H  s               0.0       0.0       0.0       0.4       2.1       0.0
 9 H  pz              0.0       0.0       0.0       0.0       0.1       0.0
10 H  s               0.0       0.0       0.0       0.4       2.1       0.0
10 H  pz              0.0       0.0       0.0       0.0       0.1       0.0
11 H  s               0.0       0.0       0.0       1.3       0.3       1.9
11 H  py              0.0       0.0       0.0       0.1       0.0       0.2
12 H  s               0.0       0.0       0.0       1.0       0.5       2.2
12 H  px              0.0       0.0       0.0       0.0       0.0       0.2
13 H  s               0.0       0.0       0.0       1.0       1.9       0.1
13 H  px              0.0       0.0       0.0       0.0       0.2       0.0
14 H  s               0.0       0.0       0.1       1.1       1.1       1.3
14 H  py              0.0       0.0       0.0       0.1       0.1       0.2
15 H  s               0.0       0.0      11.0       0.5       0.0       2.2
15 H  px              0.0       0.0       2.0       0.0       0.0       0.1
15 H  py              0.0       0.0       1.0       0.1       0.0       0.2

                     12        13        14        15        16        17   
                  -1.20733  -1.14195  -1.11069  -1.05392  -1.00146  -0.94495
                   2.00000   2.00000   2.00000   2.00000   2.00000   2.00000
                  --------  --------  --------  --------  --------  --------
 0 C  s              20.6       3.5       1.9       0.9       0.0       0.0
 0 C  pz              0.0       0.0       0.0       0.0       0.0       0.3
 0 C  px              0.3       0.8       0.2       3.3       0.1       0.0
 0 C  py              0.0       0.2       1.9       0.1       0.3       0.0
 0 C  dx2y2           0.0       0.1       0.2       0.5       0.1       0.0
 0 C  dxy             0.0       0.0       0.4       0.0       0.0       0.0
 1 C  s               0.1       2.0       1.6       1.8       0.6       0.0
 1 C  pz              0.0       0.0       0.0       0.0       0.0       0.8
 1 C  px             11.8       3.7       1.3       1.0       0.6       0.0
 1 C  py              2.1       0.0      13.4       5.8       0.0       0.0
 1 C  dyz             0.0       0.0       0.0       0.0       0.0       0.4
 1 C  dx2y2           0.4       0.0       0.7       0.0       0.0       0.0
 1 C  dxy             1.8       0.0       0.0       1.3       1.1       0.0
 2 C  s               5.0       0.2       6.2       0.4       1.4       0.0
 2 C  px              0.2       6.4       0.0      13.3       2.2       0.0
 2 C  py              0.2       0.0       2.4       0.3       2.9       0.0
 2 C  dx2y2           0.0       0.1       0.1       0.0       0.0       0.0
 2 C  dxy             0.2       0.9       0.1       0.2       0.0       0.0
 3 C  s               0.0       6.0       0.7       3.0       0.2       0.0
 3 C  pz              0.0       0.0       0.0       0.0       0.0       0.1
 3 C  px              1.8       0.9       3.1       0.2       1.1       0.0
 3 C  py              5.0       0.1       6.1       5.0       4.5       0.0
 3 C  dx2y2           0.9       0.1       0.2       0.1       0.0       0.0
 3 C  dxy             0.2       0.1       0.1       0.1       0.2       0.0
 4 C  s               7.3       0.0       1.8       5.3       0.1       0.0
 4 C  px              0.2       2.1       2.9       1.5       0.4       0.0
 4 C  py              0.6       5.7       3.9       2.7       7.4       0.0
 4 C  dx2y2           0.0       0.6       0.2       0.0       0.0       0.0
 4 C  dxy             0.3       0.1       0.1       0.0       0.0       0.0
 5 C  s               1.2       2.4       5.9       0.8       0.6       0.0
 5 C  pz              0.0       0.0       0.0       0.0       0.0       0.6
 5 C  px              6.1       1.9       0.7       9.6       6.0       0.0
 5 C  py              0.0       0.1       2.1       0.2       2.0       0.0
 5 C  dxz             0.0       0.0       0.0       0.0       0.0       0.4
 5 C  dx2y2           0.0       0.3       0.1       0.7       0.1       0.0
 5 C  dxy             0.8       0.1       0.0       0.8       0.1       0.0
 5 C  f+3             0.0       0.2       0.0       0.0       0.0       0.0
 6 C  s               2.6       0.9       1.3       1.4       0.1       0.0
 6 C  pz              0.0       0.0       0.0       0.0       0.0      11.6
 6 C  px              0.1       5.4       3.4       6.8       7.2       0.0
 6 C  py              0.0       5.1      15.6       0.2       0.3       0.0
 6 C  dxz             0.0       0.0       0.0       0.0       0.0       2.8
 6 C  dyz             0.0       0.0       0.0       0.0       0.0       1.0
 6 C  dx2y2           0.4       0.1       0.1       0.3       1.6       0.0
 6 C  dxy             0.5       0.2       0.0       2.2       0.6       0.0
 6 C  f0              0.0       0.0       0.0       0.0       0.0       0.3
 6 C  f-2             0.0       0.0       0.0       0.0       0.0       0.4
 6 C  f+3             0.0       0.1       0.0       0.1       0.2       0.0
 7 O  s               0.1       0.1       0.9       0.5       4.1       0.0
 7 O  pz              0.0       0.0       0.0       0.0       0.0      78.8
 7 O  px              4.7      31.9       0.5      11.8       0.5       0.0
 7 O  py              0.1       0.0       6.9       1.7      45.3       0.0
 7 O  dz2             0.0       0.0       0.0       0.0       0.1       0.0
 7 O  dx2y2           0.0       0.0       0.1       0.1       0.0       0.0
 7 O  dxy             0.1       0.6       0.0       0.2       0.0       0.0
 8 H  s               5.6       1.2       1.5       0.3       0.0       0.0
 8 H  py              0.6       0.1       0.1       0.0       0.0       0.0
 9 H  s               5.8       1.3       0.6       1.1       0.0       0.1
 9 H  pz              0.4       0.1       0.0       0.1       0.0       0.0
 9 H  px              0.2       0.0       0.0       0.0       0.0       0.0
10 H  s               5.8       1.3       0.6       1.1       0.0       0.1
10 H  pz              0.4       0.1       0.0       0.1       0.0       0.0
10 H  px              0.2       0.0       0.0       0.0       0.0       0.0
11 H  s               0.9       0.0       3.6       0.4       2.6       0.0
11 H  px              0.0       0.0       0.0       0.1       0.0       0.0
11 H  py              0.1       0.0       0.4       0.0       0.2       0.0
12 H  s               0.0       2.3       0.3       1.9       0.0       0.0
12 H  px              0.0       0.2       0.0       0.2       0.0       0.0
12 H  py              0.0       0.1       0.1       0.0       0.1       0.0
13 H  s               1.8       0.0       0.8       4.5       0.4       0.0
13 H  px              0.2       0.0       0.0       0.3       0.1       0.0
13 H  py              0.0       0.0       0.1       0.1       0.0       0.0
14 H  s               0.2       0.4       3.2       0.1       1.3       0.0
14 H  py              0.0       0.1       0.3       0.0       0.1       0.0
15 H  s               1.4       8.0       0.4       4.7       1.6       0.0
15 H  pz              0.0       0.0       0.0       0.0       0.0       1.9
15 H  px              0.0       0.1       0.1       0.0       0.3       0.0
15 H  py              0.1       0.6       0.0       0.1       0.5       0.0

                     18        19        20        21        22        23   
                  -0.94313  -0.93860  -0.89611  -0.87479  -0.85154  -0.84403
                   2.00000   2.00000   2.00000   2.00000   2.00000   2.00000
                  --------  --------  --------  --------  --------  --------
 0 C  s               0.2       0.2       0.1       0.1       0.0       0.0
 0 C  pz              0.0       0.0       0.0       0.0      49.0       0.0
 0 C  px              5.4       3.0       8.2      10.4       0.0       2.4
 0 C  py              0.0       5.3       1.4       2.1       0.0      27.6
 0 C  dz2             0.1       0.0       0.1       0.1       0.0       0.4
 0 C  dxz             0.0       0.0       0.0       0.0       1.0       0.0
 0 C  dyz             0.0       0.0       0.0       0.0       0.4       0.0
 0 C  dx2y2           0.1       0.0       0.1       0.0       0.0       0.8
 0 C  dxy             0.0       0.6       0.1       0.1       0.0       0.0
 1 C  s               0.3       1.3       0.8       0.0       0.0       0.0
 1 C  pz              0.0       0.0       0.0       0.0       8.8       0.0
 1 C  px              0.1       7.6       1.5      10.8       0.0       1.7
 1 C  py              6.3       2.7       4.4       1.3       0.0       0.2
 1 C  dxz             0.0       0.0       0.0       0.0       1.1       0.0
 1 C  dyz             0.0       0.0       0.0       0.0       0.3       0.0
 1 C  dx2y2           0.3       0.0       1.3       0.3       0.0       1.4
 1 C  dxy             0.0       0.1       0.2       0.3       0.0       0.3
 1 C  f0              0.0       0.0       0.0       0.0       0.1       0.0
 1 C  f+3             0.1       0.0       0.2       0.1       0.0       0.2
 2 C  s               0.1       0.2       1.1       0.2       0.0       0.5
 2 C  pz              0.0       0.0       0.0       0.0       1.6       0.0
 2 C  px              6.4       4.8       0.0       0.5       0.0       0.4
 2 C  py              3.1       1.2      11.6      14.0       0.0       0.9
 2 C  dz2             0.0       0.0       0.0       0.1       0.0       0.0
 2 C  dxz             0.0       0.0       0.0       0.0       0.2       0.0
 2 C  dx2y2           0.3       0.6       1.8       0.3       0.0       0.9
 2 C  dxy             0.1       0.2       0.4       0.3       0.0       0.2
 2 C  f+3             0.0       0.1       0.2       0.1       0.0       0.1
 3 C  s               0.8       0.9       0.9       0.0       0.0       0.3
 3 C  pz              0.0       0.0       0.0       0.0       0.3       0.0
 3 C  px             16.4       2.6       1.5       0.2       0.0       5.6
 3 C  py              0.8      11.2       0.7       0.4       0.0       5.4
 3 C  dz2             0.0       0.0       0.2       0.0       0.0       0.0
 3 C  dx2y2           0.0       0.1       0.3       1.1       0.0       0.5
 3 C  dxy             0.0       0.0       1.0       0.2       0.0       2.1
 3 C  f+3             0.0       0.0       0.0       0.5       0.0       0.0
 4 C  s               0.2       0.2       1.2       0.2       0.0       0.1
 4 C  pz              0.0       0.0       0.0       0.0       0.2       0.0
 4 C  px              9.2       0.5      10.0       8.3       0.0       2.3
 4 C  py              2.8       6.4       3.2       1.2       0.0       3.0
 4 C  dz2             0.0       0.0       0.0       0.1       0.0       0.0
 4 C  dx2y2           0.0       0.1       1.4       0.2       0.0       0.0
 4 C  dxy             0.5       0.3       0.7       0.2       0.0       0.6
 4 C  f+3             0.1       0.0       0.1       0.1       0.0       0.1
 5 C  s               0.5       0.7       0.8       0.3       0.0       0.0
 5 C  pz              0.0       0.0       0.0       0.0       0.3       0.0
 5 C  px             10.3       2.4       1.0       0.2       0.0       3.0
 5 C  py              4.1       5.9       4.4      15.9       0.0       2.2
 5 C  dx2y2           0.0       0.1       1.4       0.5       0.0       0.2
 5 C  dxy             0.2       0.1       0.7       0.2       0.0       0.1
 5 C  f+3             0.0       0.1       0.2       0.1       0.0       0.0
 6 C  s               0.1       0.2       1.6       0.0       0.0       0.0
 6 C  pz              0.0       0.0       0.0       0.0       0.7       0.0
 6 C  px              1.2       0.6       1.7       0.4       0.0       0.2
 6 C  py              4.1       4.2       0.8       0.6       0.0       0.6
 6 C  dz2             0.0       0.0       0.2       0.0       0.0       0.0
 6 C  dyz             0.0       0.0       0.0       0.0       0.5       0.0
 6 C  dx2y2           0.0       1.9       0.0       1.1       0.0       0.2
 6 C  dxy             1.5       0.3       0.1       0.3       0.0       0.7
 6 C  f+3             0.3       0.2       0.0       0.5       0.0       0.0
 7 O  s               0.6       1.1       0.1       0.0       0.0       0.0
 7 O  pz              0.0       0.0       0.0       0.0       1.5       0.0
 7 O  px              1.3       0.0       0.4       0.0       0.0       0.1
 7 O  py              5.0      13.9       1.2       0.0       0.0       0.2
 7 O  dx2y2           0.2       0.1       0.0       0.0       0.0       0.0
 8 H  s               0.0       2.4       0.7       0.6       0.0      15.8
 8 H  pz              0.0       0.0       0.0       0.0       0.6       0.0
 8 H  px              0.1       0.1       0.1       0.2       0.0       0.0
 8 H  py              0.0       0.1       0.0       0.0       0.0       0.4
 9 H  s               1.1       0.4       1.1       1.4      15.9       2.1
 9 H  pz              0.1       0.0       0.1       0.1       0.1       0.1
 9 H  px              0.0       0.0       0.0       0.0       0.4       0.0
 9 H  py              0.0       0.1       0.0       0.1       0.1       0.3
10 H  s               1.1       0.4       1.1       1.4      15.9       2.1
10 H  pz              0.1       0.0       0.1       0.1       0.1       0.1
10 H  px              0.0       0.0       0.0       0.0       0.4       0.0
10 H  py              0.0       0.1       0.0       0.1       0.1       0.3
11 H  s               1.0       0.2      10.3       7.5       0.0       1.6
11 H  py              0.0       0.0       0.3       0.2       0.0       0.1
12 H  s               5.9       6.3       0.2       0.0       0.0       9.0
12 H  px              0.1       0.3       0.0       0.0       0.0       0.2
12 H  py              0.3       0.0       0.0       0.0       0.0       0.0
13 H  s               1.1       1.0      11.2       4.4       0.0       0.5
13 H  px              0.0       0.1       0.3       0.1       0.0       0.0
13 H  py              0.2       0.0       0.1       0.0       0.0       0.1
14 H  s               3.0       4.3       4.5       9.4       0.0       1.4
14 H  px              0.1       0.0       0.0       0.0       0.0       0.1
14 H  py              0.1       0.1       0.2       0.2       0.0       0.0
15 H  s               1.6       1.0       0.1       0.0       0.0       0.3

                     24        25        26        27        28        29   
                  -0.82356  -0.80810  -0.76054  -0.63772  -0.63259  -0.24449
                   2.00000   2.00000   2.00000   2.00000   2.00000   0.00000
                  --------  --------  --------  --------  --------  --------
 0 C  s               0.1       0.1       0.0       0.0       0.0       0.0
 0 C  pz              0.0       0.0       2.9       0.5       0.5       0.0
 0 C  px             14.4       0.2       0.0       0.0       0.0       0.0
 0 C  py              4.7       8.2       0.0       0.0       0.0       0.0
 0 C  dz2             0.3       0.1       0.0       0.0       0.0       0.0
 0 C  dxz             0.0       0.0       1.2       1.4       1.2       2.0
 0 C  dyz             0.0       0.0       0.0       0.0       0.1       0.0
 0 C  dx2y2           0.8       0.9       0.0       0.0       0.0       0.0
 0 C  dxy             0.2       0.0       0.0       0.0       0.0       0.0
 1 C  pz              0.0       0.0       9.6      12.8      12.0      12.9
 1 C  px              4.8       0.1       0.0       0.0       0.0       0.0
 1 C  py              0.0       6.2       0.0       0.0       0.0       0.0
 1 C  dxz             0.0       0.0       1.4       1.3       0.0       0.0
 1 C  dyz             0.0       0.0       0.2       0.7       1.8       2.9
 1 C  dx2y2           0.0       1.9       0.0       0.0       0.0       0.0
 1 C  dxy             1.6       0.2       0.0       0.0       0.0       0.0
 1 C  f0              0.0       0.0       0.0       0.0       0.0       0.2
 1 C  f+2             0.0       0.0       0.0       0.1       0.2       0.2
 1 C  f-2             0.0       0.0       0.1       0.2       0.0       0.0
 1 C  f+3             0.2       0.0       0.0       0.0       0.0       0.0
 2 C  s               0.0       0.1       0.0       0.0       0.0       0.0
 2 C  pz              0.0       0.0      14.8      25.5       2.3       0.4
 2 C  px              8.5       0.1       0.0       0.0       0.0       0.0
 2 C  py              0.9       8.0       0.0       0.0       0.0       0.0
 2 C  dxz             0.0       0.0       0.0       0.3       4.0       4.9
 2 C  dyz             0.0       0.0       0.5       0.0       0.0       0.0
 2 C  dx2y2           0.1       3.3       0.0       0.0       0.0       0.0
 2 C  dxy             0.5       0.1       0.0       0.0       0.0       0.0
 2 C  f-2             0.0       0.0       0.0       0.0       0.4       0.4
 3 C  s               0.2       0.0       0.0       0.0       0.0       0.0
 3 C  pz              0.0       0.0      15.5       1.4      28.5      17.7
 3 C  px             12.6       0.3       0.0       0.0       0.0       0.0
 3 C  py              0.4       7.6       0.0       0.0       0.0       0.0
 3 C  dxz             0.0       0.0       0.4       1.0       0.0       0.2
 3 C  dyz             0.0       0.0       0.2       2.7       0.2       1.6
 3 C  dx2y2           0.2       0.8       0.0       0.0       0.0       0.0
 3 C  dxy             2.6       0.2       0.0       0.0       0.0       0.0
 3 C  f0              0.0       0.0       0.1       0.0       0.0       0.2
 3 C  f+2             0.0       0.0       0.0       0.3       0.0       0.1
 3 C  f-2             0.0       0.0       0.0       0.1       0.0       0.0
 3 C  f+3             0.0       0.1       0.0       0.0       0.0       0.0
 4 C  s               0.2       0.0       0.0       0.0       0.0       0.0
 4 C  pz              0.0       0.0      16.9      15.5      11.3      14.0
 4 C  px              7.0       1.2       0.0       0.0       0.0       0.0
 4 C  py              0.7       7.7       0.0       0.0       0.0       0.0
[...]
 1 C  f+3             0.0       3.0       0.0       0.0       0.2       0.2
 1 C  f-3             0.0       0.0       0.0       0.1       0.0       0.2
 2 C  dxy             0.0       0.3       0.0       0.0       0.0       0.0
 2 C  f+3             0.0       0.4       0.0       0.0       0.0       0.0
 3 C  py              0.0       0.1       0.0       0.0       0.0       0.0
 3 C  f+3             0.0       0.3       0.0       0.0       0.0       0.0
 4 C  px              0.0       0.1       0.0       0.0       0.0       0.0
 4 C  py              0.0       0.2       0.0       0.0       0.0       0.0
 4 C  dx2y2           0.0       0.3       0.0       0.0       0.0       0.0
 4 C  f+3             0.0       0.5       0.0       0.0       0.0       0.0
 4 C  f-3             0.0       0.2       0.0       0.0       0.0       0.0
 5 C  s               0.0       0.1       0.0       0.1       0.5       0.0
 5 C  pz              0.1       0.0       0.0       0.0       0.0       0.0
 5 C  px              0.0       1.2       0.0       0.1       0.0       0.0
 5 C  py              0.0       0.0       0.0       0.0       0.3       0.0
 5 C  dx2y2           0.0       1.0       0.0       0.0       0.0       0.1
 5 C  dxy             0.0       0.5       0.0       0.1       0.0       0.1
 5 C  f+1             0.0       0.1       0.0       0.0       0.0       0.0
 5 C  f+3             0.0       3.0       0.0       0.0       0.0       0.1
 5 C  f-3             0.0       0.0       0.0       0.0       0.1       0.0
 6 C  s               0.0       1.0       0.0       0.7       1.1       0.9
 6 C  pz              0.0       0.0       0.7       0.0       0.0       0.0
 6 C  px              0.0       0.5       0.0       1.0       1.0       0.1
 6 C  py              0.0       0.0       0.0       0.3       1.0       0.0
 6 C  dz2             0.0       0.2       0.0       0.1       0.2       0.1
 6 C  dxz             0.3       0.0       1.2       0.0       0.0       0.0
 6 C  dyz             0.4       0.0       0.6       0.0       0.0       0.0
 6 C  dx2y2           0.0       0.2       0.0       0.6       0.6       1.4
 6 C  dxy             0.0       0.2       0.0       2.6       0.9       0.2
 6 C  f0              0.0       0.0       0.4       0.0       0.0       0.0
 6 C  f+1             0.0       0.0       0.0       0.1       0.2       0.0
 6 C  f+2             0.1       0.0       0.1       0.0       0.0       0.0
 6 C  f-2             0.0       0.0       0.8       0.0       0.0       0.0
 6 C  f+3             0.0      14.1       0.0       0.3       0.0       2.6
 6 C  f-3             0.0       0.1       0.0       0.0       0.7       0.1
 7 O  s               0.0       1.2       0.0       2.3       1.1       2.9
 7 O  pz              0.1       0.0       1.0       0.0       0.0       0.0
 7 O  px              0.0       0.0       0.0       0.5       2.7       1.0
 7 O  py              0.0       0.1       0.0       3.6       0.0       0.1
 7 O  dz2             0.0      14.3       0.0      41.0       7.0       5.1
 7 O  dxz            21.8       0.0      61.3       0.0       0.0       0.0
 7 O  dyz            73.0       0.0      17.9       0.0       0.0       0.0
 7 O  dx2y2           0.0       8.6       0.0      26.7      40.2      15.6
 7 O  dxy             0.0      14.0       0.0       2.2      33.4      33.0
 7 O  f0              2.3       0.0       4.3       0.0       0.0       0.0
 7 O  f+1             0.0       0.0       0.0       0.0       3.0       2.3
 7 O  f-1             0.0       0.1       0.0       7.4       0.0       1.3
 7 O  f+2             0.3       0.0       1.4       0.0       0.0       0.0
 7 O  f-2             0.6       0.0       9.9       0.0       0.0       0.0
 7 O  f+3             0.0      19.6       0.0       0.8       0.1      13.1
 7 O  f-3             0.0       8.2       0.0       5.4       4.3      10.3
15 H  s               0.0       1.1       0.0       2.2       0.2       6.7
15 H  pz              0.5       0.0       0.0       0.0       0.0       0.0
15 H  px              0.0       1.1       0.0       0.3       0.0       0.3
15 H  py              0.0       0.1       0.0       0.0       0.2       0.1

                    288       289       290       291       292       293   
                  20.45584  20.83472  21.02888  21.08104  21.25042  21.26922
                   0.00000   0.00000   0.00000   0.00000   0.00000   0.00000
                  --------  --------  --------  --------  --------  --------
 0 C  s               0.5      89.1       5.3       1.4       0.4       1.1
 1 C  s              11.0       1.7       2.4       0.1       7.7      35.0
 1 C  px              0.1       0.2       0.0       0.1       0.0       0.2
 1 C  py              0.0       0.1       0.0       0.2       0.4       0.0
 1 C  dx2y2           0.0       0.1       0.0       0.1       0.2       0.1
 1 C  dxy             0.0       0.2       0.0       0.0       0.0       0.1
 2 C  s              19.2       3.3      13.4      16.2      26.7      11.7
 2 C  px              0.0       0.0       0.4       0.1       0.0       0.3
 2 C  dxy             0.0       0.0       0.1       0.0       0.0       0.1
 3 C  s              17.9       0.7      29.7      30.2      13.3       2.0
 3 C  py              0.0       0.0       0.1       0.3       0.0       0.0
 4 C  s              19.8       1.8      27.0      31.5      13.1       0.0
 4 C  py              0.0       0.0       0.2       0.3       0.0       0.0
 5 C  s              19.3       0.0      17.3      18.0      20.6      16.1
 5 C  px              0.1       0.0       0.3       0.1       0.1       0.2
 5 C  py              0.1       0.0       0.0       0.0       0.0       0.0
 6 C  s              10.5       1.7       2.7       0.3      16.2      31.9
 6 C  px              0.1       0.0       0.0       0.1       0.1       0.1
 6 C  py              0.0       0.0       0.0       0.2       0.2       0.2
 6 C  dx2y2           0.0       0.0       0.0       0.1       0.1       0.2
 6 C  dxy             0.1       0.0       0.0       0.0       0.1       0.0
 7 O  s               0.2       0.0       0.0       0.0       0.0       0.1
 8 H  s               0.0       0.2       0.0       0.0       0.0       0.0
 8 H  py              0.0       0.1       0.0       0.0       0.0       0.0
 9 H  s               0.0       0.2       0.0       0.0       0.0       0.0
10 H  s               0.0       0.2       0.0       0.0       0.0       0.0
11 H  s               0.1       0.0       0.0       0.0       0.1       0.0
13 H  s               0.1       0.0       0.1       0.1       0.0       0.0

                    294       295   
                  21.73997  41.58500
                   0.00000   0.00000
                  --------  --------
 0 C  s               0.2       0.0
 1 C  s              40.6       0.0
 2 C  s               7.5       0.0
 3 C  s               4.3       0.0
 4 C  s               4.8       0.0
 5 C  s               6.6       0.0
 6 C  s              34.4       0.0
 7 O  s               0.1      99.7
 7 O  px              0.1       0.0


                      *****************************
                      * MAYER POPULATION ANALYSIS *
                      *****************************

  NA   - Mulliken gross atomic population
  ZA   - Total nuclear charge
  QA   - Mulliken gross atomic charge
  VA   - Mayer's total valence
  BVA  - Mayer's bonded valence
  FA   - Mayer's free valence

  ATOM       NA         ZA         QA         VA         BVA        FA
  0 C      6.4598     6.0000    -0.4598     3.8876     3.8876     0.0000
  1 C      5.8852     6.0000     0.1148     3.5073     3.5073    -0.0000
  2 C      6.1780     6.0000    -0.1780     3.9643     3.9643     0.0000
  3 C      6.1344     6.0000    -0.1344     3.9699     3.9699    -0.0000
  4 C      6.1048     6.0000    -0.1048     3.9651     3.9651     0.0000
  5 C      6.2097     6.0000    -0.2097     3.9532     3.9532    -0.0000
  6 C      5.8232     6.0000     0.1768     4.0442     4.0442     0.0000
  7 O      8.3889     8.0000    -0.3889     2.0984     2.0984    -0.0000
  8 H      0.8736     1.0000     0.1264     0.9851     0.9851    -0.0000
  9 H      0.8617     1.0000     0.1383     0.9555     0.9555    -0.0000
 10 H      0.8617     1.0000     0.1383     0.9555     0.9555     0.0000
 11 H      0.8892     1.0000     0.1108     0.9740     0.9740    -0.0000
 12 H      0.8856     1.0000     0.1144     0.9715     0.9715    -0.0000
 13 H      0.8835     1.0000     0.1165     0.9693     0.9693     0.0000
 14 H      0.8797     1.0000     0.1203     0.9859     0.9859    -0.0000
 15 H      0.6810     1.0000     0.3190     0.9127     0.9127    -0.0000

  Mayer bond orders larger than 0.100000
B(  0-C ,  1-C ) :   0.8832 B(  0-C ,  8-H ) :   0.9818 B(  0-C ,  9-H ) :   0.9826 
B(  0-C , 10-H ) :   0.9826 B(  1-C ,  2-C ) :   1.3864 B(  1-C ,  6-C ) :   1.2970 
B(  2-C ,  3-C ) :   1.4508 B(  2-C , 11-H ) :   0.9605 B(  3-C ,  4-C ) :   1.4300 
B(  3-C , 12-H ) :   0.9761 B(  4-C ,  5-C ) :   1.4364 B(  4-C , 13-H ) :   0.9750 
B(  5-C ,  6-C ) :   1.4410 B(  5-C , 14-H ) :   0.9724 B(  6-C ,  7-O ) :   1.1591 
B(  7-O , 15-H ) :   0.8861 

-------
TIMINGS
-------

Total SCF time: 0 days 0 hours 2 min 11 sec 

Total time                  ....     131.301 sec
Sum of individual times     ....     127.521 sec  ( 97.1%)

SCF preparation             ....       0.211 sec  (  0.2%)
Fock matrix formation       ....     125.343 sec  ( 95.5%)
  Startup                   ....       0.054 sec  (  0.0% of F)
  Split-RI-J                ....       4.196 sec  (  3.3% of F)
  Chain of spheres X        ....     109.506 sec  ( 87.4% of F)
  XC integration            ....      12.910 sec  ( 10.3% of F)
    XC Preparation          ....       0.000 sec  (  0.0% of XC)
    Basis function eval.    ....       2.706 sec  ( 21.0% of XC)
    Density eval.           ....       2.168 sec  ( 16.8% of XC)
    XC-Functional eval.     ....       2.436 sec  ( 18.9% of XC)
    XC-Potential eval.      ....       3.459 sec  ( 26.8% of XC)
Diagonalization             ....       0.000 sec  (  0.0%)
Density matrix formation    ....       0.203 sec  (  0.2%)
Total Energy calculation    ....       0.040 sec  (  0.0%)
Population analysis         ....       0.174 sec  (  0.1%)
Orbital Transformation      ....       0.073 sec  (  0.1%)
Orbital Orthonormalization  ....       0.000 sec  (  0.0%)
DIIS solution               ....       1.132 sec  (  0.9%)
  MO trafo                  ....       0.000 sec  (  0.0 % of DIIS)
  Orb grad                  ....       0.000 sec  (  0.0 % of DIIS)
  Energy W gradient         ....       0.000 sec  (  0.0 % of DIIS)
  DIIS error                ....       0.013 sec  (  1.1 % of DIIS)
  DIIS work                 ....       1.072 sec  ( 94.7 % of DIIS)
  Form Q                    ....       0.000 sec  (  0.0 % of DIIS)
  Form QpQm                 ....       0.000 sec  (  0.0 % of DIIS)
  Exp/Cayley                ....       0.000 sec  (  0.0 % of DIIS)
  Orb update                ....       0.000 sec  (  0.0 % of DIIS)
  Wake-sleep                ....       0.011 sec  (  1.0 % of DIIS)
SOSCF solution              ....       0.186 sec  (  0.1%)
  MO trafo                  ....       0.080 sec  ( 42.8 % of SOSCF)
  Orb grad                  ....       0.003 sec  (  1.4 % of SOSCF)
  Rot update                ....       0.046 sec  ( 24.9 % of SOSCF)
  Step                      ....       0.057 sec  ( 30.7 % of SOSCF)
Grid generation             ....       0.159 sec  (  0.1%)
Finished LeanSCF after 131.4 sec

Maximum memory used throughout the entire LEANSCF-calculation: 39.1 MB
------------------   -----------------
gCP correction             0.009057675
------------------   -----------------

-------------------------   --------------------
FINAL SINGLE POINT ENERGY      -346.804143382248
-------------------------   --------------------


------------------------------------------------------------------------------
                              ORCA PROPERTY CALCULATIONS
------------------------------------------------------------------------------

GBWName                                 ... sp_gas.gbw
Number of atoms                         ...     16
Number of basis functions               ...    296
Max core memory                         ...   1024 MB

Electric properties:
Dipole moment                           ... YES
Quadrupole moment                       ...  NO
Static polarizability (Dipole/Dipole)   ...  NO
Static polarizability (Dipole/Quad.)    ...  NO
Static polarizability (Quad./Quad.)     ...  NO
Static polarizability (Velocity)        ...  NO

Atomic electric properties:
Dipole moment                           ...  NO
Quadrupole moment                       ...  NO
Static polarizability                   ...  NO

Choice of electric origin               ... Center of mass
Position of electric origin             ...     0.003562    -0.001339    -0.000015

General magnetic properties:
Magnetizability                         ...  NO

EPR properties:
g-Tensor (aka g-matrix)                 ...  NO
Zero-Field splitting spin-orbit         ...  NO
Zero-field splitting spin-spin          ...  NO
Hyperfine couplings                     ...  NO (   0 nuclei)
Quadrupole couplings                    ...  NO (   0 nuclei)
Contact density                         ...  NO (   0 nuclei)

NMR properties:
Chemical shifts                         ...  NO (   0 nuclei)
Spin-rotation constants                 ...  NO (   0 nuclei)
Spin-spin couplings                     ...  NO (   0 nuclei,    0 pairs)

Choice of magnetic origin               ... GIAO
Position of magnetic origin             ...     0.000000     0.000000     0.000000

Properties with geometric perturbations:
SCF Hessian                             ...  NO
IR spectrum                             ...  NO
VCD spectrum                            ...  NO
X-ray spectroscopy properties:
SCF XES/XAS/RIXS spectra                ...  NO


-------------
DIPOLE MOMENT
-------------

Method             : SCF
Type of density    : Electron Density
Multiplicity       :   1
Irrep              :   0
Energy             :  -346.8132010570479906 Eh
Relativity type    : 
Basis              : AO
                                X                 Y                 Z
Electronic contribution:      1.475190877       3.322330076       0.000081606
Nuclear contribution   :     -1.826536180      -3.895241096      -0.000083334
                        -----------------------------------------
Total Dipole Moment    :     -0.351345303      -0.572911020      -0.000001728
                        -----------------------------------------
Magnitude (a.u.)       :      0.672064400
Magnitude (Debye)      :      1.708251949



--------------------
Rotational spectrum 
--------------------
 
Rotational constants in cm-1:             0.108529             0.073396             0.044146 
Rotational constants in MHz :          3253.606022          2200.360370          1323.476459 

Dipole components along the rotational axes: 
x,y,z [a.u.] :    -0.365568    -0.563942     0.000018 
x,y,z [Debye]:    -0.929201    -1.433426     0.000047 

 

Dipole moment calculation done in   0.0 sec 

Maximum memory used throughout the entire PROP-calculation: 24.4 MB

--------------------------------
SUGGESTED CITATIONS FOR THIS RUN
--------------------------------

Below you find a list of papers that are relevant to this ORCA run
We neither can nor want to force you to cite these papers, but we appreciate if you do
You receive ORCA, which is the product of decades of hard work by many enthusiastic individuals, for free
The only thing we kindly ask in return is that you cite our papers,
We deeply appreciate it, if you show your appreciation for ORCA by not just citing the generic ORCA reference.

Please note that relegating all ORCA citations to the supporting information does *not* help us.
SI sections are not indexed - citations you put there will not count into any citation statistics
But we need these citations in order to attract the funding resources that allow us to do what we are doing

Therefore, if you are a happy ORCA user, please consider citing a few of the papers listed below in the main body of your paper

In addition to the list printed below, the program has created the file sp_gas.bibtex that contains the list in bibtex format
You can import this file easily into all common literature databanks and citation aid programs


List of essential papers. We consider these as the minimum necessary citations

  1. Neese,F.
     Software update: the ORCA program system, version 5.0
     WIRES Comput. Molec. Sci., 2022 12(1)e1606
     doi.org/10.1002/wcms.1606

List of papers to cite with high priority. The work reported in these papers was absolutely
necessary for this run to complete.
Our perspective: the developers of density functionals and basis sets usually get cited in chemistry papers
Good! But without the algorithms to do something with them, the functionals or basis sets would not do anything.
Hence, in our opinion, the algorithm design and method developments papers are equally worthy of getting cited

  1. Neese,F.
     An improvement of the resolution of the identity approximation for the formation of the Coulomb matrix
     J. Comp. Chem., 2003 24(14)1740-1747
     doi.org/10.1002/jcc.10318
  2. Neese,F.; Wennmohs,F.; Hansen,A.; Becker,U.
     Efficient, approximate and parallel Hartree-Fock and hybrid DFT calculations. A 'chain-of-spheres' algorithm for the Hartree-Fock exchange
     Chem. Phys., 2009 356(1-3)98-109
     doi.org/10.1016/j.chemphys.2008.10.036
  3. Helmich-Paris,B.; de Souza,B.; Neese,F.; Izsák,R.
     An improved chain of spheres for exchange algorithm
     J. Chem. Phys., 2021 155 104109
     doi.org/doi: 10.1063/5.0058766.
  4. Neese,F.
     The SHARK Integral Generation and Digestion System
     J. Comp. Chem., 2022  1-16
     doi.org/10.1002/jcc.26942

List of suggested additional citations. These are papers that are important in the 'surrounding' of 
of this run, or papers that preceded the highly important papers. If you like your results we are grateful for a citation.

  1. Izsak,R.; Neese,F.
     An overlap fitted chain of spheres exchange method
     J. Chem. Phys., 2011 135 144105
     doi.org/10.1063/1.3646921
  2. Izsak,R.; Hansen,A.; Neese,F.
     The resolution of identity and chain of spheres approximations for the LPNO-CCSD singles Fock term
     Molec. Phys., 2012 110 2413-2417
     doi.org/10.1080/00268976.2012.687466
  3. Neese,F.
     The ORCA program system
     WIRES Comput. Molec. Sci., 2012 2(1)73-78
     doi.org/10.1002/wcms.81
  4. Izsak,R.; Neese,F.; Klopper,W.
     Robust fitting techniques in the chain of spheres approximation to the Fock exchange: The role of the complementary space
     J. Chem. Phys., 2013 139 
     doi.org/10.1063/1.4819264
  5. Neese,F.
     Software update: the ORCA program system, version 4.0
     WIRES Comput. Molec. Sci., 2018 8(1)1-6
     doi.org/10.1002/wcms.1327
  6. Neese,F.; Wennmohs,F.; Becker,U.; Riplinger,C.
     The ORCA quantum chemistry program package
     J. Chem. Phys., 2020 152 Art. No. L224108
     doi.org/10.1063/5.0004608

List of optional additional citations

  1. Neese,F.
     Approximate second-order SCF convergence for spin unrestricted wavefunctions
     Chem. Phys. Lett., 2000 325(1-3)93-98
     doi.org/10.1016/s0009-2614(00)00662-x

Timings for individual modules:

Sum of individual times          ...      135.099 sec (=   2.252 min)
Startup calculation              ...        2.718 sec (=   0.045 min)   2.0 %
SCF iterations                   ...      132.273 sec (=   2.205 min)  97.9 %
Property calculations            ...        0.107 sec (=   0.002 min)   0.1 %
                             ****ORCA TERMINATED NORMALLY****
TOTAL RUN TIME: 0 days 0 hours 2 minutes 15 seconds 948 msec
