      -----------------------------------------------------------      
     |                   =====================                   |     
     |                           x T B                           |     
     |                   =====================                   |     
     |                         S. Grimme                         |     
     |          Mulliken Center for Theoretical Chemistry        |     
     |                    University of Bonn                     |     
      -----------------------------------------------------------      

   * xtb version 6.7.1 (edcfbbe) compiled by 'albert@albert-system' on 2024-07-22

   xtb is free software: you can redistribute it and/or modify it under
   the terms of the GNU Lesser General Public License as published by
   the Free Software Foundation, either version 3 of the License, or
   (at your option) any later version.
   
   xtb is distributed in the hope that it will be useful,
   but WITHOUT ANY WARRANTY; without even the implied warranty of
   MERCHANTABILITY or FITNESS FOR A PARTICULAR PURPOSE.  See the
   GNU Lesser General Public License for more details.
   
   Cite this work as:
   * C. Bannwarth, E. Caldeweyher, S. Ehlert, A. Hansen, P. Pracht,
     J. Seibert, S. Spicher, S. Grimme, WIREs Comput. Mol. Sci., 2020, 11,
     e01493. DOI: 10.1002/wcms.1493
   
   for GFN2-xTB:
   * C. Bannwarth, S. Ehlert and S. Grimme., J. Chem. Theory Comput., 2019,
     15, 1652-1671. DOI: 10.1021/acs.jctc.8b01176
   for GFN1-xTB:
   * S. Grimme, C. Bannwarth, P. Shushkov, J. Chem. Theory Comput., 2017,
     13, 1989-2009. DOI: 10.1021/acs.jctc.7b00118
   for GFN0-xTB:
   * P. Pracht, E. Caldeweyher, S. Ehlert, S. Grimme, ChemRxiv, 2019, preprint.
     DOI: 10.26434/chemrxiv.8326202.v1
   for GFN-FF:
   * S. Spicher and S. Grimme, Angew. Chem. Int. Ed., 2020, 59, 15665-15673.
     DOI: 10.1002/anie.202004239
   
   for ALPB and GBSA implicit solvation:
   * S. Ehlert, M. Stahn, S. Spicher, S. Grimme, J. Chem. Theory Comput.,
     2021, 17, 4250-4261. DOI: 10.1021/acs.jctc.1c00471
   
   for ddCOSMO and CPCM-X implicit solvation:
   * M. Stahn, S. Ehlert, S. Grimme, J. Phys. Chem. A,
     2023, XX, XXXX-XXXX. DOI: 10.1021/acs.jpca.3c04382
   
   for DFT-D4:
   * E. Caldeweyher, C. Bannwarth and S. Grimme, J. Chem. Phys., 2017,
     147, 034112. DOI: 10.1063/1.4993215
   * E. Caldeweyher, S. Ehlert, A. Hansen, H. Neugebauer, S. Spicher,
     C. Bannwarth and S. Grimme, J. Chem. Phys., 2019, 150, 154122.
     DOI: 10.1063/1.5090222
   * E. Caldeweyher, J.-M. Mewes, S. Ehlert and S. Grimme, Phys. Chem. Chem. Phys.
     2020, 22, 8499-8512. DOI: 10.1039/D0CP00502A
   
   for sTDA-xTB:
   * S. Grimme and C. Bannwarth, J. Chem. Phys., 2016, 145, 054103.
     DOI: 10.1063/1.4959605
   
   in the mass-spec context:
   * V. Asgeirsson, C. Bauer and S. Grimme, Chem. Sci., 2017, 8, 4879.
     DOI: 10.1039/c7sc00601b
   * J. Koopman and S. Grimme, ACS Omega 2019, 4, 12, 15120-15133.
     DOI: 10.1021/acsomega.9b02011
   
   for metadynamics refer to:
   * S. Grimme, J. Chem. Theory Comput., 2019, 155, 2847-2862
     DOI: 10.1021/acs.jctc.9b00143
   
   for SPH calculations refer to:
   * S. Spicher and S. Grimme, J. Chem. Theory Comput., 2021, 17, 1701-1714
     DOI: 10.1021/acs.jctc.0c01306
   
   for ONIOM refer to:
   * C. Plett, A. Katbashev, S. Ehlert, S. Grimme, M. Bursch,
     Phys. Chem. Chem. Phys., 2023, 25, 17860-17868. DOI: 10.1039/D3CP02178E
   
   for DIPRO refer to:
   * J. Kohn, N. Gildemeister, S. Grimme, D. Fazzi, A. Hansen,
     J. Chem. Phys., 2023, just accepted.
   
   for PTB refer to:
   * S. Grimme, M. Mueller, A. Hansen, J. Chem. Phys., 2023, 158, 124111.
     DOI: 10.1063/5.0137838
   
   with help from (in alphabetical order)
   P. Atkinson, C. Bannwarth, F. Bohle, G. Brandenburg, E. Caldeweyher
   M. Checinski, S. Dohm, S. Ehlert, S. Ehrlich, I. Gerasimov, C. Hölzer
   A. Katbashev, J. Kohn, J. Koopman, C. Lavigne, S. Lehtola, F. März, M. Müller,
   F. Musil, H. Neugebauer, J. Pisarek, C. Plett, P. Pracht, F. Pultar,
   J. Seibert, P. Shushkov, S. Spicher, M. Stahn, M. Steiner, T. Strunk,
   J. Stückrath, T. Rose, and J. Unsleber
   
 * started run on 2025/04/09 at 05:20:44.324     
   ID    Z sym.   atoms
    1    6 C      1, 2, 7, 8, 10, 15, 16, 18, 19
    2    8 O      3, 6, 14, 17
    3   15 P      4, 12
    4   16 S      5, 9, 11, 13
    5    1 H      20-41

           -------------------------------------------------
          |                Calculation Setup                |
           -------------------------------------------------

          program call               : /srv/scratch/z5358697/.xtb/bin/xtb gas.coord --gfn2 --sp --chrg 0 --norestart --parallel 1
          hostname                   : k163
          coordinate file            : gas.coord
          omp threads                :                     1


           -------------------------------------------------
          |                 G F N 2 - x T B                 |
           -------------------------------------------------

        Reference                      10.1021/acs.jctc.8b01176
      * Hamiltonian:
        H0-scaling (s, p, d)           1.850000    2.230000    2.230000
        zeta-weighting                 0.500000
      * Dispersion:
        s8                             2.700000
        a1                             0.520000
        a2                             5.000000
        s9                             5.000000
      * Repulsion:
        kExp                           1.500000    1.000000
        rExp                           1.000000
      * Coulomb:
        alpha                          2.000000
        third order                    shell-resolved
        anisotropic                    true
        a3                             3.000000
        a5                             4.000000
        cn-shift                       1.200000
        cn-exp                         4.000000
        max-rad                        5.000000


          ...................................................
          :                      SETUP                      :
          :.................................................:
          :  # basis functions                 134          :
          :  # atomic orbitals                 128          :
          :  # shells                           66          :
          :  # electrons                       116          :
          :  max. iterations                   250          :
          :  Hamiltonian                  GFN2-xTB          :
          :  restarted?                      false          :
          :  GBSA solvation                  false          :
          :  PC potential                    false          :
          :  electronic temp.          300.0000000     K    :
          :  accuracy                    1.0000000          :
          :  -> integral cutoff          0.2500000E+02      :
          :  -> integral neglect         0.1000000E-07      :
          :  -> SCF convergence          0.1000000E-05 Eh   :
          :  -> wf. convergence          0.1000000E-03 e    :
          :  Broyden damping             0.4000000          :
          :  net charge                          0          :
          :  unpaired electrons                  0          :
          ...................................................

 iter      E             dE          RMSdq      gap      omega  full diag
   1    -65.3897357 -0.653897E+02  0.630E+00    4.34       0.0  T
   2    -65.5517497 -0.162014E+00  0.368E+00    3.25       1.0  T
   3    -65.5701582 -0.184085E-01  0.130E+00    3.08       1.0  T
   4    -65.5727275 -0.256933E-02  0.574E-01    2.84       1.0  T
   5    -65.5737186 -0.991043E-03  0.273E-01    2.95       1.0  T
   6    -65.5739338 -0.215233E-03  0.133E-01    2.93       1.0  T
   7    -65.5740012 -0.673925E-04  0.440E-02    2.94       1.0  T
   8    -65.5740073 -0.612392E-05  0.195E-02    2.95       1.0  T
   9    -65.5740082 -0.924845E-06  0.485E-03    2.95       3.2  T
  10    -65.5740083 -0.572400E-07  0.234E-03    2.95       6.7  T
  11    -65.5740083 -0.747690E-08  0.498E-04    2.95      31.3  T
  12    -65.5740083 -0.710287E-09  0.236E-04    2.95      66.2  T

   *** convergence criteria satisfied after 12 iterations ***

         #    Occupation            Energy/Eh            Energy/eV
      -------------------------------------------------------------
         1        2.0000           -0.7510471             -20.4370
       ...           ...                  ...                  ...
        52        2.0000           -0.4372105             -11.8971
        53        2.0000           -0.4091245             -11.1328
        54        2.0000           -0.3994889             -10.8706
        55        2.0000           -0.3763588             -10.2412
        56        2.0000           -0.3732853             -10.1576
        57        2.0000           -0.3674004              -9.9975
        58        2.0000           -0.3633068              -9.8861 (HOMO)
        59                         -0.2550122              -6.9392 (LUMO)
        60                         -0.2441954              -6.6449
        61                         -0.2081907              -5.6652
        62                         -0.1821971              -4.9578
        63                         -0.1670645              -4.5461
       ...                                ...                  ...
       128                          1.3606896              37.0262
      -------------------------------------------------------------
                  HL-Gap            0.1082946 Eh            2.9468 eV
             Fermi-level           -0.3091595 Eh           -8.4127 eV

 SCC (total)                   0 d,  0 h,  0 min,  0.064 sec
 SCC setup                      ...        0 min,  0.000 sec (  0.389%)
 Dispersion                     ...        0 min,  0.000 sec (  0.465%)
 classical contributions        ...        0 min,  0.000 sec (  0.088%)
 integral evaluation            ...        0 min,  0.016 sec ( 25.742%)
 iterations                     ...        0 min,  0.024 sec ( 38.183%)
 molecular gradient             ...        0 min,  0.022 sec ( 34.689%)
 printout                       ...        0 min,  0.000 sec (  0.422%)

         :::::::::::::::::::::::::::::::::::::::::::::::::::::
         ::                     SUMMARY                     ::
         :::::::::::::::::::::::::::::::::::::::::::::::::::::
         :: total energy             -65.012295216501 Eh    ::
         :: gradient norm              0.035492604393 Eh/a0 ::
         :: HOMO-LUMO gap              2.946844828670 eV    ::
         ::.................................................::
         :: SCC energy               -65.573146909326 Eh    ::
         :: -> isotropic ES            0.106571976561 Eh    ::
         :: -> anisotropic ES         -0.012961447024 Eh    ::
         :: -> anisotropic XC          0.030291600145 Eh    ::
         :: -> dispersion             -0.055299215891 Eh    ::
         :: repulsion energy           0.560851692824 Eh    ::
         :: add. restraining           0.000000000000 Eh    ::
         :: total charge               0.000000000000 e     ::
         :::::::::::::::::::::::::::::::::::::::::::::::::::::

           -------------------------------------------------
          |                Property Printout                |
           -------------------------------------------------

    * Orbital Energies and Occupations

         #    Occupation            Energy/Eh            Energy/eV
      -------------------------------------------------------------
         1        2.0000           -0.7510471             -20.4370
       ...           ...                  ...                  ...
        46        2.0000           -0.4622662             -12.5789
        47        2.0000           -0.4618055             -12.5664
        48        2.0000           -0.4539424             -12.3524
        49        2.0000           -0.4487970             -12.2124
        50        2.0000           -0.4465073             -12.1501
        51        2.0000           -0.4438816             -12.0786
        52        2.0000           -0.4372105             -11.8971
        53        2.0000           -0.4091245             -11.1328
        54        2.0000           -0.3994889             -10.8706
        55        2.0000           -0.3763588             -10.2412
        56        2.0000           -0.3732853             -10.1576
        57        2.0000           -0.3674004              -9.9975
        58        2.0000           -0.3633068              -9.8861 (HOMO)
        59                         -0.2550122              -6.9392 (LUMO)
        60                         -0.2441954              -6.6449
        61                         -0.2081907              -5.6652
        62                         -0.1821971              -4.9578
        63                         -0.1670645              -4.5461
        64                         -0.1622284              -4.4145
        65                         -0.1374186              -3.7393
        66                         -0.1345891              -3.6624
        67                         -0.1186224              -3.2279
        68                         -0.1166908              -3.1753
        69                         -0.0355808              -0.9682
       ...                                ...                  ...
       128                          1.3606896              37.0262
      -------------------------------------------------------------
                  HL-Gap            0.1082946 Eh            2.9468 eV
             Fermi-level           -0.3091595 Eh           -8.4127 eV

     #   Z          covCN         q      C6AA      α(0)
     1   6 C        3.751    -0.115    22.756     6.803
     2   6 C        3.848     0.082    19.188     6.231
     3   8 O        1.655    -0.252    18.198     5.759
     4  15 P        3.791     0.371   144.802    21.616
     5  16 S        0.926    -0.402   156.727    21.175
     6   8 O        1.654    -0.218    17.637     5.669
     7   6 C        3.816     0.078    19.276     6.249
     8   6 C        3.751    -0.117    22.796     6.809
     9  16 S        1.998    -0.155   147.589    20.447
    10   6 C        3.802     0.038    19.931     6.356
    11  16 S        2.000    -0.130   146.514    20.372
    12  15 P        3.838     0.387   144.186    21.570
    13  16 S        0.927    -0.393   156.292    21.145
    14   8 O        1.654    -0.252    18.199     5.759
    15   6 C        3.848     0.082    19.193     6.232
    16   6 C        3.751    -0.120    22.864     6.819
    17   8 O        1.656    -0.263    18.382     5.788
    18   6 C        3.861     0.085    19.135     6.221
    19   6 C        3.751    -0.112    22.713     6.797
    20   1 H        0.925     0.059     2.215     2.327
    21   1 H        0.925     0.061     2.183     2.311
    22   1 H        0.925     0.052     2.292     2.368
    23   1 H        0.924     0.061     2.189     2.314
    24   1 H        0.924     0.064     2.153     2.294
    25   1 H        0.924     0.075     2.035     2.231
    26   1 H        0.924     0.072     2.064     2.247
    27   1 H        0.925     0.063     2.159     2.298
    28   1 H        0.925     0.060     2.202     2.321
    29   1 H        0.925     0.063     2.162     2.300
    30   1 H        0.925     0.079     1.984     2.203
    31   1 H        0.924     0.085     1.929     2.172
    32   1 H        0.924     0.063     2.170     2.303
    33   1 H        0.924     0.054     2.266     2.354
    34   1 H        0.925     0.066     2.125     2.280
    35   1 H        0.925     0.066     2.131     2.283
    36   1 H        0.925     0.059     2.205     2.322
    37   1 H        0.924     0.071     2.069     2.250
    38   1 H        0.924     0.067     2.122     2.278
    39   1 H        0.925     0.058     2.221     2.330
    40   1 H        0.925     0.050     2.324     2.384
    41   1 H        0.925     0.059     2.216     2.328

 Mol. C6AA /au·bohr⁶  :      26549.291294
 Mol. C8AA /au·bohr⁸  :     863236.028943
 Mol. α(0) /au        :        258.312267


Wiberg/Mayer (AO) data.
largest (>0.10) Wiberg bond orders for each atom

 ---------------------------------------------------------------------------
     #   Z sym  total        # sym  WBO       # sym  WBO       # sym  WBO
 ---------------------------------------------------------------------------
     1   6 C    3.992 --     2 C    1.021    21 H    0.983    20 H    0.981
                            22 H    0.978
     2   6 C    3.915 --     1 C    1.021    24 H    0.969    23 H    0.968
                             3 O    0.914
     3   8 O    2.399 --     4 P    1.284     2 C    0.914
     4  15 P    5.303 --     5 S    1.556     6 O    1.365     3 O    1.284
                             9 S    0.954
     5  16 S    1.909 --     4 P    1.556     9 S    0.142
     6   8 O    2.439 --     4 P    1.365     7 C    0.886
     7   6 C    3.905 --     8 C    1.024    25 H    0.968    26 H    0.967
                             6 O    0.886
     8   6 C    3.991 --     7 C    1.024    27 H    0.983    28 H    0.979
                            29 H    0.972
     9  16 S    2.272 --    10 C    0.986     4 P    0.954     5 S    0.142
    10   6 C    3.959 --     9 S    0.986    11 S    0.985    30 H    0.968
                            31 H    0.940
    11  16 S    2.302 --    12 P    1.002    10 C    0.985    13 S    0.131
    12  15 P    5.287 --    13 S    1.572    14 O    1.310    17 O    1.275
                            11 S    1.002
    13  16 S    1.895 --    12 P    1.572    11 S    0.131
    14   8 O    2.393 --    12 P    1.310    15 C    0.894
    15   6 C    3.916 --    16 C    1.021    32 H    0.971    33 H    0.969
                            14 O    0.894
    16   6 C    3.989 --    15 C    1.021    35 H    0.984    36 H    0.979
                            34 H    0.977
    17   8 O    2.382 --    12 P    1.275    18 C    0.899
    18   6 C    3.908 --    19 C    1.022    38 H    0.968    37 H    0.963
                            17 O    0.899
    19   6 C    3.993 --    18 C    1.022    40 H    0.985    39 H    0.981
                            41 H    0.977
    20   1 H    0.996 --     1 C    0.981
    21   1 H    0.996 --     1 C    0.983
    22   1 H    0.997 --     1 C    0.978
    23   1 H    0.996 --     2 C    0.968
    24   1 H    0.996 --     2 C    0.969
    25   1 H    0.994 --     7 C    0.968
    26   1 H    0.995 --     7 C    0.967
    27   1 H    0.996 --     8 C    0.983
    28   1 H    0.995 --     8 C    0.979
    29   1 H    0.996 --     8 C    0.972
    30   1 H    0.994 --    10 C    0.968
    31   1 H    0.993 --    10 C    0.940
    32   1 H    0.996 --    15 C    0.971
    33   1 H    0.997 --    15 C    0.969
    34   1 H    0.996 --    16 C    0.977
    35   1 H    0.996 --    16 C    0.984
    36   1 H    0.995 --    16 C    0.979
    37   1 H    0.995 --    18 C    0.963
    38   1 H    0.996 --    18 C    0.968
    39   1 H    0.996 --    19 C    0.981
    40   1 H    0.997 --    19 C    0.985
    41   1 H    0.997 --    19 C    0.977
 ---------------------------------------------------------------------------

Topologies differ in total number of bonds
Writing topology from bond orders to xtbtopo.mol

molecular dipole:
                 x           y           z       tot (Debye)
 q only:       -0.139      -1.383      -0.655
   full:       -0.145      -0.966      -0.765       3.154
molecular quadrupole (traceless):
                xx          xy          yy          xz          yz          zz
 q only:       25.327      -3.693     -14.511       5.197       1.784     -10.815
  q+dip:       30.046      -4.528     -18.470       5.132       3.367     -11.576
   full:       30.344      -3.999     -17.855       4.850       3.092     -12.489


           -------------------------------------------------
          | TOTAL ENERGY              -65.012295216501 Eh   |
          | GRADIENT NORM               0.035492604393 Eh/α |
          | HOMO-LUMO GAP               2.946844828670 eV   |
           -------------------------------------------------

------------------------------------------------------------------------
 * finished run on 2025/04/09 at 05:20:44.446     
------------------------------------------------------------------------
 total:
 * wall-time:     0 d,  0 h,  0 min,  0.122 sec
 *  cpu-time:     0 d,  0 h,  0 min,  0.068 sec
 * ratio c/w:     0.562 speedup
 SCF:
 * wall-time:     0 d,  0 h,  0 min,  0.064 sec
 *  cpu-time:     0 d,  0 h,  0 min,  0.055 sec
 * ratio c/w:     0.861 speedup

