      -----------------------------------------------------------      
     |                   =====================                   |     
     |                           x T B                           |     
     |                   =====================                   |     
     |                         S. Grimme                         |     
     |          Mulliken Center for Theoretical Chemistry        |     
     |                    University of Bonn                     |     
      -----------------------------------------------------------      

   * xtb version 6.7.1 (edcfbbe) compiled by 'albert@albert-system' on 2024-07-22

   xtb is free software: you can redistribute it and/or modify it under
   the terms of the GNU Lesser General Public License as published by
   the Free Software Foundation, either version 3 of the License, or
   (at your option) any later version.
   
   xtb is distributed in the hope that it will be useful,
   but WITHOUT ANY WARRANTY; without even the implied warranty of
   MERCHANTABILITY or FITNESS FOR A PARTICULAR PURPOSE.  See the
   GNU Lesser General Public License for more details.
   
   Cite this work as:
   * C. Bannwarth, E. Caldeweyher, S. Ehlert, A. Hansen, P. Pracht,
     J. Seibert, S. Spicher, S. Grimme, WIREs Comput. Mol. Sci., 2020, 11,
     e01493. DOI: 10.1002/wcms.1493
   
   for GFN2-xTB:
   * C. Bannwarth, S. Ehlert and S. Grimme., J. Chem. Theory Comput., 2019,
     15, 1652-1671. DOI: 10.1021/acs.jctc.8b01176
   for GFN1-xTB:
   * S. Grimme, C. Bannwarth, P. Shushkov, J. Chem. Theory Comput., 2017,
     13, 1989-2009. DOI: 10.1021/acs.jctc.7b00118
   for GFN0-xTB:
   * P. Pracht, E. Caldeweyher, S. Ehlert, S. Grimme, ChemRxiv, 2019, preprint.
     DOI: 10.26434/chemrxiv.8326202.v1
   for GFN-FF:
   * S. Spicher and S. Grimme, Angew. Chem. Int. Ed., 2020, 59, 15665-15673.
     DOI: 10.1002/anie.202004239
   
   for ALPB and GBSA implicit solvation:
   * S. Ehlert, M. Stahn, S. Spicher, S. Grimme, J. Chem. Theory Comput.,
     2021, 17, 4250-4261. DOI: 10.1021/acs.jctc.1c00471
   
   for ddCOSMO and CPCM-X implicit solvation:
   * M. Stahn, S. Ehlert, S. Grimme, J. Phys. Chem. A,
     2023, XX, XXXX-XXXX. DOI: 10.1021/acs.jpca.3c04382
   
   for DFT-D4:
   * E. Caldeweyher, C. Bannwarth and S. Grimme, J. Chem. Phys., 2017,
     147, 034112. DOI: 10.1063/1.4993215
   * E. Caldeweyher, S. Ehlert, A. Hansen, H. Neugebauer, S. Spicher,
     C. Bannwarth and S. Grimme, J. Chem. Phys., 2019, 150, 154122.
     DOI: 10.1063/1.5090222
   * E. Caldeweyher, J.-M. Mewes, S. Ehlert and S. Grimme, Phys. Chem. Chem. Phys.
     2020, 22, 8499-8512. DOI: 10.1039/D0CP00502A
   
   for sTDA-xTB:
   * S. Grimme and C. Bannwarth, J. Chem. Phys., 2016, 145, 054103.
     DOI: 10.1063/1.4959605
   
   in the mass-spec context:
   * V. Asgeirsson, C. Bauer and S. Grimme, Chem. Sci., 2017, 8, 4879.
     DOI: 10.1039/c7sc00601b
   * J. Koopman and S. Grimme, ACS Omega 2019, 4, 12, 15120-15133.
     DOI: 10.1021/acsomega.9b02011
   
   for metadynamics refer to:
   * S. Grimme, J. Chem. Theory Comput., 2019, 155, 2847-2862
     DOI: 10.1021/acs.jctc.9b00143
   
   for SPH calculations refer to:
   * S. Spicher and S. Grimme, J. Chem. Theory Comput., 2021, 17, 1701-1714
     DOI: 10.1021/acs.jctc.0c01306
   
   for ONIOM refer to:
   * C. Plett, A. Katbashev, S. Ehlert, S. Grimme, M. Bursch,
     Phys. Chem. Chem. Phys., 2023, 25, 17860-17868. DOI: 10.1039/D3CP02178E
   
   for DIPRO refer to:
   * J. Kohn, N. Gildemeister, S. Grimme, D. Fazzi, A. Hansen,
     J. Chem. Phys., 2023, just accepted.
   
   for PTB refer to:
   * S. Grimme, M. Mueller, A. Hansen, J. Chem. Phys., 2023, 158, 124111.
     DOI: 10.1063/5.0137838
   
   with help from (in alphabetical order)
   P. Atkinson, C. Bannwarth, F. Bohle, G. Brandenburg, E. Caldeweyher
   M. Checinski, S. Dohm, S. Ehlert, S. Ehrlich, I. Gerasimov, C. Hölzer
   A. Katbashev, J. Kohn, J. Koopman, C. Lavigne, S. Lehtola, F. März, M. Müller,
   F. Musil, H. Neugebauer, J. Pisarek, C. Plett, P. Pracht, F. Pultar,
   J. Seibert, P. Shushkov, S. Spicher, M. Stahn, M. Steiner, T. Strunk,
   J. Stückrath, T. Rose, and J. Unsleber
   
 * started run on 2025/04/09 at 05:21:08.285     
   ID    Z sym.   atoms
    1    6 C      1, 2, 7, 8, 10, 15, 16, 18, 19
    2    8 O      3, 6, 14, 17
    3   15 P      4, 12
    4   16 S      5, 9, 11, 13
    5    1 H      20-41

           -------------------------------------------------
          |                Calculation Setup                |
           -------------------------------------------------

          program call               : /srv/scratch/z5358697/.xtb/bin/xtb gas.coord --gfn2 --sp --chrg 0 --norestart --parallel 1
          hostname                   : k163
          coordinate file            : gas.coord
          omp threads                :                     1


           -------------------------------------------------
          |                 G F N 2 - x T B                 |
           -------------------------------------------------

        Reference                      10.1021/acs.jctc.8b01176
      * Hamiltonian:
        H0-scaling (s, p, d)           1.850000    2.230000    2.230000
        zeta-weighting                 0.500000
      * Dispersion:
        s8                             2.700000
        a1                             0.520000
        a2                             5.000000
        s9                             5.000000
      * Repulsion:
        kExp                           1.500000    1.000000
        rExp                           1.000000
      * Coulomb:
        alpha                          2.000000
        third order                    shell-resolved
        anisotropic                    true
        a3                             3.000000
        a5                             4.000000
        cn-shift                       1.200000
        cn-exp                         4.000000
        max-rad                        5.000000


          ...................................................
          :                      SETUP                      :
          :.................................................:
          :  # basis functions                 134          :
          :  # atomic orbitals                 128          :
          :  # shells                           66          :
          :  # electrons                       116          :
          :  max. iterations                   250          :
          :  Hamiltonian                  GFN2-xTB          :
          :  restarted?                      false          :
          :  GBSA solvation                  false          :
          :  PC potential                    false          :
          :  electronic temp.          300.0000000     K    :
          :  accuracy                    1.0000000          :
          :  -> integral cutoff          0.2500000E+02      :
          :  -> integral neglect         0.1000000E-07      :
          :  -> SCF convergence          0.1000000E-05 Eh   :
          :  -> wf. convergence          0.1000000E-03 e    :
          :  Broyden damping             0.4000000          :
          :  net charge                          0          :
          :  unpaired electrons                  0          :
          ...................................................

 iter      E             dE          RMSdq      gap      omega  full diag
   1    -65.3841559 -0.653842E+02  0.631E+00    4.15       0.0  T
   2    -65.5493346 -0.165179E+00  0.388E+00    3.08       1.0  T
   3    -65.5685224 -0.191878E-01  0.140E+00    2.84       1.0  T
   4    -65.5710042 -0.248187E-02  0.606E-01    2.61       1.0  T
   5    -65.5720231 -0.101884E-02  0.266E-01    2.71       1.0  T
   6    -65.5722186 -0.195521E-03  0.131E-01    2.70       1.0  T
   7    -65.5722879 -0.692648E-04  0.482E-02    2.71       1.0  T
   8    -65.5722959 -0.801588E-05  0.211E-02    2.72       1.0  T
   9    -65.5722969 -0.102721E-05  0.506E-03    2.72       3.1  T
  10    -65.5722970 -0.768063E-07  0.241E-03    2.72       6.5  T
  11    -65.5722970 -0.489237E-08  0.562E-04    2.72      27.8  T
  12    -65.5722970 -0.131038E-08  0.249E-04    2.72      62.6  T

   *** convergence criteria satisfied after 12 iterations ***

         #    Occupation            Energy/Eh            Energy/eV
      -------------------------------------------------------------
         1        2.0000           -0.7583834             -20.6367
       ...           ...                  ...                  ...
        52        2.0000           -0.4353220             -11.8457
        53        2.0000           -0.4132651             -11.2455
        54        2.0000           -0.4037579             -10.9868
        55        2.0000           -0.3749301             -10.2024
        56        2.0000           -0.3727751             -10.1437
        57        2.0000           -0.3700272             -10.0690
        58        2.0000           -0.3677110             -10.0059 (HOMO)
        59                         -0.2677742              -7.2865 (LUMO)
        60                         -0.2420758              -6.5872
        61                         -0.2090490              -5.6885
        62                         -0.1877021              -5.1076
        63                         -0.1666831              -4.5357
       ...                                ...                  ...
       128                          1.3144665              35.7685
      -------------------------------------------------------------
                  HL-Gap            0.0999369 Eh            2.7194 eV
             Fermi-level           -0.3177426 Eh           -8.6462 eV

 SCC (total)                   0 d,  0 h,  0 min,  0.055 sec
 SCC setup                      ...        0 min,  0.000 sec (  0.472%)
 Dispersion                     ...        0 min,  0.000 sec (  0.541%)
 classical contributions        ...        0 min,  0.000 sec (  0.110%)
 integral evaluation            ...        0 min,  0.008 sec ( 14.628%)
 iterations                     ...        0 min,  0.024 sec ( 44.702%)
 molecular gradient             ...        0 min,  0.021 sec ( 38.758%)
 printout                       ...        0 min,  0.000 sec (  0.761%)

         :::::::::::::::::::::::::::::::::::::::::::::::::::::
         ::                     SUMMARY                     ::
         :::::::::::::::::::::::::::::::::::::::::::::::::::::
         :: total energy             -65.009772557531 Eh    ::
         :: gradient norm              0.032404806978 Eh/a0 ::
         :: HOMO-LUMO gap              2.719420849219 eV    ::
         ::.................................................::
         :: SCC energy               -65.571221152264 Eh    ::
         :: -> isotropic ES            0.105063036236 Eh    ::
         :: -> anisotropic ES         -0.010381160852 Eh    ::
         :: -> anisotropic XC          0.031370577441 Eh    ::
         :: -> dispersion             -0.054121502085 Eh    ::
         :: repulsion energy           0.561448594732 Eh    ::
         :: add. restraining           0.000000000000 Eh    ::
         :: total charge               0.000000000000 e     ::
         :::::::::::::::::::::::::::::::::::::::::::::::::::::

           -------------------------------------------------
          |                Property Printout                |
           -------------------------------------------------

    * Orbital Energies and Occupations

         #    Occupation            Energy/Eh            Energy/eV
      -------------------------------------------------------------
         1        2.0000           -0.7583834             -20.6367
       ...           ...                  ...                  ...
        46        2.0000           -0.4688197             -12.7572
        47        2.0000           -0.4668370             -12.7033
        48        2.0000           -0.4619055             -12.5691
        49        2.0000           -0.4576425             -12.4531
        50        2.0000           -0.4502099             -12.2508
        51        2.0000           -0.4477106             -12.1828
        52        2.0000           -0.4353220             -11.8457
        53        2.0000           -0.4132651             -11.2455
        54        2.0000           -0.4037579             -10.9868
        55        2.0000           -0.3749301             -10.2024
        56        2.0000           -0.3727751             -10.1437
        57        2.0000           -0.3700272             -10.0690
        58        2.0000           -0.3677110             -10.0059 (HOMO)
        59                         -0.2677742              -7.2865 (LUMO)
        60                         -0.2420758              -6.5872
        61                         -0.2090490              -5.6885
        62                         -0.1877021              -5.1076
        63                         -0.1666831              -4.5357
        64                         -0.1582525              -4.3063
        65                         -0.1535121              -4.1773
        66                         -0.1360063              -3.7009
        67                         -0.1342386              -3.6528
        68                         -0.1124011              -3.0586
        69                         -0.0450711              -1.2264
       ...                                ...                  ...
       128                          1.3144665              35.7685
      -------------------------------------------------------------
                  HL-Gap            0.0999369 Eh            2.7194 eV
             Fermi-level           -0.3177426 Eh           -8.6462 eV

     #   Z          covCN         q      C6AA      α(0)
     1   6 C        3.751    -0.110    22.657     6.788
     2   6 C        3.841     0.085    19.143     6.224
     3   8 O        1.654    -0.230    17.826     5.700
     4  15 P        3.810     0.367   144.935    21.626
     5  16 S        0.927    -0.383   155.808    21.113
     6   8 O        1.655    -0.249    18.144     5.750
     7   6 C        3.824     0.082    19.200     6.235
     8   6 C        3.752    -0.117    22.801     6.810
     9  16 S        2.006    -0.173   148.367    20.501
    10   6 C        3.818     0.042    19.858     6.342
    11  16 S        2.006    -0.139   146.919    20.401
    12  15 P        3.766     0.381   144.392    21.585
    13  16 S        0.925    -0.388   156.068    21.130
    14   8 O        1.654    -0.249    18.142     5.750
    15   6 C        3.803     0.079    19.265     6.249
    16   6 C        3.751    -0.116    22.791     6.808
    17   8 O        1.655    -0.262    18.361     5.784
    18   6 C        3.832     0.083    19.175     6.230
    19   6 C        3.751    -0.117    22.810     6.811
    20   1 H        0.925     0.063     2.166     2.301
    21   1 H        0.925     0.061     2.191     2.315
    22   1 H        0.925     0.063     2.165     2.301
    23   1 H        0.924     0.053     2.278     2.360
    24   1 H        0.924     0.067     2.120     2.277
    25   1 H        0.924     0.056     2.248     2.344
    26   1 H        0.924     0.068     2.106     2.270
    27   1 H        0.925     0.059     2.216     2.328
    28   1 H        0.925     0.070     2.087     2.259
    29   1 H        0.925     0.063     2.160     2.299
    30   1 H        0.925     0.091     1.865     2.136
    31   1 H        0.925     0.077     2.007     2.215
    32   1 H        0.924     0.059     2.210     2.325
    33   1 H        0.924     0.071     2.079     2.255
    34   1 H        0.925     0.065     2.144     2.290
    35   1 H        0.925     0.059     2.212     2.326
    36   1 H        0.925     0.060     2.193     2.316
    37   1 H        0.924     0.060     2.195     2.317
    38   1 H        0.924     0.066     2.133     2.284
    39   1 H        0.925     0.054     2.276     2.359
    40   1 H        0.925     0.062     2.171     2.304
    41   1 H        0.925     0.066     2.134     2.284

 Mol. C6AA /au·bohr⁶  :      26545.217218
 Mol. C8AA /au·bohr⁸  :     863234.406381
 Mol. α(0) /au        :        258.302057


Wiberg/Mayer (AO) data.
largest (>0.10) Wiberg bond orders for each atom

 ---------------------------------------------------------------------------
     #   Z sym  total        # sym  WBO       # sym  WBO       # sym  WBO
 ---------------------------------------------------------------------------
     1   6 C    3.989 --     2 C    1.021    21 H    0.984    20 H    0.981
                            22 H    0.978
     2   6 C    3.907 --     1 C    1.021    23 H    0.973    24 H    0.963
                             3 O    0.883
     3   8 O    2.428 --     4 P    1.354     2 C    0.883
     4  15 P    5.301 --     5 S    1.567     3 O    1.354     6 O    1.311
                             9 S    0.941
     5  16 S    1.901 --     4 P    1.567     9 S    0.143
     6   8 O    2.410 --     4 P    1.311     7 C    0.904
     7   6 C    3.911 --     8 C    1.022    25 H    0.970    26 H    0.969
                             6 O    0.904
     8   6 C    3.989 --     7 C    1.022    28 H    0.982    27 H    0.980
                            29 H    0.974
     9  16 S    2.282 --    10 C    0.990     4 P    0.941     5 S    0.143
    10   6 C    3.960 --     9 S    0.990    11 S    0.986    31 H    0.963
                            30 H    0.951
    11  16 S    2.288 --    10 C    0.986    12 P    0.968    13 S    0.135
    12  15 P    5.266 --    13 S    1.571    14 O    1.327    17 O    1.278
                            11 S    0.968
    13  16 S    1.897 --    12 P    1.571    11 S    0.135
    14   8 O    2.405 --    12 P    1.327    15 C    0.892
    15   6 C    3.913 --    16 C    1.023    32 H    0.969    33 H    0.968
                            14 O    0.892
    16   6 C    3.991 --    15 C    1.023    36 H    0.984    35 H    0.980
                            34 H    0.977
    17   8 O    2.388 --    12 P    1.278    18 C    0.899
    18   6 C    3.909 --    19 C    1.022    37 H    0.969    38 H    0.963
                            17 O    0.899
    19   6 C    3.988 --    18 C    1.022    39 H    0.984    40 H    0.979
                            41 H    0.976
    20   1 H    0.996 --     1 C    0.981
    21   1 H    0.996 --     1 C    0.984
    22   1 H    0.994 --     1 C    0.978
    23   1 H    0.997 --     2 C    0.973
    24   1 H    0.995 --     2 C    0.963
    25   1 H    0.997 --     7 C    0.970
    26   1 H    0.995 --     7 C    0.969
    27   1 H    0.996 --     8 C    0.980
    28   1 H    0.995 --     8 C    0.982
    29   1 H    0.996 --     8 C    0.974
    30   1 H    0.992 --    10 C    0.951
    31   1 H    0.994 --    10 C    0.963
    32   1 H    0.996 --    15 C    0.969
    33   1 H    0.995 --    15 C    0.968
    34   1 H    0.996 --    16 C    0.977
    35   1 H    0.995 --    16 C    0.980
    36   1 H    0.996 --    16 C    0.984
    37   1 H    0.996 --    18 C    0.969
    38   1 H    0.996 --    18 C    0.963
    39   1 H    0.997 --    19 C    0.984
    40   1 H    0.995 --    19 C    0.979
    41   1 H    0.996 --    19 C    0.976
 ---------------------------------------------------------------------------

Topologies differ in total number of bonds
Writing topology from bond orders to xtbtopo.mol

molecular dipole:
                 x           y           z       tot (Debye)
 q only:       -1.426      -0.977       0.021
   full:       -1.551      -0.800      -0.137       4.450
molecular quadrupole (traceless):
                xx          xy          yy          xz          yz          zz
 q only:        8.957     -14.771      13.737     -15.462      -9.458     -22.694
  q+dip:       19.235     -15.892       9.989     -18.140     -11.605     -29.224
   full:       17.970     -16.255      11.668     -17.529     -11.338     -29.639


           -------------------------------------------------
          | TOTAL ENERGY              -65.009772557531 Eh   |
          | GRADIENT NORM               0.032404806978 Eh/α |
          | HOMO-LUMO GAP               2.719420849219 eV   |
           -------------------------------------------------

------------------------------------------------------------------------
 * finished run on 2025/04/09 at 05:21:08.370     
------------------------------------------------------------------------
 total:
 * wall-time:     0 d,  0 h,  0 min,  0.085 sec
 *  cpu-time:     0 d,  0 h,  0 min,  0.067 sec
 * ratio c/w:     0.787 speedup
 SCF:
 * wall-time:     0 d,  0 h,  0 min,  0.055 sec
 *  cpu-time:     0 d,  0 h,  0 min,  0.054 sec
 * ratio c/w:     0.990 speedup

