22
 energy: -2450.706420674388 gnorm: 0.032878309331 xtb: 6.7.1 (edcfbbe)
C            4.22110373677048        1.23003518934506        0.00026427360012
C            2.92403870949572        1.71838085886146        0.00018695910008
C            1.85061308222006        0.84478323707435        0.00002394250001
C            2.07255342981840       -0.53208559223578       -0.00006158850003
C            3.36410806579073       -1.02843489365573       -0.00011070790005
C            4.42852381646240       -0.13786918056109        0.00007999800004
Cl           6.04340940387799       -0.76438944183872       -0.00003041030001
O            1.03463853815848       -1.43887174603760       -0.00008896220004
C           -0.22470868549957       -0.91300898780458       -0.00003188690001
C           -1.29487750217379       -1.79056205779345       -0.00008330880004
C           -2.59280037424894       -1.29950252487584       -0.00017118820008
C           -2.83060305415431        0.06931702803072       -0.00013215500006
C           -1.74788653737453        0.94953607472076       -0.00010774350005
C           -0.44321075069640        0.46964630910811       -0.00005989630003
O            0.57609684225528        1.37570473270961        0.00002368740001
Cl          -2.00197535398713        2.65115607317480       -0.00007455480003
Cl          -4.43638843766588        0.68835489120503        0.00006453960003
Cl          -3.91714315593579       -2.39704922866220        0.00014351420006
H            5.05684769524082        1.90864240614577        0.00006764750003
H            2.72739095990858        2.77710926403061        0.00014952880007
H            3.51700916555848       -2.09412659162796       -0.00024827840011
H           -1.10504587608967       -2.85035197026307       -0.00013616220006
22
 energy: -2450.707554461151 gnorm: 0.016768603472 xtb: 6.7.1 (edcfbbe)
C            4.22583141644267        1.23234037603419        0.00011643538605
C            2.92452718488923        1.72043705425441        0.00013091273376
C            1.85441443355739        0.84344528349737        0.00003800291570
C            2.07599601908981       -0.53146004563303       -0.00005143000656
C            3.36505722695533       -1.03516652987021       -0.00008668474521
C            4.43009127177743       -0.14058575321584        0.00000851685952
Cl           6.05489033215371       -0.76915657081445       -0.00001441664251
O            1.03351362805476       -1.43870224680306       -0.00011236546863
C           -0.23195272887018       -0.90771436746203       -0.00008062148793
C           -1.29685583090296       -1.78904996599620       -0.00008820695480
C           -2.59768706907038       -1.30012112408154       -0.00004020828781
C           -2.84241144450387        0.07405691342043       -0.00005622572013
C           -1.75366292266282        0.95669964174394       -0.00007676977682
C           -0.44922483129009        0.47194242730876       -0.00004849774414
O            0.57684213025110        1.37702634641703        0.00002657178275
Cl          -1.99025989268215        2.66771549734310       -0.00008396269511
Cl          -4.45488013551131        0.69289926579121        0.00000744275129
Cl          -3.90865104528811       -2.42908304572876        0.00003364281473
H            5.06417787891908        1.91637655170919        0.00016979311264
H            2.72811501450077        2.78559223632881        0.00018785106977
H            3.51615472590314       -2.10714176643465       -0.00019216046255
H           -1.10233153777699       -2.85393614982636       -0.00012032328992
22
 energy: -2450.707791830404 gnorm: 0.005888867874 xtb: 6.7.1 (edcfbbe)
C            4.22963568781782        1.23322610666178        0.00008290393328
C            2.92602508710755        1.72162987794854        0.00009804187859
C            1.85798053276419        0.84261931216452        0.00001956446119
C            2.07915714534295       -0.53069006222884       -0.00005929508073
C            3.36670099575645       -1.03939685236964       -0.00008078206449
C            4.43019523872429       -0.14170030106267       -0.00000997225172
Cl           6.06395574265924       -0.77244824533701       -0.00001039723731
O            1.03376335434175       -1.43895856865768       -0.00011521491809
C           -0.23632745074877       -0.90369497937620       -0.00007779428673
C           -1.29724953748518       -1.78823321555945       -0.00007606386750
C           -2.59843006226584       -1.29890469468613       -0.00003334702636
C           -2.84712587652738        0.07528271908427       -0.00002110398441
C           -1.75752748417490        0.95935423191855       -0.00003048091459
C           -0.45249924934737        0.47360175085343       -0.00003194563882
O            0.57790980363186        1.37848645789028        0.00001681739420
Cl          -1.99586256545393        2.67522480185597       -0.00005499656098
Cl          -4.46527653157716        0.69028984600155       -0.00002651051720
Cl          -3.90996542248221       -2.43952971175057       -0.00003939252529
H            5.06894145408803        1.91907436654024        0.00018278263410
H            2.73150511126140        2.78946678962180        0.00018590098690
H            3.51711519246105       -2.11356018720723       -0.00015173651831
H           -1.10092719348141       -2.85472532780991       -0.00009964449488
22
 energy: -2450.707816695060 gnorm: 0.002357370380 xtb: 6.7.1 (edcfbbe)
C            4.23041110490807        1.23316308069513        0.00008719113501
C            2.92664207430365        1.72194969341685        0.00009382004450
C            1.85862701394418        0.84283865742392        0.00001451356150
C            2.07954774105810       -0.53025699275094       -0.00005880189109
C            3.36706564583350       -1.03982845477755       -0.00007354414523
C            4.42918824727742       -0.14138672126383       -0.00000171335104
Cl           6.06617599024277       -0.77336273856175       -0.00001137262530
O            1.03396077136657       -1.43915705175268       -0.00011275532417
C           -0.23724412301540       -0.90279841045373       -0.00007138963926
C           -1.29724499392158       -1.78859079666243       -0.00007312962126
C           -2.59773860985060       -1.29849783183760       -0.00004724816674
C           -2.84700539252888        0.07479448532044       -0.00002804027389
C           -1.75810800138548        0.95889596755540       -0.00002244017570
C           -0.45280207407903        0.47415218734035       -0.00002494237430
O            0.57787495843012        1.37951783040637        0.00001153935304
Cl          -1.99953645097655        2.67560700561914       -0.00002077898514
Cl          -4.46618332273509        0.68926506027821       -0.00002869197638
Cl          -3.91207919920011       -2.43980014753636       -0.00006080995002
H            5.06973856285168        1.91839447433302        0.00016227199072
H            2.73357233554044        2.78968172473957        0.00016692104163
H            3.51778065246316       -2.11351894221988       -0.00013759226033
H           -1.10094890219251       -2.85464794579261       -0.00009566590823
22
 energy: -2450.707821309731 gnorm: 0.000795211464 xtb: 6.7.1 (edcfbbe)
C            4.23039373696726        1.23310007206542        0.00008711074059
C            2.92678542494703        1.72205363520562        0.00009154231117
C            1.85857256419025        0.84307605446381        0.00001520067068
C            2.07927421949275       -0.53009680579925       -0.00005390354879
C            3.36699558517440       -1.03955719510055       -0.00006609250657
C            4.42820227841970       -0.14090792582869        0.00000380308981
Cl           6.06665432063208       -0.77368928518298       -0.00000893272373
O            1.03402826550642       -1.43924390422510       -0.00011009668541
C           -0.23734236328716       -0.90277507292954       -0.00006992604056
C           -1.29720774543204       -1.78899487307376       -0.00007684401649
C           -2.59710887890839       -1.29837460003747       -0.00005846485526
C           -2.84643331792709        0.07434187290762       -0.00003388545073
C           -1.75799966546160        0.95826482722813       -0.00002021961035
C           -0.45255370127764        0.47426278417056       -0.00002467156219
O            0.57763235807386        1.37998884706743        0.00000849175595
Cl          -2.00035650541592        2.67516503287374        0.00000287246136
Cl          -4.46563275050974        0.68879825452419       -0.00002446908778
Cl          -3.91341222953931       -2.43887125698367       -0.00006674109561
H            5.06969299732226        1.91771254884132        0.00014707663728
H            2.73447630184927        2.78948057045728        0.00015280392134
H            3.51805172884741       -2.11272129066987       -0.00012705730143
H           -1.10101858159215       -2.85459815909176       -0.00010025944833
22
 energy: -2450.707821309731 gnorm: 0.000795211464 xtb: 6.7.1 (edcfbbe)
C            4.23039373696726        1.23310007206542        0.00008711074059
C            2.92678542494703        1.72205363520562        0.00009154231117
C            1.85857256419025        0.84307605446381        0.00001520067068
C            2.07927421949275       -0.53009680579925       -0.00005390354879
C            3.36699558517440       -1.03955719510055       -0.00006609250657
C            4.42820227841970       -0.14090792582869        0.00000380308981
Cl           6.06665432063208       -0.77368928518298       -0.00000893272373
O            1.03402826550642       -1.43924390422510       -0.00011009668541
C           -0.23734236328716       -0.90277507292954       -0.00006992604056
C           -1.29720774543204       -1.78899487307376       -0.00007684401649
C           -2.59710887890839       -1.29837460003747       -0.00005846485526
C           -2.84643331792709        0.07434187290762       -0.00003388545073
C           -1.75799966546160        0.95826482722813       -0.00002021961035
C           -0.45255370127764        0.47426278417056       -0.00002467156219
O            0.57763235807386        1.37998884706743        0.00000849175595
Cl          -2.00035650541592        2.67516503287374        0.00000287246136
Cl          -4.46563275050974        0.68879825452419       -0.00002446908778
Cl          -3.91341222953931       -2.43887125698367       -0.00006674109561
H            5.06969299732226        1.91771254884132        0.00014707663728
H            2.73447630184927        2.78948057045728        0.00015280392134
H            3.51805172884741       -2.11272129066987       -0.00012705730143
H           -1.10101858159215       -2.85459815909176       -0.00010025944833
