      -----------------------------------------------------------      
     |                   =====================                   |     
     |                           x T B                           |     
     |                   =====================                   |     
     |                         S. Grimme                         |     
     |          Mulliken Center for Theoretical Chemistry        |     
     |                    University of Bonn                     |     
      -----------------------------------------------------------      

   * xtb version 6.7.1 (edcfbbe) compiled by 'albert@albert-system' on 2024-07-22

   xtb is free software: you can redistribute it and/or modify it under
   the terms of the GNU Lesser General Public License as published by
   the Free Software Foundation, either version 3 of the License, or
   (at your option) any later version.
   
   xtb is distributed in the hope that it will be useful,
   but WITHOUT ANY WARRANTY; without even the implied warranty of
   MERCHANTABILITY or FITNESS FOR A PARTICULAR PURPOSE.  See the
   GNU Lesser General Public License for more details.
   
   Cite this work as:
   * C. Bannwarth, E. Caldeweyher, S. Ehlert, A. Hansen, P. Pracht,
     J. Seibert, S. Spicher, S. Grimme, WIREs Comput. Mol. Sci., 2020, 11,
     e01493. DOI: 10.1002/wcms.1493
   
   for GFN2-xTB:
   * C. Bannwarth, S. Ehlert and S. Grimme., J. Chem. Theory Comput., 2019,
     15, 1652-1671. DOI: 10.1021/acs.jctc.8b01176
   for GFN1-xTB:
   * S. Grimme, C. Bannwarth, P. Shushkov, J. Chem. Theory Comput., 2017,
     13, 1989-2009. DOI: 10.1021/acs.jctc.7b00118
   for GFN0-xTB:
   * P. Pracht, E. Caldeweyher, S. Ehlert, S. Grimme, ChemRxiv, 2019, preprint.
     DOI: 10.26434/chemrxiv.8326202.v1
   for GFN-FF:
   * S. Spicher and S. Grimme, Angew. Chem. Int. Ed., 2020, 59, 15665-15673.
     DOI: 10.1002/anie.202004239
   
   for ALPB and GBSA implicit solvation:
   * S. Ehlert, M. Stahn, S. Spicher, S. Grimme, J. Chem. Theory Comput.,
     2021, 17, 4250-4261. DOI: 10.1021/acs.jctc.1c00471
   
   for ddCOSMO and CPCM-X implicit solvation:
   * M. Stahn, S. Ehlert, S. Grimme, J. Phys. Chem. A,
     2023, XX, XXXX-XXXX. DOI: 10.1021/acs.jpca.3c04382
   
   for DFT-D4:
   * E. Caldeweyher, C. Bannwarth and S. Grimme, J. Chem. Phys., 2017,
     147, 034112. DOI: 10.1063/1.4993215
   * E. Caldeweyher, S. Ehlert, A. Hansen, H. Neugebauer, S. Spicher,
     C. Bannwarth and S. Grimme, J. Chem. Phys., 2019, 150, 154122.
     DOI: 10.1063/1.5090222
   * E. Caldeweyher, J.-M. Mewes, S. Ehlert and S. Grimme, Phys. Chem. Chem. Phys.
     2020, 22, 8499-8512. DOI: 10.1039/D0CP00502A
   
   for sTDA-xTB:
   * S. Grimme and C. Bannwarth, J. Chem. Phys., 2016, 145, 054103.
     DOI: 10.1063/1.4959605
   
   in the mass-spec context:
   * V. Asgeirsson, C. Bauer and S. Grimme, Chem. Sci., 2017, 8, 4879.
     DOI: 10.1039/c7sc00601b
   * J. Koopman and S. Grimme, ACS Omega 2019, 4, 12, 15120-15133.
     DOI: 10.1021/acsomega.9b02011
   
   for metadynamics refer to:
   * S. Grimme, J. Chem. Theory Comput., 2019, 155, 2847-2862
     DOI: 10.1021/acs.jctc.9b00143
   
   for SPH calculations refer to:
   * S. Spicher and S. Grimme, J. Chem. Theory Comput., 2021, 17, 1701-1714
     DOI: 10.1021/acs.jctc.0c01306
   
   for ONIOM refer to:
   * C. Plett, A. Katbashev, S. Ehlert, S. Grimme, M. Bursch,
     Phys. Chem. Chem. Phys., 2023, 25, 17860-17868. DOI: 10.1039/D3CP02178E
   
   for DIPRO refer to:
   * J. Kohn, N. Gildemeister, S. Grimme, D. Fazzi, A. Hansen,
     J. Chem. Phys., 2023, just accepted.
   
   for PTB refer to:
   * S. Grimme, M. Mueller, A. Hansen, J. Chem. Phys., 2023, 158, 124111.
     DOI: 10.1063/5.0137838
   
   with help from (in alphabetical order)
   P. Atkinson, C. Bannwarth, F. Bohle, G. Brandenburg, E. Caldeweyher
   M. Checinski, S. Dohm, S. Ehlert, S. Ehrlich, I. Gerasimov, C. Hölzer
   A. Katbashev, J. Kohn, J. Koopman, C. Lavigne, S. Lehtola, F. März, M. Müller,
   F. Musil, H. Neugebauer, J. Pisarek, C. Plett, P. Pracht, F. Pultar,
   J. Seibert, P. Shushkov, S. Spicher, M. Stahn, M. Steiner, T. Strunk,
   J. Stückrath, T. Rose, and J. Unsleber
   
 * started run on 2025/04/09 at 05:20:55.287     
   ID    Z sym.   atoms
    1    6 C      1, 2, 7, 8, 10, 15, 16, 18, 19
    2    8 O      3, 6, 14, 17
    3   15 P      4, 12
    4   16 S      5, 9, 11, 13
    5    1 H      20-41

           -------------------------------------------------
          |                Calculation Setup                |
           -------------------------------------------------

          program call               : /srv/scratch/z5358697/.xtb/bin/xtb solv.coord --gfn2 --sp --chrg 0 --norestart --parallel 1 --alpb water reference -I xtb_sp-xcontrol-inp
          hostname                   : k163
          coordinate file            : solv.coord
          omp threads                :                     1


           -------------------------------------------------
          |                 G F N 2 - x T B                 |
           -------------------------------------------------

        Reference                      10.1021/acs.jctc.8b01176
      * Hamiltonian:
        H0-scaling (s, p, d)           1.850000    2.230000    2.230000
        zeta-weighting                 0.500000
      * Dispersion:
        s8                             2.700000
        a1                             0.520000
        a2                             5.000000
        s9                             5.000000
      * Repulsion:
        kExp                           1.500000    1.000000
        rExp                           1.000000
      * Coulomb:
        alpha                          2.000000
        third order                    shell-resolved
        anisotropic                    true
        a3                             3.000000
        a5                             4.000000
        cn-shift                       1.200000
        cn-exp                         4.000000
        max-rad                        5.000000

      * Solvation model:               ALPB
        Solvent                        water
        Parameter file                 internal GFN2-xTB/ALPB
        Dielectric constant                8.0200E+01
        Reference state                gsolv=reference [X=1]
        Free energy shift                  2.8945E-03 Eh       1.8164E+00 kcal/mol
        Temperature                        2.9815E+02 K
        Density                            1.0000E+00 kg/L
        Solvent mass                       1.8000E+01 g/mol
        Interaction kernel             P16
        Born radius scaling (c1)           1.4744E+00
        Born radii integrator          GBOBC
        Born offset                        0.0000E+00 a0       0.0000E+00 AA
        H-bond correction              true
        Ion screening                  false
        Surface tension                    1.0000E-05 Eh       1.5569E+01 dyn/cm
        Grid points                               974 per atom

          ...................................................
          :                      SETUP                      :
          :.................................................:
          :  # basis functions                 134          :
          :  # atomic orbitals                 128          :
          :  # shells                           66          :
          :  # electrons                       116          :
          :  max. iterations                   250          :
          :  Hamiltonian                  GFN2-xTB          :
          :  restarted?                      false          :
          :  GBSA solvation                   true          :
          :  PC potential                    false          :
          :  electronic temp.          300.0000000     K    :
          :  accuracy                    1.0000000          :
          :  -> integral cutoff          0.2500000E+02      :
          :  -> integral neglect         0.1000000E-07      :
          :  -> SCF convergence          0.1000000E-05 Eh   :
          :  -> wf. convergence          0.1000000E-03 e    :
          :  Broyden damping             0.4000000          :
          :  net charge                          0          :
          :  unpaired electrons                  0          :
          ...................................................

 iter      E             dE          RMSdq      gap      omega  full diag
   1    -65.4432601 -0.654433E+02  0.617E+00    4.07       0.0  T
   2    -65.5654840 -0.122224E+00  0.347E+00    3.57       1.0  T
   3    -65.5853630 -0.198790E-01  0.108E+00    3.11       1.0  T
   4    -65.5877743 -0.241129E-02  0.513E-01    3.06       1.0  T
   5    -65.5884020 -0.627763E-03  0.255E-01    3.11       1.0  T
   6    -65.5885849 -0.182829E-03  0.127E-01    3.11       1.0  T
   7    -65.5886421 -0.572422E-04  0.431E-02    3.13       1.0  T
   8    -65.5886467 -0.455448E-05  0.192E-02    3.13       1.0  T
   9    -65.5886478 -0.113628E-05  0.621E-03    3.12       2.5  T
  10    -65.5886478 -0.577678E-07  0.323E-03    3.13       4.8  T
  11    -65.5886479 -0.525091E-07  0.104E-03    3.12      15.0  T
  12    -65.5886479 -0.218030E-08  0.509E-04    3.12      30.7  T
  13    -65.5886479 -0.813003E-09  0.191E-04    3.12      81.6  T

   *** convergence criteria satisfied after 13 iterations ***

         #    Occupation            Energy/Eh            Energy/eV
      -------------------------------------------------------------
         1        2.0000           -0.7660428             -20.8451
       ...           ...                  ...                  ...
        52        2.0000           -0.4465121             -12.1502
        53        2.0000           -0.4188442             -11.3973
        54        2.0000           -0.4103722             -11.1668
        55        2.0000           -0.3961917             -10.7809
        56        2.0000           -0.3952045             -10.7541
        57        2.0000           -0.3933507             -10.7036
        58        2.0000           -0.3915821             -10.6555 (HOMO)
        59                         -0.2767489              -7.5307 (LUMO)
        60                         -0.2521351              -6.8609
        61                         -0.2146117              -5.8399
        62                         -0.1893291              -5.1519
        63                         -0.1869582              -5.0874
       ...                                ...                  ...
       128                          1.3296097              36.1805
      -------------------------------------------------------------
                  HL-Gap            0.1148332 Eh            3.1248 eV
             Fermi-level           -0.3341655 Eh           -9.0931 eV

 SCC (total)                   0 d,  0 h,  0 min,  0.068 sec
 SCC setup                      ...        0 min,  0.003 sec (  3.827%)
 Dispersion                     ...        0 min,  0.000 sec (  0.455%)
 classical contributions        ...        0 min,  0.000 sec (  0.087%)
 integral evaluation            ...        0 min,  0.014 sec ( 20.706%)
 iterations                     ...        0 min,  0.027 sec ( 40.506%)
 molecular gradient             ...        0 min,  0.023 sec ( 34.072%)
 printout                       ...        0 min,  0.000 sec (  0.329%)

         :::::::::::::::::::::::::::::::::::::::::::::::::::::
         ::                     SUMMARY                     ::
         :::::::::::::::::::::::::::::::::::::::::::::::::::::
         :: total energy             -65.026242640027 Eh    ::
         :: total w/o Gsasa/hb       -65.030004835958 Eh    ::
         :: gradient norm              0.000043250977 Eh/a0 ::
         :: HOMO-LUMO gap              3.124771703237 eV    ::
         ::.................................................::
         :: SCC energy               -65.587244089280 Eh    ::
         :: -> isotropic ES            0.125724462919 Eh    ::
         :: -> anisotropic ES         -0.015226808740 Eh    ::
         :: -> anisotropic XC          0.029958095298 Eh    ::
         :: -> dispersion             -0.054087472975 Eh    ::
         :: -> Gsolv                  -0.021093306530 Eh    ::
         ::    -> Gelec               -0.024855502461 Eh    ::
         ::    -> Gsasa                0.004624975075 Eh    ::
         ::    -> Ghb                 -0.003757328304 Eh    ::
         ::    -> Gshift               0.002894549160 Eh    ::
         :: repulsion energy           0.561001449253 Eh    ::
         :: add. restraining           0.000000000000 Eh    ::
         :: total charge               0.000000000000 e     ::
         :::::::::::::::::::::::::::::::::::::::::::::::::::::

           -------------------------------------------------
          |                Property Printout                |
           -------------------------------------------------

    * Orbital Energies and Occupations

         #    Occupation            Energy/Eh            Energy/eV
      -------------------------------------------------------------
         1        2.0000           -0.7660428             -20.8451
       ...           ...                  ...                  ...
        46        2.0000           -0.4693859             -12.7726
        47        2.0000           -0.4599344             -12.5155
        48        2.0000           -0.4555018             -12.3948
        49        2.0000           -0.4541118             -12.3570
        50        2.0000           -0.4519584             -12.2984
        51        2.0000           -0.4504295             -12.2568
        52        2.0000           -0.4465121             -12.1502
        53        2.0000           -0.4188442             -11.3973
        54        2.0000           -0.4103722             -11.1668
        55        2.0000           -0.3961917             -10.7809
        56        2.0000           -0.3952045             -10.7541
        57        2.0000           -0.3933507             -10.7036
        58        2.0000           -0.3915821             -10.6555 (HOMO)
        59                         -0.2767489              -7.5307 (LUMO)
        60                         -0.2521351              -6.8609
        61                         -0.2146117              -5.8399
        62                         -0.1893291              -5.1519
        63                         -0.1869582              -5.0874
        64                         -0.1797011              -4.8899
        65                         -0.1636024              -4.4518
        66                         -0.1541072              -4.1935
        67                         -0.1360777              -3.7029
        68                         -0.1244145              -3.3855
        69                         -0.0503053              -1.3689
       ...                                ...                  ...
       128                          1.3296097              36.1805
      -------------------------------------------------------------
                  HL-Gap            0.1148332 Eh            3.1248 eV
             Fermi-level           -0.3341655 Eh           -9.0931 eV

     #   Z          covCN         q      C6AA      α(0)
     1   6 C        3.751    -0.127    22.994     6.839
     2   6 C        3.856     0.078    19.254     6.241
     3   8 O        1.655    -0.267    18.437     5.796
     4  15 P        3.821     0.388   144.133    21.566
     5  16 S        0.927    -0.457   159.342    21.351
     6   8 O        1.654    -0.271    18.515     5.809
     7   6 C        3.823     0.074    19.325     6.256
     8   6 C        3.751    -0.127    23.005     6.840
     9  16 S        2.033    -0.153   147.490    20.440
    10   6 C        3.828     0.042    19.847     6.339
    11  16 S        2.016    -0.153   147.522    20.442
    12  15 P        3.880     0.377   144.572    21.599
    13  16 S        0.926    -0.451   159.035    21.330
    14   8 O        1.654    -0.260    18.331     5.780
    15   6 C        3.861     0.083    19.159     6.225
    16   6 C        3.751    -0.133    23.121     6.857
    17   8 O        1.655    -0.253    18.206     5.760
    18   6 C        3.862     0.072    19.334     6.253
    19   6 C        3.751    -0.131    23.072     6.850
    20   1 H        0.925     0.085     1.928     2.172
    21   1 H        0.925     0.053     2.287     2.365
    22   1 H        0.925     0.070     2.087     2.259
    23   1 H        0.924     0.088     1.898     2.155
    24   1 H        0.924     0.066     2.127     2.281
    25   1 H        0.924     0.075     2.036     2.231
    26   1 H        0.924     0.095     1.829     2.115
    27   1 H        0.925     0.089     1.885     2.147
    28   1 H        0.925     0.063     2.166     2.301
    29   1 H        0.925     0.057     2.239     2.340
    30   1 H        0.925     0.092     1.860     2.133
    31   1 H        0.925     0.092     1.857     2.131
    32   1 H        0.924     0.065     2.140     2.288
    33   1 H        0.924     0.081     1.972     2.196
    34   1 H        0.925     0.065     2.146     2.291
    35   1 H        0.925     0.088     1.900     2.156
    36   1 H        0.925     0.072     2.068     2.249
    37   1 H        0.924     0.095     1.831     2.116
    38   1 H        0.924     0.065     2.141     2.288
    39   1 H        0.925     0.073     2.048     2.238
    40   1 H        0.925     0.085     1.924     2.169
    41   1 H        0.925     0.054     2.270     2.356

 Mol. C6AA /au·bohr⁶  :      26394.145390
 Mol. C8AA /au·bohr⁸  :     862407.770245
 Mol. α(0) /au        :        257.547838


Wiberg/Mayer (AO) data.
largest (>0.10) Wiberg bond orders for each atom

 ---------------------------------------------------------------------------
     #   Z sym  total        # sym  WBO       # sym  WBO       # sym  WBO
 ---------------------------------------------------------------------------
     1   6 C    3.987 --     2 C    1.022    22 H    0.983    21 H    0.978
                            20 H    0.975
     2   6 C    3.888 --     1 C    1.022    24 H    0.965    23 H    0.964
                             3 O    0.879
     3   8 O    2.384 --     4 P    1.293     2 C    0.879
     4  15 P    5.293 --     5 S    1.545     6 O    1.334     3 O    1.293
                             9 S    0.975
     5  16 S    1.856 --     4 P    1.545     9 S    0.127
     6   8 O    2.390 --     4 P    1.334     7 C    0.866
     7   6 C    3.884 --     8 C    1.024    25 H    0.968    26 H    0.964
                             6 O    0.866
     8   6 C    3.987 --     7 C    1.024    28 H    0.982    29 H    0.975
                            27 H    0.973
     9  16 S    2.294 --    10 C    0.988     4 P    0.975     5 S    0.127
    10   6 C    3.955 --     9 S    0.988    11 S    0.987    31 H    0.957
                            30 H    0.953
    11  16 S    2.256 --    10 C    0.987    12 P    0.935    13 S    0.136
    12  15 P    5.302 --    13 S    1.553    14 O    1.342    17 O    1.327
                            11 S    0.935
    13  16 S    1.865 --    12 P    1.553    11 S    0.136
    14   8 O    2.398 --    12 P    1.342    15 C    0.866
    15   6 C    3.886 --    16 C    1.020    33 H    0.967    32 H    0.965
                            14 O    0.866
    16   6 C    3.984 --    15 C    1.020    36 H    0.983    34 H    0.981
                            35 H    0.974
    17   8 O    2.412 --    12 P    1.327    18 C    0.886
    18   6 C    3.889 --    19 C    1.023    38 H    0.969    37 H    0.964
                            17 O    0.886
    19   6 C    3.987 --    18 C    1.023    39 H    0.981    41 H    0.976
                            40 H    0.976
    20   1 H    0.992 --     1 C    0.975
    21   1 H    0.997 --     1 C    0.978
    22   1 H    0.995 --     1 C    0.983
    23   1 H    0.992 --     2 C    0.964
    24   1 H    0.996 --     2 C    0.965
    25   1 H    0.994 --     7 C    0.968
    26   1 H    0.991 --     7 C    0.964
    27   1 H    0.990 --     8 C    0.973
    28   1 H    0.996 --     8 C    0.982
    29   1 H    0.997 --     8 C    0.975
    30   1 H    0.991 --    10 C    0.953
    31   1 H    0.991 --    10 C    0.957
    32   1 H    0.996 --    15 C    0.965
    33   1 H    0.993 --    15 C    0.967
    34   1 H    0.996 --    16 C    0.981
    35   1 H    0.990 --    16 C    0.974
    36   1 H    0.995 --    16 C    0.983
    37   1 H    0.991 --    18 C    0.964
    38   1 H    0.996 --    18 C    0.969
    39   1 H    0.995 --    19 C    0.981
    40   1 H    0.992 --    19 C    0.976
    41   1 H    0.997 --    19 C    0.976
 ---------------------------------------------------------------------------

Topologies differ in total number of bonds
Writing topology from bond orders to xtbtopo.mol

molecular dipole:
                 x           y           z       tot (Debye)
 q only:       -0.722      -0.925       3.977
   full:       -0.545      -0.567       4.026      10.426
molecular quadrupole (traceless):
                xx          xy          yy          xz          yz          zz
 q only:       -2.728      29.205      -2.748      12.962       3.300       5.476
  q+dip:       -0.923      31.188      -5.491      10.234       2.627       6.414
   full:       -0.608      30.826      -5.305      10.930       2.714       5.913


           -------------------------------------------------
          | TOTAL ENERGY              -65.026242640027 Eh   |
          | GRADIENT NORM               0.000043250977 Eh/α |
          | HOMO-LUMO GAP               3.124771703237 eV   |
           -------------------------------------------------

------------------------------------------------------------------------
 * finished run on 2025/04/09 at 05:20:55.410     
------------------------------------------------------------------------
 total:
 * wall-time:     0 d,  0 h,  0 min,  0.123 sec
 *  cpu-time:     0 d,  0 h,  0 min,  0.075 sec
 * ratio c/w:     0.614 speedup
 SCF:
 * wall-time:     0 d,  0 h,  0 min,  0.068 sec
 *  cpu-time:     0 d,  0 h,  0 min,  0.061 sec
 * ratio c/w:     0.906 speedup

