 Entering Gaussian System
 *********************************************
 Gaussian 98:
 frequency output generated by the xtb code
 *********************************************
                         Standard orientation:
 --------------------------------------------------------------------
  Center     Atomic     Atomic              Coordinates (Angstroms)
  Number     Number      Type              X           Y           Z
 --------------------------------------------------------------------
    1          6             0        3.341738    1.437753   -0.000110
    2          6             0        2.020433    1.855935    0.000759
    3          6             0        0.992167    0.929177    0.001560
    4          6             0        1.286174   -0.435986    0.001523
    5          6             0        2.603562   -0.861354    0.000624
    6          6             0        3.619169    0.083238   -0.000193
    7         17             0        5.265951   -0.459325   -0.001386
    8          8             0        0.303523   -1.395539    0.002324
    9          6             0       -0.992175   -0.929188    0.001574
   10          6             0       -2.020441   -1.855945    0.000789
   11          6             0       -3.341746   -1.437763   -0.000058
   12          6             0       -3.619177   -0.083248   -0.000134
   13          6             0       -2.603570    0.861343    0.000668
   14          6             0       -1.286182    0.435976    0.001544
   15          8             0       -0.303532    1.395529    0.002331
   16         17             0       -5.265959    0.459315   -0.001299
   17          1             0        4.140772    2.159216   -0.000749
   18          1             0        1.769150    2.903120    0.000838
   19          1             0        2.812847   -1.917586    0.000588
   20          1             0       -1.769159   -2.903130    0.000862
   21          1             0       -4.140780   -2.159226   -0.000686
   22          1             0       -2.812855    1.917576    0.000638
 --------------------------------------------------------------------
     1 basis functions        1 primitive gaussians
     1 alpha electrons        1 beta electrons
 
 Harmonic frequencies (cm**-1), IR intensities (km*mol⁻¹),
 Raman scattering activities (A**4/amu), Raman depolarization ratios,
 reduced masses (AMU), force constants (mDyne/A) and normal coordinates:
                      1                      2                      3
                        a                      a                      a 
 Frequencies --    28.3355                88.1223               118.2416
 Red. masses --    25.0544                13.2022                18.0893
 Frc consts  --     0.0000                 0.0000                 0.0000
 IR Inten    --     0.0158                 2.6413                 0.0004
 Raman Activ --     0.0000                 0.0000                 0.0000
 Depolar     --     0.0000                 0.0000                 0.0000
 Atom AN      X      Y      Z        X      Y      Z        X      Y      Z
   1   6     0.00   0.00   0.04    -0.00  -0.00  -0.40    -0.00  -0.00  -0.20
   2   6     0.00  -0.00  -0.10    -0.00  -0.00  -0.36    -0.00  -0.00  -0.14
   3   6     0.00  -0.00  -0.21    -0.00  -0.00  -0.02    -0.00  -0.00  -0.06
   4   6     0.00  -0.00  -0.20    -0.00   0.00   0.12     0.00  -0.00  -0.25
   5   6     0.00   0.00  -0.05    -0.00  -0.00   0.14     0.00  -0.00  -0.33
   6   6     0.00   0.00   0.07    -0.00  -0.00  -0.07    -0.00   0.00  -0.20
   7  17     0.00   0.00   0.51    -0.00  -0.00   0.22     0.00   0.01   0.35
   8   8    -0.00  -0.00  -0.37    -0.00   0.00   0.24    -0.00  -0.00  -0.30
   9   6    -0.00   0.00  -0.21     0.00   0.00  -0.02    -0.00  -0.00   0.06
  10   6    -0.00   0.00  -0.10     0.00   0.00  -0.36    -0.00  -0.00   0.14
  11   6    -0.00  -0.00   0.04     0.00   0.00  -0.40    -0.00  -0.00   0.20
  12   6    -0.00  -0.00   0.07     0.00   0.00  -0.07    -0.00   0.00   0.20
  13   6    -0.00  -0.00  -0.05     0.00   0.00   0.14     0.00  -0.00   0.33
  14   6    -0.00   0.00  -0.20     0.00  -0.00   0.12     0.00  -0.00   0.25
  15   8     0.00   0.00  -0.37     0.00  -0.00   0.24    -0.00  -0.00   0.30
  16  17    -0.00  -0.00   0.51     0.00   0.00   0.22     0.00   0.01  -0.35
  17   1     0.00   0.00   0.04    -0.00  -0.00  -0.18    -0.00   0.00  -0.05
  18   1     0.00  -0.00  -0.03    -0.00  -0.00  -0.16    -0.00  -0.00  -0.02
  19   1     0.00   0.00  -0.01     0.00   0.00   0.09     0.00  -0.00  -0.12
  20   1    -0.00   0.00  -0.03     0.00   0.00  -0.16    -0.00  -0.00   0.02
  21   1    -0.00  -0.00   0.04     0.00   0.00  -0.18    -0.00   0.00   0.05
  22   1    -0.00  -0.00  -0.01    -0.00  -0.00   0.09     0.00  -0.00   0.12
                      4                      5                      6
                        a                      a                      a 
 Frequencies --   123.1054               190.2126               199.3959
 Red. masses --    26.4144                14.0463                25.4347
 Frc consts  --     0.0000                 0.0000                 0.0000
 IR Inten    --     0.5070                 1.8626                 0.0000
 Raman Activ --     0.0000                 0.0000                 0.0000
 Depolar     --     0.0000                 0.0000                 0.0000
 Atom AN      X      Y      Z        X      Y      Z        X      Y      Z
   1   6     0.10   0.01  -0.00     0.00  -0.00   0.01    -0.08   0.20   0.00
   2   6     0.12   0.11  -0.00     0.00  -0.00  -0.08    -0.11   0.15  -0.00
   3   6     0.03   0.20  -0.00     0.00  -0.00  -0.07    -0.07   0.11  -0.00
   4   6    -0.01   0.20  -0.00     0.00  -0.00   0.11    -0.05   0.11  -0.00
   5   6    -0.05   0.09  -0.01     0.00  -0.00   0.47    -0.06   0.17   0.00
   6   6     0.02  -0.00  -0.00     0.00  -0.00   0.27    -0.10   0.19   0.00
   7  17    -0.14  -0.53   0.00     0.00   0.00  -0.22    -0.45  -0.29   0.00
   8   8     0.01   0.24  -0.00    -0.00  -0.00  -0.31     0.10  -0.00  -0.00
   9   6     0.03   0.20   0.00    -0.00   0.00  -0.07     0.07  -0.11  -0.00
  10   6     0.12   0.11   0.00    -0.00   0.00  -0.08     0.11  -0.15  -0.00
  11   6     0.10   0.01   0.00    -0.00   0.00   0.01     0.08  -0.20   0.00
  12   6     0.02  -0.00   0.00    -0.00   0.00   0.27     0.10  -0.19   0.00
  13   6    -0.05   0.09   0.01    -0.00   0.00   0.47     0.06  -0.17   0.00
  14   6    -0.01   0.20   0.00    -0.00   0.00   0.11     0.05  -0.11  -0.00
  15   8     0.01   0.24   0.00     0.00   0.00  -0.31    -0.10   0.00  -0.00
  16  17    -0.14  -0.53  -0.00    -0.00  -0.00  -0.22     0.45   0.29   0.00
  17   1     0.04  -0.01  -0.00     0.00  -0.00  -0.05    -0.03   0.06   0.00
  18   1     0.06   0.04  -0.00     0.00  -0.00  -0.08    -0.04   0.04  -0.00
  19   1    -0.05   0.02  -0.00     0.00  -0.00   0.18    -0.00   0.05   0.00
  20   1     0.06   0.04   0.00    -0.00   0.00  -0.08     0.04  -0.04  -0.00
  21   1     0.04  -0.01   0.00    -0.00   0.00  -0.05     0.03  -0.06   0.00
  22   1    -0.05   0.02   0.00    -0.00   0.00   0.18     0.00  -0.05   0.00
                      7                      8                      9
                        a                      a                      a 
 Frequencies --   228.0481               281.9736               307.0028
 Red. masses --    12.6954                23.8604                16.3513
 Frc consts  --     0.0000                 0.0000                 0.0000
 IR Inten    --     0.0001                 0.0000                 7.7781
 Raman Activ --     0.0000                 0.0000                 0.0000
 Depolar     --     0.0000                 0.0000                 0.0000
 Atom AN      X      Y      Z        X      Y      Z        X      Y      Z
   1   6     0.00  -0.00   0.25    -0.11  -0.15   0.00     0.00  -0.29  -0.00
   2   6     0.00  -0.00   0.04    -0.05  -0.08  -0.00     0.08  -0.04   0.00
   3   6    -0.00  -0.00  -0.22     0.00  -0.10  -0.00    -0.09   0.15   0.00
   4   6    -0.00  -0.00  -0.11    -0.09  -0.12  -0.00    -0.11   0.14   0.00
   5   6    -0.00  -0.00  -0.33    -0.14  -0.21   0.00    -0.17  -0.13   0.00
   6   6    -0.00  -0.00  -0.10    -0.22  -0.16   0.00    -0.03  -0.30  -0.00
   7  17     0.00   0.00   0.04    -0.41   0.29   0.00     0.28   0.15  -0.00
   8   8    -0.00   0.00   0.46    -0.11  -0.07  -0.00    -0.14   0.22  -0.00
   9   6    -0.00  -0.00   0.22    -0.00   0.10  -0.00    -0.09   0.15  -0.00
  10   6     0.00  -0.00  -0.04     0.05   0.08  -0.00     0.08  -0.04  -0.00
  11   6     0.00  -0.00  -0.25     0.11   0.15   0.00     0.00  -0.29   0.00
  12   6    -0.00  -0.00   0.10     0.22   0.16   0.00    -0.03  -0.30   0.00
  13   6    -0.00  -0.00   0.33     0.14   0.21   0.00    -0.17  -0.13  -0.00
  14   6    -0.00  -0.00   0.11     0.09   0.12  -0.00    -0.11   0.14  -0.00
  15   8    -0.00   0.00  -0.46     0.11   0.07  -0.00    -0.14   0.22   0.00
  16  17     0.00   0.00  -0.04     0.41  -0.29   0.00     0.28   0.15   0.00
  17   1     0.00  -0.00   0.18    -0.01  -0.07   0.00     0.02  -0.11  -0.00
  18   1     0.00  -0.00   0.04    -0.02  -0.03  -0.00     0.10   0.01   0.00
  19   1    -0.00  -0.00  -0.12    -0.04  -0.06   0.00    -0.13  -0.05   0.00
  20   1     0.00  -0.00  -0.04     0.02   0.03  -0.00     0.10   0.01  -0.00
  21   1     0.00  -0.00  -0.18     0.01   0.07   0.00     0.02  -0.11   0.00
  22   1    -0.00  -0.00   0.12     0.04   0.06   0.00    -0.13  -0.05  -0.00
                     10                     11                     12
                        a                      a                      a 
 Frequencies --   338.3128               346.9679               393.4615
 Red. masses --    12.2054                11.7194                24.0237
 Frc consts  --     0.0000                 0.0000                 0.0000
 IR Inten    --     0.0000                 4.8408                 2.5950
 Raman Activ --     0.0000                 0.0000                 0.0000
 Depolar     --     0.0000                 0.0000                 0.0000
 Atom AN      X      Y      Z        X      Y      Z        X      Y      Z
   1   6    -0.00   0.00  -0.26     0.00  -0.00   0.31     0.12  -0.12  -0.00
   2   6     0.00   0.00   0.32    -0.00   0.00  -0.35     0.20   0.03  -0.00
   3   6     0.00  -0.00   0.28    -0.00   0.00  -0.23     0.19   0.03  -0.00
   4   6     0.00  -0.00   0.20     0.00   0.00  -0.06     0.11   0.01  -0.00
   5   6     0.00  -0.00  -0.05    -0.00  -0.00  -0.09     0.01  -0.19  -0.00
   6   6    -0.00   0.00  -0.33     0.00  -0.00   0.27    -0.09  -0.14   0.00
   7  17    -0.00   0.00   0.12    -0.00  -0.00  -0.09    -0.47   0.21   0.00
   8   8     0.00  -0.00   0.22    -0.00   0.00   0.28     0.18   0.03  -0.00
   9   6     0.00  -0.00  -0.28     0.00  -0.00  -0.23     0.19   0.03   0.00
  10   6     0.00   0.00  -0.32     0.00  -0.00  -0.35     0.20   0.03   0.00
  11   6    -0.00   0.00   0.26    -0.00   0.00   0.31     0.12  -0.12   0.00
  12   6    -0.00   0.00   0.33    -0.00   0.00   0.27    -0.09  -0.14  -0.00
  13   6     0.00  -0.00   0.05     0.00   0.00  -0.09     0.01  -0.19   0.00
  14   6     0.00  -0.00  -0.20    -0.00  -0.00  -0.06     0.11   0.01   0.00
  15   8     0.00  -0.00  -0.22     0.00  -0.00   0.28     0.18   0.03   0.00
  16  17    -0.00   0.00  -0.12     0.00   0.00  -0.09    -0.47   0.21  -0.00
  17   1    -0.00   0.00  -0.13     0.00   0.00   0.18     0.08  -0.08  -0.00
  18   1     0.00   0.00   0.14    -0.00   0.00  -0.16     0.08   0.01  -0.00
  19   1     0.00   0.00  -0.01    -0.00  -0.00  -0.05    -0.01  -0.06  -0.00
  20   1     0.00   0.00  -0.14     0.00  -0.00  -0.16     0.08   0.01   0.00
  21   1    -0.00   0.00   0.13    -0.00  -0.00   0.18     0.08  -0.08   0.00
  22   1     0.00   0.00   0.01     0.00   0.00  -0.05    -0.01  -0.06   0.00
                     13                     14                     15
                        a                      a                      a 
 Frequencies --   421.8418               432.5364               438.3549
 Red. masses --     9.5690                10.2042                12.2921
 Frc consts  --     0.0000                 0.0000                 0.0000
 IR Inten    --     0.0000                 0.3551                 0.0000
 Raman Activ --     0.0000                 0.0000                 0.0000
 Depolar     --     0.0000                 0.0000                 0.0000
 Atom AN      X      Y      Z        X      Y      Z        X      Y      Z
   1   6     0.00   0.00   0.10     0.00   0.00  -0.05     0.28  -0.01   0.00
   2   6    -0.00  -0.00  -0.26     0.00   0.00   0.19     0.34   0.20  -0.00
   3   6     0.00   0.00   0.34     0.00   0.00  -0.36     0.21   0.24   0.00
   4   6     0.00   0.00   0.34    -0.00   0.00  -0.32    -0.06   0.19   0.00
   5   6    -0.00   0.00  -0.26    -0.00   0.00   0.23    -0.11   0.04  -0.00
   6   6     0.00   0.00   0.12    -0.00  -0.00  -0.11    -0.02  -0.06   0.00
   7  17     0.00  -0.00  -0.00    -0.00   0.00  -0.00    -0.11   0.12   0.00
   8   8    -0.00  -0.00   0.00    -0.00   0.00   0.24    -0.09   0.13  -0.00
   9   6     0.00   0.00  -0.34    -0.00  -0.00  -0.36    -0.21  -0.24   0.00
  10   6    -0.00  -0.00   0.26    -0.00  -0.00   0.19    -0.34  -0.20  -0.00
  11   6     0.00   0.00  -0.10    -0.00  -0.00  -0.05    -0.28   0.01   0.00
  12   6     0.00   0.00  -0.12     0.00   0.00  -0.11     0.02   0.06   0.00
  13   6    -0.00   0.00   0.26     0.00  -0.00   0.23     0.11  -0.04  -0.00
  14   6     0.00   0.00  -0.34     0.00  -0.00  -0.32     0.06  -0.19   0.00
  15   8    -0.00  -0.00  -0.00     0.00  -0.00   0.24     0.09  -0.13  -0.00
  16  17     0.00  -0.00   0.00     0.00  -0.00  -0.00     0.11  -0.12   0.00
  17   1    -0.00   0.00   0.00     0.00  -0.00   0.03     0.13  -0.06  -0.00
  18   1    -0.00  -0.00  -0.23     0.00   0.00   0.22     0.15   0.07  -0.00
  19   1    -0.00  -0.00  -0.24     0.00   0.00   0.24    -0.06   0.01  -0.00
  20   1    -0.00  -0.00   0.23    -0.00  -0.00   0.22    -0.15  -0.07  -0.00
  21   1    -0.00   0.00  -0.00    -0.00   0.00   0.03    -0.13   0.06  -0.00
  22   1    -0.00  -0.00   0.24    -0.00  -0.00   0.24     0.06  -0.01  -0.00
                     16                     17                     18
                        a                      a                      a 
 Frequencies --   452.1424               542.4978               546.1137
 Red. masses --    12.7714                13.9837                11.2132
 Frc consts  --     0.0000                 0.0000                 0.0000
 IR Inten    --     0.0000                 0.0002                 5.2985
 Raman Activ --     0.0000                 0.0000                 0.0000
 Depolar     --     0.0000                 0.0000                 0.0000
 Atom AN      X      Y      Z        X      Y      Z        X      Y      Z
   1   6    -0.19  -0.22   0.00    -0.13  -0.06  -0.00    -0.00  -0.00   0.24
   2   6    -0.10   0.08   0.00    -0.09   0.14   0.00    -0.00   0.00  -0.11
   3   6    -0.22   0.23  -0.00     0.08  -0.02   0.00     0.00  -0.00  -0.16
   4   6    -0.07   0.26  -0.00     0.30   0.07  -0.00     0.00   0.00   0.33
   5   6    -0.18  -0.02   0.00     0.21  -0.23  -0.00     0.00  -0.00   0.12
   6   6    -0.06  -0.21  -0.00     0.02  -0.05   0.00    -0.00  -0.00  -0.48
   7  17     0.14  -0.00  -0.00    -0.09  -0.02  -0.00    -0.00  -0.00   0.04
   8   8     0.29  -0.04   0.00     0.07   0.47  -0.00     0.00   0.00  -0.07
   9   6     0.22  -0.23  -0.00    -0.08   0.02   0.00    -0.00   0.00  -0.16
  10   6     0.10  -0.08   0.00     0.09  -0.14   0.00     0.00  -0.00  -0.11
  11   6     0.19   0.22   0.00     0.13   0.06  -0.00     0.00   0.00   0.24
  12   6     0.06   0.21  -0.00    -0.02   0.05   0.00     0.00   0.00  -0.48
  13   6     0.18   0.02   0.00    -0.21   0.23  -0.00    -0.00   0.00   0.12
  14   6     0.07  -0.26  -0.00    -0.30  -0.07  -0.00    -0.00  -0.00   0.33
  15   8    -0.29   0.04   0.00    -0.07  -0.47  -0.00    -0.00  -0.00  -0.07
  16  17    -0.14   0.00  -0.00     0.09   0.02  -0.00     0.00   0.00   0.04
  17   1    -0.04  -0.08   0.00    -0.03  -0.03  -0.00    -0.00  -0.00   0.19
  18   1     0.05   0.04   0.00    -0.01   0.04  -0.00    -0.00   0.00  -0.01
  19   1    -0.16  -0.03   0.00     0.06  -0.06  -0.00     0.00  -0.00   0.07
  20   1    -0.05  -0.04   0.00     0.01  -0.04  -0.00     0.00  -0.00  -0.01
  21   1     0.04   0.08   0.00     0.03   0.03  -0.00     0.00   0.00   0.19
  22   1     0.16   0.03   0.00    -0.06   0.06  -0.00    -0.00   0.00   0.07
                     19                     20                     21
                        a                      a                      a 
 Frequencies --   553.5612               609.9737               617.3437
 Red. masses --    11.3544                12.3774                16.0731
 Frc consts  --     0.0000                 0.0000                 0.0000
 IR Inten    --     0.0000                 3.4858                 0.0000
 Raman Activ --     0.0000                 0.0000                 0.0000
 Depolar     --     0.0000                 0.0000                 0.0000
 Atom AN      X      Y      Z        X      Y      Z        X      Y      Z
   1   6     0.00   0.00   0.25     0.35   0.03  -0.00     0.19  -0.11  -0.00
   2   6    -0.00   0.00  -0.14     0.23  -0.32  -0.00     0.13  -0.29  -0.00
   3   6    -0.00   0.00  -0.14    -0.08  -0.05  -0.00    -0.16  -0.00   0.00
   4   6     0.00   0.00   0.29    -0.20  -0.03   0.00     0.15   0.05  -0.00
   5   6     0.00   0.00   0.14    -0.11   0.27  -0.00     0.18   0.08  -0.00
   6   6    -0.00  -0.00  -0.47     0.12   0.05   0.00     0.24  -0.04  -0.00
   7  17     0.00   0.00   0.04    -0.10   0.08   0.00    -0.26   0.09   0.00
   8   8    -0.00  -0.00  -0.17    -0.15  -0.07  -0.00     0.32  -0.07   0.00
   9   6    -0.00   0.00   0.14    -0.08  -0.05   0.00     0.16   0.00   0.00
  10   6    -0.00   0.00   0.14     0.23  -0.32   0.00    -0.13   0.29  -0.00
  11   6     0.00   0.00  -0.25     0.35   0.03   0.00    -0.19   0.11  -0.00
  12   6    -0.00  -0.00   0.47     0.12   0.05  -0.00    -0.24   0.04  -0.00
  13   6     0.00   0.00  -0.14    -0.11   0.27   0.00    -0.18  -0.08  -0.00
  14   6     0.00   0.00  -0.29    -0.20  -0.03  -0.00    -0.15  -0.05  -0.00
  15   8    -0.00  -0.00   0.17    -0.15  -0.07   0.00    -0.32   0.07   0.00
  16  17     0.00   0.00  -0.04    -0.10   0.08  -0.00     0.26  -0.09   0.00
  17   1     0.00   0.00   0.19     0.07   0.04  -0.00     0.02   0.00  -0.00
  18   1     0.00   0.00  -0.01     0.07  -0.09  -0.00     0.09  -0.07  -0.00
  19   1     0.00   0.00   0.08    -0.02   0.08  -0.00     0.03   0.02  -0.00
  20   1     0.00   0.00   0.01     0.07  -0.09  -0.00    -0.09   0.07  -0.00
  21   1     0.00   0.00  -0.19     0.07   0.04   0.00    -0.02  -0.00  -0.00
  22   1     0.00   0.00  -0.08    -0.02   0.08   0.00    -0.03  -0.02  -0.00
                     22                     23                     24
                        a                      a                      a 
 Frequencies --   653.8834               658.2908               724.3308
 Red. masses --    11.6728                11.8290                13.3744
 Frc consts  --     0.0000                 0.0000                 0.0000
 IR Inten    --     0.0087                 0.0000                29.4181
 Raman Activ --     0.0000                 0.0000                 0.0000
 Depolar     --     0.0000                 0.0000                 0.0000
 Atom AN      X      Y      Z        X      Y      Z        X      Y      Z
   1   6     0.00  -0.00   0.18     0.00  -0.00   0.17    -0.13  -0.13  -0.00
   2   6    -0.00  -0.00  -0.20    -0.00  -0.00  -0.19    -0.13  -0.31   0.00
   3   6     0.00   0.00   0.42     0.00  -0.00   0.42    -0.16  -0.07  -0.00
   4   6    -0.00  -0.00  -0.40    -0.00  -0.00  -0.40     0.18   0.06   0.00
   5   6     0.00   0.00   0.19     0.00   0.00   0.18     0.24   0.03  -0.00
   6   6    -0.00  -0.00  -0.20     0.00   0.00  -0.19     0.25  -0.01  -0.00
   7  17    -0.00   0.00   0.00    -0.00   0.00   0.00    -0.15   0.03   0.00
   8   8     0.00   0.00  -0.00    -0.00   0.00   0.13     0.01   0.34  -0.00
   9   6    -0.00  -0.00   0.42     0.00  -0.00  -0.42    -0.16  -0.07   0.00
  10   6     0.00   0.00  -0.20    -0.00  -0.00   0.19    -0.13  -0.31  -0.00
  11   6    -0.00   0.00   0.18     0.00  -0.00  -0.17    -0.13  -0.13   0.00
  12   6     0.00   0.00  -0.20     0.00   0.00   0.19     0.25  -0.01   0.00
  13   6    -0.00  -0.00   0.19     0.00   0.00  -0.18     0.24   0.03   0.00
  14   6     0.00   0.00  -0.40    -0.00  -0.00   0.40     0.18   0.06  -0.00
  15   8    -0.00  -0.00  -0.00    -0.00   0.00  -0.13     0.01   0.34   0.00
  16  17     0.00  -0.00   0.00    -0.00   0.00  -0.00    -0.15   0.03  -0.00
  17   1     0.00   0.00   0.04    -0.00   0.00   0.03    -0.11   0.05   0.00
  18   1    -0.00  -0.00  -0.08    -0.00  -0.00  -0.08    -0.03  -0.09   0.00
  19   1     0.00   0.00   0.08     0.00   0.00   0.08     0.07   0.01  -0.00
  20   1     0.00   0.00  -0.08    -0.00  -0.00   0.08    -0.03  -0.09  -0.00
  21   1    -0.00  -0.00   0.04    -0.00   0.00  -0.03    -0.11   0.05  -0.00
  22   1    -0.00  -0.00   0.08     0.00   0.00  -0.08     0.07   0.01   0.00
                     25                     26                     27
                        a                      a                      a 
 Frequencies --   754.5371               821.4567               824.6278
 Red. masses --    12.9163                 3.8086                 3.8753
 Frc consts  --     0.0000                 0.0000                 0.0000
 IR Inten    --     0.0000                 0.0000               105.7257
 Raman Activ --     0.0000                 0.0000                 0.0000
 Depolar     --     0.0000                 0.0000                 0.0000
 Atom AN      X      Y      Z        X      Y      Z        X      Y      Z
   1   6    -0.00  -0.05   0.00    -0.00   0.00  -0.20     0.00   0.00   0.21
   2   6    -0.05  -0.31   0.00    -0.00   0.00  -0.19     0.00   0.00   0.18
   3   6    -0.05  -0.13   0.00     0.00   0.00   0.14    -0.00   0.00  -0.14
   4   6    -0.15   0.12   0.00    -0.00  -0.00   0.06    -0.00  -0.00  -0.06
   5   6    -0.20   0.27   0.00    -0.00  -0.00  -0.13     0.00  -0.00   0.12
   6   6     0.02   0.01  -0.00    -0.00   0.00   0.11    -0.00   0.00  -0.11
   7  17     0.01   0.02  -0.00     0.00  -0.00  -0.01     0.00  -0.00   0.01
   8   8    -0.13   0.43  -0.00    -0.00   0.00   0.01     0.00  -0.00   0.06
   9   6     0.05   0.13   0.00     0.00   0.00  -0.14     0.00  -0.00  -0.14
  10   6     0.05   0.31   0.00    -0.00   0.00   0.19    -0.00  -0.00   0.18
  11   6     0.00   0.05   0.00    -0.00   0.00   0.20    -0.00  -0.00   0.21
  12   6    -0.02  -0.01  -0.00    -0.00   0.00  -0.11     0.00  -0.00  -0.11
  13   6     0.20  -0.27   0.00    -0.00  -0.00   0.13    -0.00   0.00   0.12
  14   6     0.15  -0.12   0.00    -0.00  -0.00  -0.06     0.00   0.00  -0.06
  15   8     0.13  -0.43  -0.00    -0.00   0.00  -0.01    -0.00   0.00   0.06
  16  17    -0.01  -0.02  -0.00     0.00  -0.00   0.01    -0.00   0.00   0.01
  17   1    -0.05   0.04  -0.00     0.00   0.00   0.43    -0.00  -0.00  -0.44
  18   1    -0.04  -0.10  -0.00     0.00   0.00   0.35    -0.00  -0.00  -0.34
  19   1    -0.11   0.06  -0.00     0.00   0.00   0.26    -0.00  -0.00  -0.24
  20   1     0.04   0.10  -0.00     0.00   0.00  -0.35     0.00   0.00  -0.34
  21   1     0.05  -0.04  -0.00     0.00   0.00  -0.43     0.00   0.00  -0.44
  22   1     0.11  -0.06  -0.00     0.00   0.00  -0.26     0.00   0.00  -0.24
                     28                     29                     30
                        a                      a                      a 
 Frequencies --   839.9648               861.7907               861.9158
 Red. masses --    12.5838                 3.2624                 3.2476
 Frc consts  --     0.0000                 0.0000                 0.0000
 IR Inten    --    48.0277                 0.0001                 5.8037
 Raman Activ --     0.0000                 0.0000                 0.0000
 Depolar     --     0.0000                 0.0000                 0.0000
 Atom AN      X      Y      Z        X      Y      Z        X      Y      Z
   1   6     0.20   0.21  -0.00     0.00   0.00  -0.11     0.00  -0.00   0.09
   2   6     0.06  -0.01   0.00    -0.00  -0.00  -0.09     0.00   0.00   0.10
   3   6    -0.03  -0.00  -0.00     0.00  -0.00  -0.02     0.00   0.00   0.02
   4   6     0.05  -0.17   0.00    -0.00  -0.00  -0.03     0.00   0.00   0.04
   5   6     0.13  -0.35  -0.00     0.00  -0.00   0.28    -0.00  -0.00  -0.28
   6   6    -0.14   0.09   0.00    -0.00   0.00  -0.01     0.00  -0.00   0.01
   7  17     0.04  -0.02  -0.00     0.00  -0.00   0.00    -0.00   0.00  -0.00
   8   8    -0.35   0.23  -0.00     0.00   0.00   0.02    -0.00   0.00  -0.02
   9   6    -0.03  -0.00   0.00     0.00  -0.00   0.02     0.00  -0.00   0.02
  10   6     0.06  -0.01  -0.00    -0.00  -0.00   0.09    -0.00  -0.00   0.10
  11   6     0.20   0.21   0.00     0.00   0.00   0.11    -0.00   0.00   0.09
  12   6    -0.14   0.09  -0.00    -0.00   0.00   0.01    -0.00   0.00   0.01
  13   6     0.13  -0.35   0.00     0.00  -0.00  -0.28     0.00   0.00  -0.29
  14   6     0.05  -0.17  -0.00    -0.00  -0.00   0.03    -0.00  -0.00   0.04
  15   8    -0.35   0.23   0.00     0.00   0.00  -0.02     0.00  -0.00  -0.02
  16  17     0.04  -0.02   0.00     0.00  -0.00  -0.00     0.00  -0.00  -0.00
  17   1     0.07   0.04  -0.00     0.00   0.00   0.15    -0.00  -0.00  -0.12
  18   1    -0.02  -0.01  -0.00     0.00  -0.00   0.24    -0.00  -0.00  -0.25
  19   1     0.17  -0.07  -0.00    -0.00  -0.00  -0.57     0.00   0.00   0.57
  20   1    -0.02  -0.01   0.00     0.00  -0.00  -0.24     0.00   0.00  -0.25
  21   1     0.07   0.04   0.00     0.00   0.00  -0.15     0.00   0.00  -0.12
  22   1     0.17  -0.07   0.00    -0.00  -0.00   0.56    -0.00  -0.00   0.57
                     31                     32                     33
                        a                      a                      a 
 Frequencies --   876.5649               889.0473               897.1720
 Red. masses --    12.8749                12.8191                 3.4095
 Frc consts  --     0.0000                 0.0000                 0.0000
 IR Inten    --   417.2903                 0.0001                 0.0001
 Raman Activ --     0.0000                 0.0000                 0.0000
 Depolar     --     0.0000                 0.0000                 0.0000
 Atom AN      X      Y      Z        X      Y      Z        X      Y      Z
   1   6     0.03   0.15   0.00     0.24   0.25  -0.00    -0.00   0.00  -0.22
   2   6    -0.02  -0.25   0.00     0.06  -0.15  -0.00     0.00  -0.00   0.23
   3   6     0.06  -0.16  -0.00    -0.07  -0.05   0.00     0.00  -0.00  -0.00
   4   6    -0.05   0.04   0.00    -0.00  -0.01   0.00    -0.00   0.00  -0.05
   5   6    -0.19  -0.05  -0.00    -0.11  -0.24   0.00    -0.00   0.00   0.06
   6   6    -0.33   0.06   0.00    -0.37   0.08   0.00    -0.00   0.00  -0.01
   7  17     0.11  -0.03  -0.00     0.11  -0.03  -0.00     0.00  -0.00  -0.00
   8   8     0.34   0.24  -0.00     0.29   0.10  -0.00     0.00   0.00  -0.01
   9   6     0.06  -0.16   0.00     0.07   0.05   0.00     0.00  -0.00   0.00
  10   6    -0.02  -0.25  -0.00    -0.06   0.15  -0.00     0.00  -0.00  -0.23
  11   6     0.03   0.15  -0.00    -0.24  -0.25  -0.00    -0.00   0.00   0.22
  12   6    -0.33   0.06  -0.00     0.37  -0.08   0.00    -0.00   0.00   0.01
  13   6    -0.19  -0.05   0.00     0.11   0.24   0.00    -0.00   0.00  -0.06
  14   6    -0.05   0.04  -0.00     0.00   0.01   0.00    -0.00   0.00   0.05
  15   8     0.34   0.24   0.00    -0.29  -0.10  -0.00     0.00   0.00   0.01
  16  17     0.11  -0.03   0.00    -0.11   0.03  -0.00     0.00  -0.00   0.00
  17   1    -0.00   0.05  -0.00     0.10   0.03  -0.00     0.00   0.00   0.43
  18   1    -0.16  -0.11   0.00    -0.07  -0.06   0.00    -0.00  -0.00  -0.45
  19   1    -0.09  -0.02   0.00    -0.02  -0.06   0.00    -0.00  -0.00  -0.04
  20   1    -0.16  -0.11  -0.00     0.07   0.06   0.00    -0.00  -0.00   0.45
  21   1    -0.00   0.05   0.00    -0.10  -0.03  -0.00     0.00   0.00  -0.43
  22   1    -0.09  -0.02  -0.00     0.02   0.06   0.00    -0.00  -0.00   0.04
                     34                     35                     36
                        a                      a                      a 
 Frequencies --   898.1801              1077.3481              1078.6120
 Red. masses --     3.4856                 5.7759                 7.3396
 Frc consts  --     0.0000                 0.0000                 0.0000
 IR Inten    --     4.3827               106.5447                 0.0000
 Raman Activ --     0.0000                 0.0000                 0.0000
 Depolar     --     0.0000                 0.0000                 0.0000
 Atom AN      X      Y      Z        X      Y      Z        X      Y      Z
   1   6     0.00   0.00   0.22     0.13   0.21  -0.00    -0.08  -0.20   0.00
   2   6    -0.00   0.00  -0.23    -0.05   0.02   0.00     0.03   0.05  -0.00
   3   6     0.00   0.00   0.01    -0.06   0.02   0.00     0.11  -0.09  -0.00
   4   6     0.00  -0.00   0.06     0.07   0.14  -0.00    -0.10  -0.19   0.00
   5   6    -0.00   0.00  -0.08    -0.01  -0.19   0.00    -0.02   0.23   0.00
   6   6     0.00  -0.00   0.01     0.24  -0.10  -0.00    -0.20   0.05   0.00
   7  17    -0.00   0.00   0.00    -0.04   0.01   0.00     0.04  -0.01  -0.00
   8   8    -0.00  -0.00  -0.02    -0.03  -0.11   0.00     0.21   0.08  -0.00
   9   6    -0.00  -0.00   0.01    -0.06   0.02  -0.00    -0.11   0.09  -0.00
  10   6     0.00  -0.00  -0.23    -0.05   0.02  -0.00    -0.03  -0.05  -0.00
  11   6    -0.00  -0.00   0.22     0.13   0.21   0.00     0.08   0.20   0.00
  12   6    -0.00   0.00   0.01     0.24  -0.10   0.00     0.20  -0.05   0.00
  13   6     0.00  -0.00  -0.08    -0.01  -0.19  -0.00     0.02  -0.23   0.00
  14   6    -0.00   0.00   0.06     0.07   0.14   0.00     0.10   0.19   0.00
  15   8     0.00   0.00  -0.02    -0.03  -0.11  -0.00    -0.21  -0.08  -0.00
  16  17     0.00  -0.00   0.00    -0.04   0.01  -0.00    -0.04   0.01  -0.00
  17   1    -0.00  -0.00  -0.42    -0.05   0.16   0.00     0.12  -0.22  -0.00
  18   1     0.00   0.00   0.45    -0.23  -0.04   0.00     0.15   0.05  -0.00
  19   1     0.00   0.00   0.07    -0.44  -0.14   0.00     0.36   0.14  -0.00
  20   1    -0.00  -0.00   0.45    -0.23  -0.04  -0.00    -0.15  -0.05  -0.00
  21   1     0.00   0.00  -0.42    -0.05   0.16  -0.00    -0.12   0.22  -0.00
  22   1    -0.00  -0.00   0.07    -0.44  -0.14  -0.00    -0.36  -0.14  -0.00
                     37                     38                     39
                        a                      a                      a 
 Frequencies --  1090.9520              1100.9284              1155.8336
 Red. masses --     7.8928                 8.7029                 5.3760
 Frc consts  --     0.0000                 0.0000                 0.0000
 IR Inten    --     0.0000               274.7800                 0.0000
 Raman Activ --     0.0000                 0.0000                 0.0000
 Depolar     --     0.0000                 0.0000                 0.0000
 Atom AN      X      Y      Z        X      Y      Z        X      Y      Z
   1   6    -0.08  -0.02   0.00     0.01  -0.06   0.00    -0.06   0.03   0.00
   2   6     0.06  -0.20  -0.00    -0.04   0.19   0.00     0.06   0.03  -0.00
   3   6    -0.19   0.19   0.00     0.25  -0.19  -0.00     0.19  -0.06  -0.00
   4   6     0.09   0.15  -0.00    -0.14  -0.20   0.00    -0.14  -0.20   0.00
   5   6     0.06  -0.10  -0.00    -0.05   0.14   0.00    -0.10  -0.06   0.00
   6   6    -0.20   0.14   0.00     0.18  -0.12  -0.00     0.09  -0.01  -0.00
   7  17     0.03  -0.02  -0.00    -0.03   0.01   0.00    -0.01   0.00   0.00
   8   8    -0.25  -0.02  -0.00    -0.08   0.22  -0.00     0.22   0.06  -0.00
   9   6     0.19  -0.19   0.00     0.25  -0.19   0.00    -0.19   0.06  -0.00
  10   6    -0.06   0.20  -0.00    -0.04   0.19  -0.00    -0.06  -0.03  -0.00
  11   6     0.08   0.02   0.00     0.01  -0.06  -0.00     0.06  -0.03   0.00
  12   6     0.20  -0.14   0.00     0.18  -0.12   0.00    -0.09   0.01  -0.00
  13   6    -0.06   0.10  -0.00    -0.05   0.14  -0.00     0.10   0.06   0.00
  14   6    -0.09  -0.15  -0.00    -0.14  -0.20  -0.00     0.14   0.20   0.00
  15   8     0.25   0.02  -0.00    -0.08   0.22   0.00    -0.22  -0.06  -0.00
  16  17    -0.03   0.02  -0.00    -0.03   0.01  -0.00     0.01  -0.00   0.00
  17   1    -0.13   0.11   0.00     0.12  -0.14  -0.00    -0.31   0.33   0.00
  18   1     0.35   0.02  -0.00    -0.37  -0.03   0.00     0.31   0.08  -0.00
  19   1     0.24   0.02  -0.00    -0.00   0.04  -0.00    -0.11  -0.03   0.00
  20   1    -0.35  -0.02  -0.00    -0.37  -0.03  -0.00    -0.31  -0.08  -0.00
  21   1     0.13  -0.11   0.00     0.12  -0.14   0.00     0.31  -0.33   0.00
  22   1    -0.24  -0.02  -0.00    -0.00   0.04   0.00     0.11   0.03   0.00
                     40                     41                     42
                        a                      a                      a 
 Frequencies --  1156.3828              1200.1623              1217.6748
 Red. masses --     5.1736                 3.7298                 4.2281
 Frc consts  --     0.0000                 0.0000                 0.0000
 IR Inten    --    63.0553                 0.0000                25.3396
 Raman Activ --     0.0000                 0.0000                 0.0000
 Depolar     --     0.0000                 0.0000                 0.0000
 Atom AN      X      Y      Z        X      Y      Z        X      Y      Z
   1   6     0.09  -0.01  -0.00     0.08  -0.04  -0.00     0.09  -0.04  -0.00
   2   6    -0.09  -0.03   0.00     0.02   0.01  -0.00     0.04  -0.00  -0.00
   3   6    -0.24   0.06   0.00     0.04   0.17  -0.00    -0.02   0.19   0.00
   4   6     0.15   0.18  -0.00    -0.17   0.07   0.00    -0.09   0.17   0.00
   5   6     0.12   0.05  -0.00    -0.08  -0.10   0.00    -0.07  -0.08   0.00
   6   6    -0.11   0.03   0.00     0.09  -0.16  -0.00     0.02  -0.16   0.00
   7  17     0.01  -0.00  -0.00    -0.02   0.01   0.00    -0.01   0.01   0.00
   8   8     0.02  -0.13   0.00     0.04   0.03  -0.00     0.06  -0.11   0.00
   9   6    -0.24   0.06  -0.00    -0.04  -0.17  -0.00    -0.02   0.19  -0.00
  10   6    -0.09  -0.03  -0.00    -0.02  -0.01  -0.00     0.04  -0.00   0.00
  11   6     0.09  -0.01   0.00    -0.08   0.04  -0.00     0.09  -0.04   0.00
  12   6    -0.11   0.03  -0.00    -0.09   0.16  -0.00     0.02  -0.16  -0.00
  13   6     0.12   0.05   0.00     0.08   0.10   0.00    -0.07  -0.08  -0.00
  14   6     0.15   0.18   0.00     0.17  -0.07   0.00    -0.09   0.17  -0.00
  15   8     0.02  -0.13  -0.00    -0.04  -0.03  -0.00     0.06  -0.11  -0.00
  16  17     0.01  -0.00   0.00     0.02  -0.01   0.00    -0.01   0.01  -0.00
  17   1     0.36  -0.37  -0.00    -0.17   0.21   0.00    -0.16   0.20   0.00
  18   1    -0.22  -0.05   0.00    -0.33  -0.08   0.00    -0.34  -0.08   0.00
  19   1     0.03   0.02  -0.00     0.43   0.06  -0.00     0.41   0.06  -0.00
  20   1    -0.22  -0.05  -0.00     0.33   0.08   0.00    -0.34  -0.08  -0.00
  21   1     0.36  -0.37   0.00     0.17  -0.21   0.00    -0.16   0.20  -0.00
  22   1     0.03   0.02   0.00    -0.43  -0.06  -0.00     0.41   0.06   0.00
                     43                     44                     45
                        a                      a                      a 
 Frequencies --  1234.2234              1276.6302              1306.6787
 Red. masses --    10.5009                11.4111                11.7860
 Frc consts  --     0.0000                 0.0000                 0.0000
 IR Inten    --     0.0001               873.9515                27.5524
 Raman Activ --     0.0000                 0.0000                 0.0000
 Depolar     --     0.0000                 0.0000                 0.0000
 Atom AN      X      Y      Z        X      Y      Z        X      Y      Z
   1   6     0.21   0.08  -0.00     0.17   0.10  -0.00     0.16  -0.25  -0.00
   2   6    -0.23   0.14   0.00    -0.22   0.12   0.00    -0.22  -0.09   0.00
   3   6    -0.33   0.04   0.00    -0.29   0.00   0.00     0.12   0.31  -0.00
   4   6    -0.16  -0.21   0.00    -0.19  -0.17   0.00     0.20  -0.22  -0.00
   5   6    -0.11  -0.14   0.00    -0.12  -0.14   0.00    -0.24  -0.03   0.00
   6   6     0.25  -0.00  -0.00     0.23  -0.05  -0.00     0.04   0.30  -0.00
   7  17    -0.03   0.01   0.00    -0.03   0.01   0.00     0.01   0.00  -0.00
   8   8    -0.06   0.14  -0.00     0.30   0.09  -0.00    -0.02  -0.01  -0.00
   9   6     0.33  -0.04   0.00    -0.29   0.00  -0.00     0.12   0.31   0.00
  10   6     0.23  -0.14   0.00    -0.22   0.12  -0.00    -0.22  -0.09  -0.00
  11   6    -0.21  -0.08  -0.00     0.17   0.10   0.00     0.16  -0.25   0.00
  12   6    -0.25   0.00  -0.00     0.23  -0.05   0.00     0.04   0.30   0.00
  13   6     0.11   0.14   0.00    -0.12  -0.14  -0.00    -0.24  -0.03  -0.00
  14   6     0.16   0.21   0.00    -0.19  -0.17  -0.00     0.20  -0.22   0.00
  15   8     0.06  -0.14  -0.00     0.30   0.09   0.00    -0.02  -0.01   0.00
  16  17     0.03  -0.01   0.00    -0.03   0.01  -0.00     0.01   0.00   0.00
  17   1     0.15  -0.07  -0.00     0.11  -0.03  -0.00    -0.02   0.00   0.00
  18   1     0.18   0.10  -0.00     0.17   0.09  -0.00    -0.07  -0.03   0.00
  19   1     0.10  -0.02  -0.00     0.12  -0.01  -0.00    -0.06  -0.01   0.00
  20   1    -0.18  -0.10  -0.00     0.17   0.09   0.00    -0.07  -0.03  -0.00
  21   1    -0.15   0.07  -0.00     0.11  -0.03   0.00    -0.02   0.00  -0.00
  22   1    -0.10   0.02  -0.00     0.12  -0.01   0.00    -0.06  -0.01  -0.00
                     46                     47                     48
                        a                      a                      a 
 Frequencies --  1336.6777              1386.2891              1412.8778
 Red. masses --    11.5594                10.5527                10.8034
 Frc consts  --     0.0000                 0.0000                 0.0000
 IR Inten    --     0.0000                 0.0000                 5.8742
 Raman Activ --     0.0000                 0.0000                 0.0000
 Depolar     --     0.0000                 0.0000                 0.0000
 Atom AN      X      Y      Z        X      Y      Z        X      Y      Z
   1   6     0.12  -0.27  -0.00     0.26  -0.11  -0.00    -0.28   0.09   0.00
   2   6    -0.17  -0.10   0.00    -0.06   0.20   0.00     0.12  -0.18  -0.00
   3   6     0.15   0.32  -0.00    -0.17  -0.14   0.00     0.16   0.18  -0.00
   4   6     0.18  -0.20  -0.00     0.33  -0.08  -0.00    -0.30   0.07   0.00
   5   6    -0.19  -0.04   0.00    -0.10   0.22   0.00     0.01  -0.23   0.00
   6   6     0.03   0.34  -0.00    -0.20  -0.19   0.00     0.22   0.23  -0.00
   7  17     0.01  -0.00  -0.00     0.01   0.01  -0.00    -0.01  -0.01   0.00
   8   8     0.01   0.00   0.00    -0.07  -0.03   0.00     0.04  -0.04  -0.00
   9   6    -0.15  -0.32  -0.00     0.17   0.14   0.00     0.16   0.18   0.00
  10   6     0.17   0.10   0.00     0.06  -0.20   0.00     0.12  -0.18   0.00
  11   6    -0.12   0.27  -0.00    -0.26   0.11  -0.00    -0.28   0.09  -0.00
  12   6    -0.03  -0.34  -0.00     0.20   0.19   0.00     0.22   0.23   0.00
  13   6     0.19   0.04   0.00     0.10  -0.22   0.00     0.01  -0.23  -0.00
  14   6    -0.18   0.20  -0.00    -0.33   0.08  -0.00    -0.30   0.07  -0.00
  15   8    -0.01  -0.00   0.00     0.07   0.03   0.00     0.04  -0.04   0.00
  16  17    -0.01   0.00  -0.00    -0.01  -0.01  -0.00    -0.01  -0.01  -0.00
  17   1    -0.03  -0.01   0.00    -0.14   0.20   0.00     0.11  -0.18  -0.00
  18   1    -0.10  -0.04   0.00    -0.02   0.06   0.00    -0.02  -0.07   0.00
  19   1    -0.09  -0.02   0.00    -0.00   0.07  -0.00     0.03  -0.07  -0.00
  20   1     0.10   0.04   0.00     0.02  -0.06   0.00    -0.02  -0.07  -0.00
  21   1     0.03   0.01   0.00     0.14  -0.20   0.00     0.11  -0.18   0.00
  22   1     0.09   0.02   0.00     0.00  -0.07  -0.00     0.03  -0.07   0.00
                     49                     50                     51
                        a                      a                      a 
 Frequencies --  1449.7353              1475.9065              1562.4386
 Red. masses --    10.4737                10.6678                11.6717
 Frc consts  --     0.0000                 0.0000                 0.0000
 IR Inten    --  1538.4742                 0.0002                 0.0000
 Raman Activ --     0.0000                 0.0000                 0.0000
 Depolar     --     0.0000                 0.0000                 0.0000
 Atom AN      X      Y      Z        X      Y      Z        X      Y      Z
   1   6    -0.01  -0.17   0.00     0.01  -0.19   0.00     0.23  -0.04  -0.00
   2   6     0.24   0.10  -0.00     0.26   0.12  -0.00    -0.39  -0.07   0.00
   3   6    -0.25   0.17   0.00    -0.27   0.09   0.00     0.19   0.10  -0.00
   4   6    -0.18  -0.27   0.00    -0.22  -0.20   0.00    -0.21   0.08   0.00
   5   6     0.29   0.04  -0.00     0.31   0.02  -0.00     0.35   0.07  -0.00
   6   6    -0.12   0.10   0.00    -0.13   0.13   0.00    -0.16  -0.13   0.00
   7  17     0.00  -0.00   0.00     0.00  -0.01   0.00    -0.00   0.00   0.00
   8   8     0.14   0.03  -0.00    -0.03   0.12  -0.00    -0.01  -0.02   0.00
   9   6    -0.25   0.17  -0.00     0.27  -0.09   0.00    -0.19  -0.10  -0.00
  10   6     0.24   0.10   0.00    -0.26  -0.12  -0.00     0.39   0.07   0.00
  11   6    -0.01  -0.17  -0.00    -0.01   0.19   0.00    -0.23   0.04  -0.00
  12   6    -0.12   0.10  -0.00     0.13  -0.13   0.00     0.16   0.13   0.00
  13   6     0.29   0.04   0.00    -0.31  -0.02  -0.00    -0.35  -0.07  -0.00
  14   6    -0.18  -0.27  -0.00     0.22   0.20   0.00     0.21  -0.08   0.00
  15   8     0.14   0.03   0.00     0.03  -0.12  -0.00     0.01   0.02   0.00
  16  17     0.00  -0.00  -0.00    -0.00   0.01   0.00     0.00  -0.00   0.00
  17   1    -0.10   0.06   0.00    -0.10   0.05   0.00     0.00   0.05  -0.00
  18   1    -0.18  -0.03   0.00    -0.16  -0.02   0.00     0.09   0.03  -0.00
  19   1    -0.18  -0.04   0.00    -0.16  -0.04   0.00    -0.07  -0.01   0.00
  20   1    -0.18  -0.03  -0.00     0.16   0.02   0.00    -0.09  -0.03  -0.00
  21   1    -0.10   0.06  -0.00     0.10  -0.05   0.00    -0.00  -0.05  -0.00
  22   1    -0.18  -0.04  -0.00     0.16   0.04   0.00     0.07   0.01   0.00
                     52                     53                     54
                        a                      a                      a 
 Frequencies --  1565.4831              1584.5626              1592.2724
 Red. masses --    11.8044                11.7379                11.8913
 Frc consts  --     0.0000                 0.0000                 0.0000
 IR Inten    --    33.1024                57.3554                 0.0000
 Raman Activ --     0.0000                 0.0000                 0.0000
 Depolar     --     0.0000                 0.0000                 0.0000
 Atom AN      X      Y      Z        X      Y      Z        X      Y      Z
   1   6    -0.20   0.31   0.00    -0.16  -0.02   0.00    -0.15   0.27   0.00
   2   6     0.08  -0.14  -0.00     0.36   0.12  -0.00     0.04  -0.14  -0.00
   3   6    -0.02   0.30  -0.00    -0.25  -0.19   0.00    -0.01   0.36  -0.00
   4   6     0.18  -0.29  -0.00     0.24  -0.02  -0.00     0.12  -0.32  -0.00
   5   6    -0.08   0.14   0.00    -0.33  -0.07   0.00     0.03   0.15  -0.00
   6   6     0.00  -0.31   0.00     0.14   0.17  -0.00    -0.05  -0.31   0.00
   7  17     0.00   0.00  -0.00     0.00  -0.00  -0.00     0.00   0.00  -0.00
   8   8     0.01   0.01  -0.00     0.00   0.02  -0.00    -0.02   0.07  -0.00
   9   6    -0.02   0.30   0.00    -0.25  -0.19  -0.00     0.01  -0.36  -0.00
  10   6     0.08  -0.14   0.00     0.36   0.12   0.00    -0.04   0.14  -0.00
  11   6    -0.20   0.31  -0.00    -0.16  -0.02  -0.00     0.15  -0.27   0.00
  12   6     0.00  -0.31  -0.00     0.14   0.17   0.00     0.05   0.31   0.00
  13   6    -0.08   0.14  -0.00    -0.33  -0.07  -0.00    -0.03  -0.15  -0.00
  14   6     0.18  -0.29   0.00     0.24  -0.02   0.00    -0.12   0.32  -0.00
  15   8     0.01   0.01   0.00     0.00   0.02   0.00     0.02  -0.07  -0.00
  16  17     0.00   0.00   0.00     0.00  -0.00   0.00    -0.00  -0.00  -0.00
  17   1     0.06  -0.04  -0.00    -0.02  -0.03   0.00     0.05  -0.03  -0.00
  18   1    -0.00  -0.04   0.00    -0.08  -0.01   0.00    -0.01  -0.04   0.00
  19   1     0.00   0.04  -0.00     0.06   0.01  -0.00    -0.03   0.03   0.00
  20   1    -0.00  -0.04  -0.00    -0.08  -0.01  -0.00     0.01   0.04   0.00
  21   1     0.06  -0.04   0.00    -0.02  -0.03  -0.00    -0.05   0.03  -0.00
  22   1     0.00   0.04   0.00     0.06   0.01   0.00     0.03  -0.03   0.00
                     55                     56                     57
                        a                      a                      a 
 Frequencies --  3122.7215              3122.7273              3130.2625
 Red. masses --     1.8011                 1.8007                 1.8484
 Frc consts  --     0.0000                 0.0000                 0.0000
 IR Inten    --    11.8029                 0.0000                 0.0000
 Raman Activ --     0.0000                 0.0000                 0.0000
 Depolar     --     0.0000                 0.0000                 0.0000
 Atom AN      X      Y      Z        X      Y      Z        X      Y      Z
   1   6    -0.10  -0.09   0.00     0.09   0.09  -0.00     0.03   0.02  -0.00
   2   6    -0.03   0.13   0.00     0.03  -0.14  -0.00    -0.01   0.04   0.00
   3   6    -0.00   0.00   0.00     0.00  -0.00  -0.00    -0.00  -0.00   0.00
   4   6     0.00  -0.00   0.00    -0.00   0.00   0.00     0.00   0.00  -0.00
   5   6     0.00  -0.01  -0.00    -0.00   0.00   0.00    -0.04   0.18   0.00
   6   6    -0.00   0.00   0.00     0.00  -0.00  -0.00    -0.01   0.00   0.00
   7  17     0.00  -0.00  -0.00    -0.00   0.00   0.00     0.00  -0.00  -0.00
   8   8     0.00   0.00  -0.00    -0.00  -0.00  -0.00    -0.00  -0.00   0.00
   9   6    -0.00   0.00  -0.00    -0.00   0.00  -0.00     0.00   0.00   0.00
  10   6    -0.03   0.13  -0.00    -0.03   0.14  -0.00     0.01  -0.04   0.00
  11   6    -0.10  -0.09  -0.00    -0.09  -0.09  -0.00    -0.03  -0.02  -0.00
  12   6    -0.00   0.00  -0.00    -0.00   0.00  -0.00     0.01  -0.00   0.00
  13   6     0.00  -0.01   0.00     0.00  -0.00   0.00     0.04  -0.18   0.00
  14   6     0.00  -0.00  -0.00     0.00  -0.00   0.00    -0.00  -0.00  -0.00
  15   8     0.00   0.00   0.00     0.00   0.00  -0.00     0.00   0.00   0.00
  16  17     0.00  -0.00   0.00     0.00  -0.00   0.00    -0.00   0.00  -0.00
  17   1     0.34   0.31  -0.00    -0.34  -0.31   0.00    -0.09  -0.08   0.00
  18   1     0.11  -0.48  -0.00    -0.11   0.49   0.00     0.03  -0.13  -0.00
  19   1    -0.01   0.04   0.00     0.00  -0.01  -0.00     0.13  -0.64  -0.00
  20   1     0.11  -0.48   0.00     0.11  -0.49   0.00    -0.03   0.13  -0.00
  21   1     0.34   0.31   0.00     0.34   0.31   0.00     0.09   0.08   0.00
  22   1    -0.01   0.04  -0.00    -0.00   0.01  -0.00    -0.13   0.64  -0.00
                     58                     59                     60
                        a                      a                      a 
 Frequencies --  3130.5357              3131.9612              3132.0440
 Red. masses --     1.8460                 1.8933                 1.8955
 Frc consts  --     0.0000                 0.0000                 0.0000
 IR Inten    --     3.3805                 0.0000                 2.3938
 Raman Activ --     0.0000                 0.0000                 0.0000
 Depolar     --     0.0000                 0.0000                 0.0000
 Atom AN      X      Y      Z        X      Y      Z        X      Y      Z
   1   6    -0.00  -0.00   0.00     0.11   0.10  -0.00    -0.11  -0.10   0.00
   2   6     0.00  -0.02  -0.00    -0.03   0.13   0.00     0.03  -0.13  -0.00
   3   6     0.00   0.00  -0.00    -0.00   0.00   0.00     0.01  -0.00  -0.00
   4   6    -0.01  -0.00   0.00    -0.00  -0.00   0.00    -0.00   0.00  -0.00
   5   6     0.04  -0.19  -0.00     0.01  -0.05  -0.00    -0.00   0.02  -0.00
   6   6     0.01  -0.00  -0.00     0.01  -0.00  -0.00    -0.00   0.00   0.00
   7  17    -0.00   0.00   0.00    -0.00   0.00   0.00     0.00  -0.00  -0.00
   8   8     0.00  -0.00  -0.00    -0.00  -0.00   0.00    -0.00  -0.00  -0.00
   9   6     0.00   0.00   0.00     0.00  -0.00   0.00     0.01  -0.00   0.00
  10   6     0.00  -0.02   0.00     0.03  -0.13   0.00     0.03  -0.13   0.00
  11   6    -0.00  -0.00  -0.00    -0.11  -0.10  -0.00    -0.11  -0.10  -0.00
  12   6     0.01  -0.00   0.00    -0.01   0.00  -0.00    -0.00   0.00  -0.00
  13   6     0.04  -0.19   0.00    -0.01   0.05  -0.00    -0.00   0.02   0.00
  14   6    -0.01  -0.00  -0.00     0.00   0.00   0.00    -0.00   0.00   0.00
  15   8     0.00  -0.00   0.00     0.00   0.00   0.00    -0.00  -0.00   0.00
  16  17    -0.00   0.00  -0.00     0.00  -0.00   0.00     0.00  -0.00   0.00
  17   1     0.01   0.01  -0.00    -0.36  -0.33   0.00     0.37   0.33  -0.00
  18   1    -0.01   0.06   0.00     0.10  -0.43  -0.00    -0.10   0.45   0.00
  19   1    -0.13   0.66   0.00    -0.04   0.18   0.00     0.01  -0.05  -0.00
  20   1    -0.01   0.06  -0.00    -0.10   0.43  -0.00    -0.10   0.45  -0.00
  21   1     0.01   0.01   0.00     0.36   0.33   0.00     0.37   0.33   0.00
  22   1    -0.13   0.66  -0.00     0.04  -0.18   0.00     0.01  -0.05   0.00
