      -----------------------------------------------------------      
     |                   =====================                   |     
     |                           x T B                           |     
     |                   =====================                   |     
     |                         S. Grimme                         |     
     |          Mulliken Center for Theoretical Chemistry        |     
     |                    University of Bonn                     |     
      -----------------------------------------------------------      

   * xtb version 6.7.1 (edcfbbe) compiled by 'albert@albert-system' on 2024-07-22

   xtb is free software: you can redistribute it and/or modify it under
   the terms of the GNU Lesser General Public License as published by
   the Free Software Foundation, either version 3 of the License, or
   (at your option) any later version.
   
   xtb is distributed in the hope that it will be useful,
   but WITHOUT ANY WARRANTY; without even the implied warranty of
   MERCHANTABILITY or FITNESS FOR A PARTICULAR PURPOSE.  See the
   GNU Lesser General Public License for more details.
   
   Cite this work as:
   * C. Bannwarth, E. Caldeweyher, S. Ehlert, A. Hansen, P. Pracht,
     J. Seibert, S. Spicher, S. Grimme, WIREs Comput. Mol. Sci., 2020, 11,
     e01493. DOI: 10.1002/wcms.1493
   
   for GFN2-xTB:
   * C. Bannwarth, S. Ehlert and S. Grimme., J. Chem. Theory Comput., 2019,
     15, 1652-1671. DOI: 10.1021/acs.jctc.8b01176
   for GFN1-xTB:
   * S. Grimme, C. Bannwarth, P. Shushkov, J. Chem. Theory Comput., 2017,
     13, 1989-2009. DOI: 10.1021/acs.jctc.7b00118
   for GFN0-xTB:
   * P. Pracht, E. Caldeweyher, S. Ehlert, S. Grimme, ChemRxiv, 2019, preprint.
     DOI: 10.26434/chemrxiv.8326202.v1
   for GFN-FF:
   * S. Spicher and S. Grimme, Angew. Chem. Int. Ed., 2020, 59, 15665-15673.
     DOI: 10.1002/anie.202004239
   
   for ALPB and GBSA implicit solvation:
   * S. Ehlert, M. Stahn, S. Spicher, S. Grimme, J. Chem. Theory Comput.,
     2021, 17, 4250-4261. DOI: 10.1021/acs.jctc.1c00471
   
   for ddCOSMO and CPCM-X implicit solvation:
   * M. Stahn, S. Ehlert, S. Grimme, J. Phys. Chem. A,
     2023, XX, XXXX-XXXX. DOI: 10.1021/acs.jpca.3c04382
   
   for DFT-D4:
   * E. Caldeweyher, C. Bannwarth and S. Grimme, J. Chem. Phys., 2017,
     147, 034112. DOI: 10.1063/1.4993215
   * E. Caldeweyher, S. Ehlert, A. Hansen, H. Neugebauer, S. Spicher,
     C. Bannwarth and S. Grimme, J. Chem. Phys., 2019, 150, 154122.
     DOI: 10.1063/1.5090222
   * E. Caldeweyher, J.-M. Mewes, S. Ehlert and S. Grimme, Phys. Chem. Chem. Phys.
     2020, 22, 8499-8512. DOI: 10.1039/D0CP00502A
   
   for sTDA-xTB:
   * S. Grimme and C. Bannwarth, J. Chem. Phys., 2016, 145, 054103.
     DOI: 10.1063/1.4959605
   
   in the mass-spec context:
   * V. Asgeirsson, C. Bauer and S. Grimme, Chem. Sci., 2017, 8, 4879.
     DOI: 10.1039/c7sc00601b
   * J. Koopman and S. Grimme, ACS Omega 2019, 4, 12, 15120-15133.
     DOI: 10.1021/acsomega.9b02011
   
   for metadynamics refer to:
   * S. Grimme, J. Chem. Theory Comput., 2019, 155, 2847-2862
     DOI: 10.1021/acs.jctc.9b00143
   
   for SPH calculations refer to:
   * S. Spicher and S. Grimme, J. Chem. Theory Comput., 2021, 17, 1701-1714
     DOI: 10.1021/acs.jctc.0c01306
   
   for ONIOM refer to:
   * C. Plett, A. Katbashev, S. Ehlert, S. Grimme, M. Bursch,
     Phys. Chem. Chem. Phys., 2023, 25, 17860-17868. DOI: 10.1039/D3CP02178E
   
   for DIPRO refer to:
   * J. Kohn, N. Gildemeister, S. Grimme, D. Fazzi, A. Hansen,
     J. Chem. Phys., 2023, just accepted.
   
   for PTB refer to:
   * S. Grimme, M. Mueller, A. Hansen, J. Chem. Phys., 2023, 158, 124111.
     DOI: 10.1063/5.0137838
   
   with help from (in alphabetical order)
   P. Atkinson, C. Bannwarth, F. Bohle, G. Brandenburg, E. Caldeweyher
   M. Checinski, S. Dohm, S. Ehlert, S. Ehrlich, I. Gerasimov, C. Hölzer
   A. Katbashev, J. Kohn, J. Koopman, C. Lavigne, S. Lehtola, F. März, M. Müller,
   F. Musil, H. Neugebauer, J. Pisarek, C. Plett, P. Pracht, F. Pultar,
   J. Seibert, P. Shushkov, S. Spicher, M. Stahn, M. Steiner, T. Strunk,
   J. Stückrath, T. Rose, and J. Unsleber
   
 * started run on 2025/04/09 at 05:20:43.839     
   ID    Z sym.   atoms
    1    6 C      1, 2, 7, 8, 10, 15, 16, 18, 19
    2    8 O      3, 6, 14, 17
    3   15 P      4, 12
    4   16 S      5, 9, 11, 13
    5    1 H      20-41

           -------------------------------------------------
          |                Calculation Setup                |
           -------------------------------------------------

          program call               : /srv/scratch/z5358697/.xtb/bin/xtb solv.coord --gfn2 --sp --chrg 0 --norestart --parallel 1 --alpb water reference -I xtb_sp-xcontrol-inp
          hostname                   : k163
          coordinate file            : solv.coord
          omp threads                :                     1


           -------------------------------------------------
          |                 G F N 2 - x T B                 |
           -------------------------------------------------

        Reference                      10.1021/acs.jctc.8b01176
      * Hamiltonian:
        H0-scaling (s, p, d)           1.850000    2.230000    2.230000
        zeta-weighting                 0.500000
      * Dispersion:
        s8                             2.700000
        a1                             0.520000
        a2                             5.000000
        s9                             5.000000
      * Repulsion:
        kExp                           1.500000    1.000000
        rExp                           1.000000
      * Coulomb:
        alpha                          2.000000
        third order                    shell-resolved
        anisotropic                    true
        a3                             3.000000
        a5                             4.000000
        cn-shift                       1.200000
        cn-exp                         4.000000
        max-rad                        5.000000

      * Solvation model:               ALPB
        Solvent                        water
        Parameter file                 internal GFN2-xTB/ALPB
        Dielectric constant                8.0200E+01
        Reference state                gsolv=reference [X=1]
        Free energy shift                  2.8945E-03 Eh       1.8164E+00 kcal/mol
        Temperature                        2.9815E+02 K
        Density                            1.0000E+00 kg/L
        Solvent mass                       1.8000E+01 g/mol
        Interaction kernel             P16
        Born radius scaling (c1)           1.4744E+00
        Born radii integrator          GBOBC
        Born offset                        0.0000E+00 a0       0.0000E+00 AA
        H-bond correction              true
        Ion screening                  false
        Surface tension                    1.0000E-05 Eh       1.5569E+01 dyn/cm
        Grid points                               974 per atom

          ...................................................
          :                      SETUP                      :
          :.................................................:
          :  # basis functions                 134          :
          :  # atomic orbitals                 128          :
          :  # shells                           66          :
          :  # electrons                       116          :
          :  max. iterations                   250          :
          :  Hamiltonian                  GFN2-xTB          :
          :  restarted?                      false          :
          :  GBSA solvation                   true          :
          :  PC potential                    false          :
          :  electronic temp.          300.0000000     K    :
          :  accuracy                    1.0000000          :
          :  -> integral cutoff          0.2500000E+02      :
          :  -> integral neglect         0.1000000E-07      :
          :  -> SCF convergence          0.1000000E-05 Eh   :
          :  -> wf. convergence          0.1000000E-03 e    :
          :  Broyden damping             0.4000000          :
          :  net charge                          0          :
          :  unpaired electrons                  0          :
          ...................................................

 iter      E             dE          RMSdq      gap      omega  full diag
   1    -65.4428008 -0.654428E+02  0.611E+00    4.28       0.0  T
   2    -65.5675785 -0.124778E+00  0.343E+00    3.70       1.0  T
   3    -65.5871724 -0.195940E-01  0.117E+00    3.31       1.0  T
   4    -65.5899031 -0.273064E-02  0.541E-01    3.23       1.0  T
   5    -65.5907193 -0.816255E-03  0.262E-01    3.30       1.0  T
   6    -65.5908999 -0.180565E-03  0.116E-01    3.30       1.0  T
   7    -65.5909487 -0.487843E-04  0.375E-02    3.31       1.0  T
   8    -65.5909527 -0.405096E-05  0.168E-02    3.32       1.0  T
   9    -65.5909536 -0.903877E-06  0.558E-03    3.32       2.8  T
  10    -65.5909536 -0.104301E-07  0.247E-03    3.32       6.3  T
  11    -65.5909537 -0.370461E-07  0.815E-04    3.32      19.2  T
  12    -65.5909537 -0.163914E-08  0.375E-04    3.32      41.6  T

   *** convergence criteria satisfied after 12 iterations ***

         #    Occupation            Energy/Eh            Energy/eV
      -------------------------------------------------------------
         1        2.0000           -0.7665272             -20.8583
       ...           ...                  ...                  ...
        52        2.0000           -0.4440061             -12.0820
        53        2.0000           -0.4170765             -11.3492
        54        2.0000           -0.4088836             -11.1263
        55        2.0000           -0.3960880             -10.7781
        56        2.0000           -0.3949715             -10.7477
        57        2.0000           -0.3900365             -10.6134
        58        2.0000           -0.3891836             -10.5902 (HOMO)
        59                         -0.2673063              -7.2738 (LUMO)
        60                         -0.2597165              -7.0672
        61                         -0.2213790              -6.0240
        62                         -0.1923960              -5.2354
        63                         -0.1788084              -4.8656
       ...                                ...                  ...
       128                          1.3183636              35.8745
      -------------------------------------------------------------
                  HL-Gap            0.1218772 Eh            3.3164 eV
             Fermi-level           -0.3282450 Eh           -8.9320 eV

 SCC (total)                   0 d,  0 h,  0 min,  0.058 sec
 SCC setup                      ...        0 min,  0.002 sec (  4.180%)
 Dispersion                     ...        0 min,  0.000 sec (  0.497%)
 classical contributions        ...        0 min,  0.000 sec (  0.104%)
 integral evaluation            ...        0 min,  0.009 sec ( 15.779%)
 iterations                     ...        0 min,  0.024 sec ( 40.734%)
 molecular gradient             ...        0 min,  0.022 sec ( 38.327%)
 printout                       ...        0 min,  0.000 sec (  0.352%)

         :::::::::::::::::::::::::::::::::::::::::::::::::::::
         ::                     SUMMARY                     ::
         :::::::::::::::::::::::::::::::::::::::::::::::::::::
         :: total energy             -65.029042100501 Eh    ::
         :: total w/o Gsasa/hb       -65.030971029099 Eh    ::
         :: gradient norm              0.000185792002 Eh/a0 ::
         :: HOMO-LUMO gap              3.316448767009 eV    ::
         ::.................................................::
         :: SCC energy               -65.589898994582 Eh    ::
         :: -> isotropic ES            0.135362930575 Eh    ::
         :: -> anisotropic ES         -0.024922785278 Eh    ::
         :: -> anisotropic XC          0.029438482468 Eh    ::
         :: -> dispersion             -0.055292697206 Eh    ::
         :: -> Gsolv                  -0.029128118623 Eh    ::
         ::    -> Gelec               -0.031057047221 Eh    ::
         ::    -> Gsasa                0.003394584019 Eh    ::
         ::    -> Ghb                 -0.004360204581 Eh    ::
         ::    -> Gshift               0.002894549160 Eh    ::
         :: repulsion energy           0.560856894081 Eh    ::
         :: add. restraining           0.000000000000 Eh    ::
         :: total charge              -0.000000000000 e     ::
         :::::::::::::::::::::::::::::::::::::::::::::::::::::

           -------------------------------------------------
          |                Property Printout                |
           -------------------------------------------------

    * Orbital Energies and Occupations

         #    Occupation            Energy/Eh            Energy/eV
      -------------------------------------------------------------
         1        2.0000           -0.7665272             -20.8583
       ...           ...                  ...                  ...
        46        2.0000           -0.4666236             -12.6975
        47        2.0000           -0.4577145             -12.4550
        48        2.0000           -0.4556126             -12.3979
        49        2.0000           -0.4541586             -12.3583
        50        2.0000           -0.4518734             -12.2961
        51        2.0000           -0.4484557             -12.2031
        52        2.0000           -0.4440061             -12.0820
        53        2.0000           -0.4170765             -11.3492
        54        2.0000           -0.4088836             -11.1263
        55        2.0000           -0.3960880             -10.7781
        56        2.0000           -0.3949715             -10.7477
        57        2.0000           -0.3900365             -10.6134
        58        2.0000           -0.3891836             -10.5902 (HOMO)
        59                         -0.2673063              -7.2738 (LUMO)
        60                         -0.2597165              -7.0672
        61                         -0.2213790              -6.0240
        62                         -0.1923960              -5.2354
        63                         -0.1788084              -4.8656
        64                         -0.1761319              -4.7928
        65                         -0.1725058              -4.6941
        66                         -0.1544118              -4.2018
        67                         -0.1275614              -3.4711
        68                         -0.1237177              -3.3665
        69                         -0.0477324              -1.2989
       ...                                ...                  ...
       128                          1.3183636              35.8745
      -------------------------------------------------------------
                  HL-Gap            0.1218772 Eh            3.3164 eV
             Fermi-level           -0.3282450 Eh           -8.9320 eV

     #   Z          covCN         q      C6AA      α(0)
     1   6 C        3.751    -0.131    23.084     6.852
     2   6 C        3.867     0.076    19.277     6.243
     3   8 O        1.655    -0.260    18.325     5.779
     4  15 P        3.810     0.369   144.894    21.623
     5  16 S        0.929    -0.482   160.520    21.430
     6   8 O        1.654    -0.269    18.479     5.803
     7   6 C        3.814     0.078    19.274     6.249
     8   6 C        3.751    -0.131    23.070     6.850
     9  16 S        1.997    -0.112   145.762    20.320
    10   6 C        3.803     0.031    20.049     6.375
    11  16 S        1.997    -0.141   146.967    20.404
    12  15 P        3.764     0.353   145.506    21.668
    13  16 S        0.927    -0.465   159.730    21.377
    14   8 O        1.655    -0.268    18.452     5.799
    15   6 C        3.818     0.071    19.381     6.266
    16   6 C        3.751    -0.127    22.993     6.838
    17   8 O        1.654    -0.258    18.287     5.773
    18   6 C        3.820     0.077    19.283     6.249
    19   6 C        3.751    -0.125    22.953     6.833
    20   1 H        0.925     0.058     2.228     2.334
    21   1 H        0.925     0.088     1.903     2.157
    22   1 H        0.925     0.075     2.026     2.226
    23   1 H        0.924     0.061     2.185     2.312
    24   1 H        0.924     0.093     1.853     2.129
    25   1 H        0.924     0.071     2.079     2.255
    26   1 H        0.924     0.086     1.923     2.169
    27   1 H        0.925     0.066     2.133     2.284
    28   1 H        0.925     0.071     2.072     2.251
    29   1 H        0.925     0.087     1.908     2.160
    30   1 H        0.924     0.077     2.009     2.217
    31   1 H        0.925     0.129     1.541     1.941
    32   1 H        0.924     0.095     1.834     2.118
    33   1 H        0.924     0.074     2.047     2.238
    34   1 H        0.925     0.054     2.276     2.359
    35   1 H        0.925     0.063     2.162     2.299
    36   1 H        0.925     0.086     1.913     2.163
    37   1 H        0.924     0.074     2.047     2.238
    38   1 H        0.924     0.087     1.907     2.159
    39   1 H        0.925     0.065     2.144     2.290
    40   1 H        0.925     0.066     2.130     2.282
    41   1 H        0.925     0.089     1.891     2.150

 Mol. C6AA /au·bohr⁶  :      26371.331656
 Mol. C8AA /au·bohr⁸  :     862455.570709
 Mol. α(0) /au        :        257.460566


Wiberg/Mayer (AO) data.
largest (>0.10) Wiberg bond orders for each atom

 ---------------------------------------------------------------------------
     #   Z sym  total        # sym  WBO       # sym  WBO       # sym  WBO
 ---------------------------------------------------------------------------
     1   6 C    3.986 --     2 C    1.023    22 H    0.980    21 H    0.975
                            20 H    0.974
     2   6 C    3.887 --     1 C    1.023    23 H    0.969    24 H    0.964
                             3 O    0.885
     3   8 O    2.405 --     4 P    1.328     2 C    0.885
     4  15 P    5.313 --     5 S    1.523     6 O    1.349     3 O    1.328
                             9 S    0.965
     5  16 S    1.839 --     4 P    1.523     9 S    0.135
     6   8 O    2.401 --     4 P    1.349     7 C    0.860
     7   6 C    3.881 --     8 C    1.023    25 H    0.971    26 H    0.966
                             6 O    0.860
     8   6 C    3.985 --     7 C    1.023    27 H    0.983    28 H    0.976
                            29 H    0.974
     9  16 S    2.282 --    10 C    0.990     4 P    0.965     5 S    0.135
    10   6 C    3.949 --     9 S    0.990    11 S    0.981    31 H    0.955
                            30 H    0.938
    11  16 S    2.298 --    10 C    0.981    12 P    0.974    13 S    0.141
    12  15 P    5.329 --    13 S    1.519    17 O    1.367    14 O    1.313
                            11 S    0.974
    13  16 S    1.869 --    12 P    1.519    11 S    0.141
    14   8 O    2.400 --    12 P    1.313    15 C    0.886
    15   6 C    3.886 --    16 C    1.022    33 H    0.966    32 H    0.963
                            14 O    0.886
    16   6 C    3.988 --    15 C    1.022    35 H    0.983    34 H    0.976
                            36 H    0.976
    17   8 O    2.416 --    12 P    1.367    18 C    0.863
    18   6 C    3.882 --    19 C    1.023    37 H    0.970    38 H    0.966
                            17 O    0.863
    19   6 C    3.985 --    18 C    1.023    39 H    0.981    41 H    0.974
                            40 H    0.972
    20   1 H    0.997 --     1 C    0.974
    21   1 H    0.992 --     1 C    0.975
    22   1 H    0.994 --     1 C    0.980
    23   1 H    0.996 --     2 C    0.969
    24   1 H    0.991 --     2 C    0.964
    25   1 H    0.995 --     7 C    0.971
    26   1 H    0.993 --     7 C    0.966
    27   1 H    0.996 --     8 C    0.983
    28   1 H    0.995 --     8 C    0.976
    29   1 H    0.991 --     8 C    0.974
    30   1 H    0.994 --    10 C    0.938
    31   1 H    0.983 --    10 C    0.955
    32   1 H    0.991 --    15 C    0.963
    33   1 H    0.994 --    15 C    0.966
    34   1 H    0.997 --    16 C    0.976
    35   1 H    0.996 --    16 C    0.983
    36   1 H    0.992 --    16 C    0.976
    37   1 H    0.995 --    18 C    0.970
    38   1 H    0.992 --    18 C    0.966
    39   1 H    0.996 --    19 C    0.981
    40   1 H    0.996 --    19 C    0.972
    41   1 H    0.991 --    19 C    0.974
 ---------------------------------------------------------------------------

Topologies differ in total number of bonds
Writing topology from bond orders to xtbtopo.mol

molecular dipole:
                 x           y           z       tot (Debye)
 q only:        0.410      -2.860       0.669
   full:        0.270      -1.810       0.552       4.858
molecular quadrupole (traceless):
                xx          xy          yy          xz          yz          zz
 q only:       31.998       6.632     -29.160       2.343      -1.951      -2.837
  q+dip:       35.889       7.257     -28.524       0.946      -4.257      -7.365
   full:       35.886       7.411     -28.952       1.282      -4.137      -6.934


           -------------------------------------------------
          | TOTAL ENERGY              -65.029042100501 Eh   |
          | GRADIENT NORM               0.000185792002 Eh/α |
          | HOMO-LUMO GAP               3.316448767009 eV   |
           -------------------------------------------------

------------------------------------------------------------------------
 * finished run on 2025/04/09 at 05:20:43.960     
------------------------------------------------------------------------
 total:
 * wall-time:     0 d,  0 h,  0 min,  0.120 sec
 *  cpu-time:     0 d,  0 h,  0 min,  0.070 sec
 * ratio c/w:     0.588 speedup
 SCF:
 * wall-time:     0 d,  0 h,  0 min,  0.058 sec
 *  cpu-time:     0 d,  0 h,  0 min,  0.056 sec
 * ratio c/w:     0.972 speedup

