      -----------------------------------------------------------      
     |                   =====================                   |     
     |                           x T B                           |     
     |                   =====================                   |     
     |                         S. Grimme                         |     
     |          Mulliken Center for Theoretical Chemistry        |     
     |                    University of Bonn                     |     
      -----------------------------------------------------------      

   * xtb version 6.7.1 (edcfbbe) compiled by 'albert@albert-system' on 2024-07-22

   xtb is free software: you can redistribute it and/or modify it under
   the terms of the GNU Lesser General Public License as published by
   the Free Software Foundation, either version 3 of the License, or
   (at your option) any later version.
   
   xtb is distributed in the hope that it will be useful,
   but WITHOUT ANY WARRANTY; without even the implied warranty of
   MERCHANTABILITY or FITNESS FOR A PARTICULAR PURPOSE.  See the
   GNU Lesser General Public License for more details.
   
   Cite this work as:
   * C. Bannwarth, E. Caldeweyher, S. Ehlert, A. Hansen, P. Pracht,
     J. Seibert, S. Spicher, S. Grimme, WIREs Comput. Mol. Sci., 2020, 11,
     e01493. DOI: 10.1002/wcms.1493
   
   for GFN2-xTB:
   * C. Bannwarth, S. Ehlert and S. Grimme., J. Chem. Theory Comput., 2019,
     15, 1652-1671. DOI: 10.1021/acs.jctc.8b01176
   for GFN1-xTB:
   * S. Grimme, C. Bannwarth, P. Shushkov, J. Chem. Theory Comput., 2017,
     13, 1989-2009. DOI: 10.1021/acs.jctc.7b00118
   for GFN0-xTB:
   * P. Pracht, E. Caldeweyher, S. Ehlert, S. Grimme, ChemRxiv, 2019, preprint.
     DOI: 10.26434/chemrxiv.8326202.v1
   for GFN-FF:
   * S. Spicher and S. Grimme, Angew. Chem. Int. Ed., 2020, 59, 15665-15673.
     DOI: 10.1002/anie.202004239
   
   for ALPB and GBSA implicit solvation:
   * S. Ehlert, M. Stahn, S. Spicher, S. Grimme, J. Chem. Theory Comput.,
     2021, 17, 4250-4261. DOI: 10.1021/acs.jctc.1c00471
   
   for ddCOSMO and CPCM-X implicit solvation:
   * M. Stahn, S. Ehlert, S. Grimme, J. Phys. Chem. A,
     2023, XX, XXXX-XXXX. DOI: 10.1021/acs.jpca.3c04382
   
   for DFT-D4:
   * E. Caldeweyher, C. Bannwarth and S. Grimme, J. Chem. Phys., 2017,
     147, 034112. DOI: 10.1063/1.4993215
   * E. Caldeweyher, S. Ehlert, A. Hansen, H. Neugebauer, S. Spicher,
     C. Bannwarth and S. Grimme, J. Chem. Phys., 2019, 150, 154122.
     DOI: 10.1063/1.5090222
   * E. Caldeweyher, J.-M. Mewes, S. Ehlert and S. Grimme, Phys. Chem. Chem. Phys.
     2020, 22, 8499-8512. DOI: 10.1039/D0CP00502A
   
   for sTDA-xTB:
   * S. Grimme and C. Bannwarth, J. Chem. Phys., 2016, 145, 054103.
     DOI: 10.1063/1.4959605
   
   in the mass-spec context:
   * V. Asgeirsson, C. Bauer and S. Grimme, Chem. Sci., 2017, 8, 4879.
     DOI: 10.1039/c7sc00601b
   * J. Koopman and S. Grimme, ACS Omega 2019, 4, 12, 15120-15133.
     DOI: 10.1021/acsomega.9b02011
   
   for metadynamics refer to:
   * S. Grimme, J. Chem. Theory Comput., 2019, 155, 2847-2862
     DOI: 10.1021/acs.jctc.9b00143
   
   for SPH calculations refer to:
   * S. Spicher and S. Grimme, J. Chem. Theory Comput., 2021, 17, 1701-1714
     DOI: 10.1021/acs.jctc.0c01306
   
   for ONIOM refer to:
   * C. Plett, A. Katbashev, S. Ehlert, S. Grimme, M. Bursch,
     Phys. Chem. Chem. Phys., 2023, 25, 17860-17868. DOI: 10.1039/D3CP02178E
   
   for DIPRO refer to:
   * J. Kohn, N. Gildemeister, S. Grimme, D. Fazzi, A. Hansen,
     J. Chem. Phys., 2023, just accepted.
   
   for PTB refer to:
   * S. Grimme, M. Mueller, A. Hansen, J. Chem. Phys., 2023, 158, 124111.
     DOI: 10.1063/5.0137838
   
   with help from (in alphabetical order)
   P. Atkinson, C. Bannwarth, F. Bohle, G. Brandenburg, E. Caldeweyher
   M. Checinski, S. Dohm, S. Ehlert, S. Ehrlich, I. Gerasimov, C. Hölzer
   A. Katbashev, J. Kohn, J. Koopman, C. Lavigne, S. Lehtola, F. März, M. Müller,
   F. Musil, H. Neugebauer, J. Pisarek, C. Plett, P. Pracht, F. Pultar,
   J. Seibert, P. Shushkov, S. Spicher, M. Stahn, M. Steiner, T. Strunk,
   J. Stückrath, T. Rose, and J. Unsleber
   
 * started run on 2025/04/09 at 05:21:00.346     
   ID    Z sym.   atoms
    1    6 C      1, 2, 7, 8, 10, 15, 16, 18, 19
    2    8 O      3, 6, 14, 17
    3   15 P      4, 12
    4   16 S      5, 9, 11, 13
    5    1 H      20-41

           -------------------------------------------------
          |                Calculation Setup                |
           -------------------------------------------------

          program call               : /srv/scratch/z5358697/.xtb/bin/xtb gas.coord --gfn2 --sp --chrg 0 --norestart --parallel 1
          hostname                   : k163
          coordinate file            : gas.coord
          omp threads                :                     1


           -------------------------------------------------
          |                 G F N 2 - x T B                 |
           -------------------------------------------------

        Reference                      10.1021/acs.jctc.8b01176
      * Hamiltonian:
        H0-scaling (s, p, d)           1.850000    2.230000    2.230000
        zeta-weighting                 0.500000
      * Dispersion:
        s8                             2.700000
        a1                             0.520000
        a2                             5.000000
        s9                             5.000000
      * Repulsion:
        kExp                           1.500000    1.000000
        rExp                           1.000000
      * Coulomb:
        alpha                          2.000000
        third order                    shell-resolved
        anisotropic                    true
        a3                             3.000000
        a5                             4.000000
        cn-shift                       1.200000
        cn-exp                         4.000000
        max-rad                        5.000000


          ...................................................
          :                      SETUP                      :
          :.................................................:
          :  # basis functions                 134          :
          :  # atomic orbitals                 128          :
          :  # shells                           66          :
          :  # electrons                       116          :
          :  max. iterations                   250          :
          :  Hamiltonian                  GFN2-xTB          :
          :  restarted?                      false          :
          :  GBSA solvation                  false          :
          :  PC potential                    false          :
          :  electronic temp.          300.0000000     K    :
          :  accuracy                    1.0000000          :
          :  -> integral cutoff          0.2500000E+02      :
          :  -> integral neglect         0.1000000E-07      :
          :  -> SCF convergence          0.1000000E-05 Eh   :
          :  -> wf. convergence          0.1000000E-03 e    :
          :  Broyden damping             0.4000000          :
          :  net charge                          0          :
          :  unpaired electrons                  0          :
          ...................................................

 iter      E             dE          RMSdq      gap      omega  full diag
   1    -65.3787365 -0.653787E+02  0.649E+00    4.11       0.0  T
   2    -65.5483789 -0.169642E+00  0.421E+00    3.12       1.0  T
   3    -65.5673903 -0.190114E-01  0.141E+00    2.98       1.0  T
   4    -65.5704726 -0.308231E-02  0.569E-01    2.68       1.0  T
   5    -65.5715286 -0.105607E-02  0.280E-01    2.81       1.0  T
   6    -65.5718356 -0.306973E-03  0.128E-01    2.79       1.0  T
   7    -65.5718841 -0.485237E-04  0.498E-02    2.80       1.0  T
   8    -65.5718930 -0.883463E-05  0.216E-02    2.81       1.0  T
   9    -65.5718940 -0.100053E-05  0.591E-03    2.81       2.6  T
  10    -65.5718941 -0.954124E-07  0.273E-03    2.81       5.7  T
  11    -65.5718941 -0.763401E-08  0.602E-04    2.81      25.9  T
  12    -65.5718941 -0.103637E-08  0.303E-04    2.81      51.6  T

   *** convergence criteria satisfied after 12 iterations ***

         #    Occupation            Energy/Eh            Energy/eV
      -------------------------------------------------------------
         1        2.0000           -0.7606805             -20.6992
       ...           ...                  ...                  ...
        52        2.0000           -0.4411247             -12.0036
        53        2.0000           -0.4093598             -11.1392
        54        2.0000           -0.4023775             -10.9492
        55        2.0000           -0.3734479             -10.1620
        56        2.0000           -0.3717331             -10.1154
        57        2.0000           -0.3708895             -10.0924
        58        2.0000           -0.3697003             -10.0601 (HOMO)
        59                         -0.2664563              -7.2506 (LUMO)
        60                         -0.2341012              -6.3702
        61                         -0.2119841              -5.7684
        62                         -0.1927473              -5.2449
        63                         -0.1622324              -4.4146
       ...                                ...                  ...
       128                          1.3208960              35.9434
      -------------------------------------------------------------
                  HL-Gap            0.1032440 Eh            2.8094 eV
             Fermi-level           -0.3180783 Eh           -8.6554 eV

 SCC (total)                   0 d,  0 h,  0 min,  0.058 sec
 SCC setup                      ...        0 min,  0.000 sec (  0.500%)
 Dispersion                     ...        0 min,  0.000 sec (  0.533%)
 classical contributions        ...        0 min,  0.000 sec (  0.102%)
 integral evaluation            ...        0 min,  0.009 sec ( 14.887%)
 iterations                     ...        0 min,  0.025 sec ( 43.927%)
 molecular gradient             ...        0 min,  0.023 sec ( 39.660%)
 printout                       ...        0 min,  0.000 sec (  0.360%)

         :::::::::::::::::::::::::::::::::::::::::::::::::::::
         ::                     SUMMARY                     ::
         :::::::::::::::::::::::::::::::::::::::::::::::::::::
         :: total energy             -65.011175700795 Eh    ::
         :: gradient norm              0.031502950065 Eh/a0 ::
         :: HOMO-LUMO gap              2.809412029454 eV    ::
         ::.................................................::
         :: SCC energy               -65.570770995750 Eh    ::
         :: -> isotropic ES            0.108089691623 Eh    ::
         :: -> anisotropic ES         -0.009491395236 Eh    ::
         :: -> anisotropic XC          0.031219636037 Eh    ::
         :: -> dispersion             -0.055715553060 Eh    ::
         :: repulsion energy           0.559595294955 Eh    ::
         :: add. restraining           0.000000000000 Eh    ::
         :: total charge              -0.000000000000 e     ::
         :::::::::::::::::::::::::::::::::::::::::::::::::::::

           -------------------------------------------------
          |                Property Printout                |
           -------------------------------------------------

    * Orbital Energies and Occupations

         #    Occupation            Energy/Eh            Energy/eV
      -------------------------------------------------------------
         1        2.0000           -0.7606805             -20.6992
       ...           ...                  ...                  ...
        46        2.0000           -0.4679772             -12.7343
        47        2.0000           -0.4651619             -12.6577
        48        2.0000           -0.4620331             -12.5726
        49        2.0000           -0.4596630             -12.5081
        50        2.0000           -0.4520507             -12.3009
        51        2.0000           -0.4454779             -12.1221
        52        2.0000           -0.4411247             -12.0036
        53        2.0000           -0.4093598             -11.1392
        54        2.0000           -0.4023775             -10.9492
        55        2.0000           -0.3734479             -10.1620
        56        2.0000           -0.3717331             -10.1154
        57        2.0000           -0.3708895             -10.0924
        58        2.0000           -0.3697003             -10.0601 (HOMO)
        59                         -0.2664563              -7.2506 (LUMO)
        60                         -0.2341012              -6.3702
        61                         -0.2119841              -5.7684
        62                         -0.1927473              -5.2449
        63                         -0.1622324              -4.4146
        64                         -0.1578536              -4.2954
        65                         -0.1541526              -4.1947
        66                         -0.1456810              -3.9642
        67                         -0.1238967              -3.3714
        68                         -0.1123129              -3.0562
        69                         -0.0346928              -0.9440
       ...                                ...                  ...
       128                          1.3208960              35.9434
      -------------------------------------------------------------
                  HL-Gap            0.1032440 Eh            2.8094 eV
             Fermi-level           -0.3180783 Eh           -8.6554 eV

     #   Z          covCN         q      C6AA      α(0)
     1   6 C        3.751    -0.113    22.717     6.797
     2   6 C        3.876     0.086    19.113     6.216
     3   8 O        1.655    -0.257    18.279     5.772
     4  15 P        3.930     0.375   144.650    21.605
     5  16 S        0.926    -0.407   156.962    21.191
     6   8 O        1.655    -0.249    18.135     5.749
     7   6 C        3.865     0.081    19.190     6.230
     8   6 C        3.751    -0.118    22.814     6.812
     9  16 S        1.987    -0.138   146.874    20.397
    10   6 C        3.805     0.036    19.962     6.361
    11  16 S        2.050    -0.115   145.866    20.327
    12  15 P        3.796     0.396   143.845    21.545
    13  16 S        0.928    -0.413   157.243    21.210
    14   8 O        1.656    -0.258    18.297     5.774
    15   6 C        3.840     0.084    19.157     6.226
    16   6 C        3.751    -0.116    22.778     6.806
    17   8 O        1.656    -0.250    18.164     5.753
    18   6 C        3.829     0.086    19.140     6.225
    19   6 C        3.751    -0.114    22.738     6.800
    20   1 H        0.925     0.058     2.221     2.330
    21   1 H        0.925     0.057     2.229     2.335
    22   1 H        0.925     0.061     2.188     2.313
    23   1 H        0.924     0.074     2.039     2.233
    24   1 H        0.924     0.064     2.156     2.296
    25   1 H        0.924     0.065     2.145     2.290
    26   1 H        0.924     0.063     2.164     2.301
    27   1 H        0.925     0.062     2.180     2.309
    28   1 H        0.925     0.061     2.188     2.313
    29   1 H        0.925     0.061     2.182     2.310
    30   1 H        0.925     0.090     1.880     2.144
    31   1 H        0.925     0.082     1.961     2.190
    32   1 H        0.924     0.052     2.296     2.369
    33   1 H        0.924     0.065     2.147     2.291
    34   1 H        0.925     0.066     2.133     2.284
    35   1 H        0.925     0.064     2.153     2.295
    36   1 H        0.925     0.055     2.254     2.348
    37   1 H        0.924     0.064     2.149     2.292
    38   1 H        0.924     0.064     2.150     2.293
    39   1 H        0.925     0.060     2.194     2.316
    40   1 H        0.925     0.059     2.214     2.327
    41   1 H        0.925     0.057     2.240     2.340

 Mol. C6AA /au·bohr⁶  :      26553.338984
 Mol. C8AA /au·bohr⁸  :     863111.537842
 Mol. α(0) /au        :        258.315203


Wiberg/Mayer (AO) data.
largest (>0.10) Wiberg bond orders for each atom

 ---------------------------------------------------------------------------
     #   Z sym  total        # sym  WBO       # sym  WBO       # sym  WBO
 ---------------------------------------------------------------------------
     1   6 C    3.992 --     2 C    1.023    21 H    0.984    22 H    0.980
                            20 H    0.976
     2   6 C    3.904 --     1 C    1.023    24 H    0.966    23 H    0.965
                             3 O    0.892
     3   8 O    2.393 --     4 P    1.290     2 C    0.892
     4  15 P    5.283 --     5 S    1.546     6 O    1.309     3 O    1.290
                             9 S    0.988
     5  16 S    1.877 --     4 P    1.546     9 S    0.140
     6   8 O    2.411 --     4 P    1.309     7 C    0.906
     7   6 C    3.910 --     8 C    1.022    25 H    0.970    26 H    0.968
                             6 O    0.906
     8   6 C    3.991 --     7 C    1.022    28 H    0.983    29 H    0.980
                            27 H    0.976
     9  16 S    2.286 --     4 P    0.988    10 C    0.977     5 S    0.140
    10   6 C    3.963 --    11 S    0.990     9 S    0.977    31 H    0.966
                            30 H    0.964
    11  16 S    2.280 --    10 C    0.990    12 P    0.977    13 S    0.107
    12  15 P    5.265 --    13 S    1.556    17 O    1.308    14 O    1.289
                            11 S    0.977
    13  16 S    1.874 --    12 P    1.556    11 S    0.107
    14   8 O    2.386 --    12 P    1.289    15 C    0.897
    15   6 C    3.914 --    16 C    1.022    32 H    0.972    33 H    0.970
                            14 O    0.897
    16   6 C    3.990 --    15 C    1.022    34 H    0.983    36 H    0.980
                            35 H    0.976
    17   8 O    2.418 --    12 P    1.308    18 C    0.901
    18   6 C    3.903 --    19 C    1.018    38 H    0.967    37 H    0.961
                            17 O    0.901
    19   6 C    3.988 --    18 C    1.018    40 H    0.985    41 H    0.984
                            39 H    0.980
    20   1 H    0.996 --     1 C    0.976
    21   1 H    0.997 --     1 C    0.984
    22   1 H    0.995 --     1 C    0.980
    23   1 H    0.994 --     2 C    0.965
    24   1 H    0.996 --     2 C    0.966
    25   1 H    0.996 --     7 C    0.970
    26   1 H    0.996 --     7 C    0.968
    27   1 H    0.996 --     8 C    0.976
    28   1 H    0.996 --     8 C    0.983
    29   1 H    0.995 --     8 C    0.980
    30   1 H    0.989 --    10 C    0.964
    31   1 H    0.993 --    10 C    0.966
    32   1 H    0.997 --    15 C    0.972
    33   1 H    0.996 --    15 C    0.970
    34   1 H    0.996 --    16 C    0.983
    35   1 H    0.996 --    16 C    0.976
    36   1 H    0.996 --    16 C    0.980
    37   1 H    0.996 --    18 C    0.961
    38   1 H    0.996 --    18 C    0.967
    39   1 H    0.995 --    19 C    0.980
    40   1 H    0.997 --    19 C    0.985
    41   1 H    0.997 --    19 C    0.984
 ---------------------------------------------------------------------------

Topologies differ in total number of bonds
Writing topology from bond orders to xtbtopo.mol

molecular dipole:
                 x           y           z       tot (Debye)
 q only:       -0.985      -2.156       0.895
   full:       -1.249      -2.257       1.132       7.160
molecular quadrupole (traceless):
                xx          xy          yy          xz          yz          zz
 q only:       10.130     -10.862      -5.260      -8.037       4.657      -4.870
  q+dip:        9.929     -13.272      -2.440     -12.470       8.460      -7.489
   full:       10.565     -13.942      -3.080     -12.727       7.754      -7.485


           -------------------------------------------------
          | TOTAL ENERGY              -65.011175700795 Eh   |
          | GRADIENT NORM               0.031502950065 Eh/α |
          | HOMO-LUMO GAP               2.809412029454 eV   |
           -------------------------------------------------

------------------------------------------------------------------------
 * finished run on 2025/04/09 at 05:21:00.439     
------------------------------------------------------------------------
 total:
 * wall-time:     0 d,  0 h,  0 min,  0.093 sec
 *  cpu-time:     0 d,  0 h,  0 min,  0.069 sec
 * ratio c/w:     0.742 speedup
 SCF:
 * wall-time:     0 d,  0 h,  0 min,  0.058 sec
 *  cpu-time:     0 d,  0 h,  0 min,  0.056 sec
 * ratio c/w:     0.965 speedup

