      -----------------------------------------------------------      
     |                   =====================                   |     
     |                           x T B                           |     
     |                   =====================                   |     
     |                         S. Grimme                         |     
     |          Mulliken Center for Theoretical Chemistry        |     
     |                    University of Bonn                     |     
      -----------------------------------------------------------      

   * xtb version 6.7.1 (edcfbbe) compiled by 'albert@albert-system' on 2024-07-22

   xtb is free software: you can redistribute it and/or modify it under
   the terms of the GNU Lesser General Public License as published by
   the Free Software Foundation, either version 3 of the License, or
   (at your option) any later version.
   
   xtb is distributed in the hope that it will be useful,
   but WITHOUT ANY WARRANTY; without even the implied warranty of
   MERCHANTABILITY or FITNESS FOR A PARTICULAR PURPOSE.  See the
   GNU Lesser General Public License for more details.
   
   Cite this work as:
   * C. Bannwarth, E. Caldeweyher, S. Ehlert, A. Hansen, P. Pracht,
     J. Seibert, S. Spicher, S. Grimme, WIREs Comput. Mol. Sci., 2020, 11,
     e01493. DOI: 10.1002/wcms.1493
   
   for GFN2-xTB:
   * C. Bannwarth, S. Ehlert and S. Grimme., J. Chem. Theory Comput., 2019,
     15, 1652-1671. DOI: 10.1021/acs.jctc.8b01176
   for GFN1-xTB:
   * S. Grimme, C. Bannwarth, P. Shushkov, J. Chem. Theory Comput., 2017,
     13, 1989-2009. DOI: 10.1021/acs.jctc.7b00118
   for GFN0-xTB:
   * P. Pracht, E. Caldeweyher, S. Ehlert, S. Grimme, ChemRxiv, 2019, preprint.
     DOI: 10.26434/chemrxiv.8326202.v1
   for GFN-FF:
   * S. Spicher and S. Grimme, Angew. Chem. Int. Ed., 2020, 59, 15665-15673.
     DOI: 10.1002/anie.202004239
   
   for ALPB and GBSA implicit solvation:
   * S. Ehlert, M. Stahn, S. Spicher, S. Grimme, J. Chem. Theory Comput.,
     2021, 17, 4250-4261. DOI: 10.1021/acs.jctc.1c00471
   
   for ddCOSMO and CPCM-X implicit solvation:
   * M. Stahn, S. Ehlert, S. Grimme, J. Phys. Chem. A,
     2023, XX, XXXX-XXXX. DOI: 10.1021/acs.jpca.3c04382
   
   for DFT-D4:
   * E. Caldeweyher, C. Bannwarth and S. Grimme, J. Chem. Phys., 2017,
     147, 034112. DOI: 10.1063/1.4993215
   * E. Caldeweyher, S. Ehlert, A. Hansen, H. Neugebauer, S. Spicher,
     C. Bannwarth and S. Grimme, J. Chem. Phys., 2019, 150, 154122.
     DOI: 10.1063/1.5090222
   * E. Caldeweyher, J.-M. Mewes, S. Ehlert and S. Grimme, Phys. Chem. Chem. Phys.
     2020, 22, 8499-8512. DOI: 10.1039/D0CP00502A
   
   for sTDA-xTB:
   * S. Grimme and C. Bannwarth, J. Chem. Phys., 2016, 145, 054103.
     DOI: 10.1063/1.4959605
   
   in the mass-spec context:
   * V. Asgeirsson, C. Bauer and S. Grimme, Chem. Sci., 2017, 8, 4879.
     DOI: 10.1039/c7sc00601b
   * J. Koopman and S. Grimme, ACS Omega 2019, 4, 12, 15120-15133.
     DOI: 10.1021/acsomega.9b02011
   
   for metadynamics refer to:
   * S. Grimme, J. Chem. Theory Comput., 2019, 155, 2847-2862
     DOI: 10.1021/acs.jctc.9b00143
   
   for SPH calculations refer to:
   * S. Spicher and S. Grimme, J. Chem. Theory Comput., 2021, 17, 1701-1714
     DOI: 10.1021/acs.jctc.0c01306
   
   for ONIOM refer to:
   * C. Plett, A. Katbashev, S. Ehlert, S. Grimme, M. Bursch,
     Phys. Chem. Chem. Phys., 2023, 25, 17860-17868. DOI: 10.1039/D3CP02178E
   
   for DIPRO refer to:
   * J. Kohn, N. Gildemeister, S. Grimme, D. Fazzi, A. Hansen,
     J. Chem. Phys., 2023, just accepted.
   
   for PTB refer to:
   * S. Grimme, M. Mueller, A. Hansen, J. Chem. Phys., 2023, 158, 124111.
     DOI: 10.1063/5.0137838
   
   with help from (in alphabetical order)
   P. Atkinson, C. Bannwarth, F. Bohle, G. Brandenburg, E. Caldeweyher
   M. Checinski, S. Dohm, S. Ehlert, S. Ehrlich, I. Gerasimov, C. Hölzer
   A. Katbashev, J. Kohn, J. Koopman, C. Lavigne, S. Lehtola, F. März, M. Müller,
   F. Musil, H. Neugebauer, J. Pisarek, C. Plett, P. Pracht, F. Pultar,
   J. Seibert, P. Shushkov, S. Spicher, M. Stahn, M. Steiner, T. Strunk,
   J. Stückrath, T. Rose, and J. Unsleber
   
 * started run on 2025/04/03 at 19:46:35.830     
   ID    Z sym.   atoms
    1    6 C      1, 2, 5
    2    8 O      3
    3    7 N      4
    4    1 H      6-12

           -------------------------------------------------
          |                Calculation Setup                |
           -------------------------------------------------

          program call               : /srv/scratch/z5358697/.xtb/bin/xtb xtb_rrho.coord --gfn2 --ohess vtight --chrg 0 --enso --norestart -I rrho-xcontrol-inp --parallel 1 --alpb water
          hostname                   : k146
          coordinate file            : xtb_rrho.coord
          omp threads                :                     1


           -------------------------------------------------
          |                 G F N 2 - x T B                 |
           -------------------------------------------------

        Reference                      10.1021/acs.jctc.8b01176
      * Hamiltonian:
        H0-scaling (s, p, d)           1.850000    2.230000    2.230000
        zeta-weighting                 0.500000
      * Dispersion:
        s8                             2.700000
        a1                             0.520000
        a2                             5.000000
        s9                             5.000000
      * Repulsion:
        kExp                           1.500000    1.000000
        rExp                           1.000000
      * Coulomb:
        alpha                          2.000000
        third order                    shell-resolved
        anisotropic                    true
        a3                             3.000000
        a5                             4.000000
        cn-shift                       1.200000
        cn-exp                         4.000000
        max-rad                        5.000000

      * Solvation model:               ALPB
        Solvent                        water
        Parameter file                 internal GFN2-xTB/ALPB
        Dielectric constant                8.0200E+01
        Reference state                gsolv [1 M gas/solution]
        Free energy shift                  1.0808E-03 Eh       6.7819E-01 kcal/mol
        Temperature                        2.9815E+02 K
        Density                            1.0000E+00 kg/L
        Solvent mass                       1.8000E+01 g/mol
        Interaction kernel             P16
        Born radius scaling (c1)           1.4744E+00
        Born radii integrator          GBOBC
        Born offset                        0.0000E+00 a0       0.0000E+00 AA
        H-bond correction              true
        Ion screening                  false
        Surface tension                    1.0000E-05 Eh       1.5569E+01 dyn/cm
        Grid points                               974 per atom

          ...................................................
          :                      SETUP                      :
          :.................................................:
          :  # basis functions                  27          :
          :  # atomic orbitals                  27          :
          :  # shells                           17          :
          :  # electrons                        30          :
          :  max. iterations                   250          :
          :  Hamiltonian                  GFN2-xTB          :
          :  restarted?                      false          :
          :  GBSA solvation                   true          :
          :  PC potential                    false          :
          :  electronic temp.          300.0000000     K    :
          :  accuracy                    1.0000000          :
          :  -> integral cutoff          0.2500000E+02      :
          :  -> integral neglect         0.1000000E-07      :
          :  -> SCF convergence          0.1000000E-05 Eh   :
          :  -> wf. convergence          0.1000000E-03 e    :
          :  Broyden damping             0.4000000          :
          :  net charge                          0          :
          :  unpaired electrons                  0          :
          ...................................................

 iter      E             dE          RMSdq      gap      omega  full diag
   1    -17.1396199 -0.171396E+02  0.425E+00    4.95       0.0  T
   2    -17.1916738 -0.520538E-01  0.220E+00    5.12       1.0  T
   3    -17.1922493 -0.575551E-03  0.106E+00    5.06       1.0  T
   4    -17.1924037 -0.154398E-03  0.138E-01    5.07       1.0  T
   5    -17.1924160 -0.123137E-04  0.743E-02    5.06       1.0  T
   6    -17.1924179 -0.183379E-05  0.231E-02    5.07       1.3  T
   7    -17.1924207 -0.285119E-05  0.789E-03    5.07       3.7  T
   8    -17.1924208 -0.805509E-07  0.211E-03    5.06      13.7  T
   9    -17.1924208 -0.508843E-08  0.926E-04    5.07      31.2  T
  10    -17.1924208 -0.177573E-08  0.137E-04    5.07     211.3  T

   *** convergence criteria satisfied after 10 iterations ***

         #    Occupation            Energy/Eh            Energy/eV
      -------------------------------------------------------------
         1        2.0000           -0.6941267             -18.8881
       ...           ...                  ...                  ...
         9        2.0000           -0.4952739             -13.4771
        10        2.0000           -0.4874141             -13.2632
        11        2.0000           -0.4713030             -12.8248
        12        2.0000           -0.4637019             -12.6180
        13        2.0000           -0.4624720             -12.5845
        14        2.0000           -0.3998800             -10.8813
        15        2.0000           -0.3976627             -10.8210 (HOMO)
        16                         -0.2115131              -5.7556 (LUMO)
        17                         -0.0003106              -0.0085
        18                          0.1036759               2.8212
        19                          0.1520210               4.1367
        20                          0.1621725               4.4129
       ...                                ...                  ...
        27                          0.5560631              15.1312
      -------------------------------------------------------------
                  HL-Gap            0.1861496 Eh            5.0654 eV
             Fermi-level           -0.3045879 Eh           -8.2883 eV

 SCC (total)                   0 d,  0 h,  0 min,  0.006 sec
 SCC setup                      ...        0 min,  0.001 sec ( 11.307%)
 Dispersion                     ...        0 min,  0.000 sec (  0.764%)
 classical contributions        ...        0 min,  0.000 sec (  0.249%)
 integral evaluation            ...        0 min,  0.001 sec ( 11.022%)
 iterations                     ...        0 min,  0.003 sec ( 51.063%)
 molecular gradient             ...        0 min,  0.001 sec ( 23.754%)
 printout                       ...        0 min,  0.000 sec (  1.627%)

         :::::::::::::::::::::::::::::::::::::::::::::::::::::
         ::                     SUMMARY                     ::
         :::::::::::::::::::::::::::::::::::::::::::::::::::::
         :: total energy             -16.996522291310 Eh    ::
         :: total w/o Gsasa/hb       -16.994787913300 Eh    ::
         :: gradient norm              0.030574466827 Eh/a0 ::
         :: HOMO-LUMO gap              5.065387648217 eV    ::
         ::.................................................::
         :: SCC energy               -17.192417724474 Eh    ::
         :: -> isotropic ES            0.063504478074 Eh    ::
         :: -> anisotropic ES          0.001604873144 Eh    ::
         :: -> anisotropic XC          0.006787573000 Eh    ::
         :: -> dispersion             -0.005407772214 Eh    ::
         :: -> Gsolv                  -0.016935974205 Eh    ::
         ::    -> Gelec               -0.015201596196 Eh    ::
         ::    -> Gsasa                0.000954357786 Eh    ::
         ::    -> Ghb                 -0.003769495494 Eh    ::
         ::    -> Gshift               0.001080759698 Eh    ::
         :: repulsion energy           0.195895433164 Eh    ::
         :: add. restraining           0.000000000000 Eh    ::
         :: total charge               0.000000000000 e     ::
         :::::::::::::::::::::::::::::::::::::::::::::::::::::

      ----------------------------------------------------------- 
     |                   =====================                   |
     |                        A N C O P T                        |
     |                   =====================                   |
     |               Approximate Normal Coordinate               |
     |                Rational Function Optimizer                |
      ----------------------------------------------------------- 
      ----------------------------------------------------------- 
     |                   =====================                   |
     |                        A N C O P T                        |
     |                   =====================                   |
     |               Approximate Normal Coordinate               |
     |                Rational Function Optimizer                |
      ----------------------------------------------------------- 

          ...................................................
          :                      SETUP                      :
          :.................................................:
          :   optimization level         verytight          :
          :   max. optcycles                   240          :
          :   ANC micro-cycles                  20          :
          :   degrees of freedom                30          :
          :.................................................:
          :   RF solver                   davidson          :
          :   write xtbopt.log                true          :
          :   linear?                        false          :
          :   energy convergence         0.1000000E-06 Eh   :
          :   grad. convergence          0.2000000E-03 Eh/α :
          :   maxmium RF displ.          1.0000000          :
          :   Hlow (freq-cutoff)         0.1000000E-01      :
          :   Hmax (freq-cutoff)         5.0000000          :
          :   S6 in model hess.         20.0000000          :
          ...................................................

generating ANC from exact Hessian ...
Using Lindh-Hessian (1995)
 Shifting diagonal of input Hessian by   4.604878143512711E-003
 Lowest  eigenvalues of input Hessian
    0.000000    0.000000    0.000000    0.000000    0.000000    0.000000
    0.010000    0.013310    0.021099    0.023407    0.036972    0.055967
    0.060447    0.065648    0.085147    0.096791    0.109157    0.122630
 Highest eigenvalues
    1.112370    1.142401    1.209919    1.494642    1.900850    2.215999
 

........................................................................
.............................. CYCLE    1 ..............................
........................................................................

 iter      E             dE          RMSdq      gap      omega  full diag
   1    -17.1924208 -0.171924E+02  0.406E-05    5.07       0.0  T
   2    -17.1924208 -0.471800E-11  0.241E-05    5.07    1196.5  T
   3    -17.1924208 -0.618172E-12  0.152E-05    5.07    1905.3  T
     SCC iter.                  ...        0 min,  0.001 sec
     gradient                   ...        0 min,  0.002 sec
 * total energy  :   -16.9965223 Eh     change       -0.1998046E-10 Eh
   gradient norm :     0.0305743 Eh/α   predicted     0.0000000E+00 (-100.00%)
   displ. norm   :     0.1045613 α      lambda       -0.1225895E-02
   maximum displ.:     0.0873330 α      in ANC's #5, #8, #20, ...

........................................................................
.............................. CYCLE    2 ..............................
........................................................................

 iter      E             dE          RMSdq      gap      omega  full diag
   1    -17.2010139 -0.172010E+02  0.118E-01    5.19       0.0  T
   2    -17.2010352 -0.212736E-04  0.673E-02    5.18       1.0  T
   3    -17.2010359 -0.694771E-06  0.283E-02    5.19       1.0  T
   4    -17.2010373 -0.140832E-05  0.633E-03    5.19       4.6  T
   5    -17.2010373 -0.611578E-07  0.270E-03    5.19      10.7  T
   6    -17.2010373 -0.851306E-08  0.730E-04    5.19      39.5  T
   7    -17.2010373 -0.430742E-09  0.242E-04    5.19     119.1  T
     SCC iter.                  ...        0 min,  0.001 sec
     gradient                   ...        0 min,  0.001 sec
 * total energy  :   -16.9972745 Eh     change       -0.7521733E-03 Eh
   gradient norm :     0.0095624 Eh/α   predicted    -0.6196500E-03 ( -17.62%)
   displ. norm   :     0.0363825 α      lambda       -0.1198740E-03
   maximum displ.:     0.0325481 α      in ANC's #5, #3, #18, ...

........................................................................
.............................. CYCLE    3 ..............................
........................................................................

 iter      E             dE          RMSdq      gap      omega  full diag
   1    -17.2033796 -0.172034E+02  0.395E-02    5.22       0.0  T
   2    -17.2033836 -0.405115E-05  0.196E-02    5.22       1.5  T
   3    -17.2033838 -0.146665E-06  0.957E-03    5.23       3.0  T
   4    -17.2033839 -0.612633E-07  0.229E-03    5.22      12.6  T
   5    -17.2033839 -0.145868E-07  0.811E-04    5.22      35.6  T
   6    -17.2033839 -0.771870E-09  0.140E-04    5.22     205.8  T
     SCC iter.                  ...        0 min,  0.001 sec
     gradient                   ...        0 min,  0.002 sec
 * total energy  :   -16.9973427 Eh     change       -0.6819043E-04 Eh
   gradient norm :     0.0025317 Eh/α   predicted    -0.6001808E-04 ( -11.98%)
   displ. norm   :     0.0103627 α      lambda       -0.1193488E-04
   maximum displ.:     0.0066388 α      in ANC's #5, #8, #9, ...

........................................................................
.............................. CYCLE    4 ..............................
........................................................................

 iter      E             dE          RMSdq      gap      omega  full diag
   1    -17.2033503 -0.172034E+02  0.125E-02    5.23       0.0  T
   2    -17.2033507 -0.306910E-06  0.624E-03    5.23       4.6  T
   3    -17.2033507 -0.681711E-08  0.275E-03    5.23      10.5  T
   4    -17.2033507 -0.160536E-08  0.370E-04    5.23      78.0  T
   5    -17.2033507 -0.444160E-09  0.221E-04    5.23     130.4  T
     SCC iter.                  ...        0 min,  0.001 sec
     gradient                   ...        0 min,  0.001 sec
 * total energy  :   -16.9973506 Eh     change       -0.7985916E-05 Eh
   gradient norm :     0.0010644 Eh/α   predicted    -0.5968779E-05 ( -25.26%)
   displ. norm   :     0.0086862 α      lambda       -0.3306233E-05
   maximum displ.:     0.0039681 α      in ANC's #8, #9, #3, ...

........................................................................
.............................. CYCLE    5 ..............................
........................................................................

 iter      E             dE          RMSdq      gap      omega  full diag
   1    -17.2030118 -0.172030E+02  0.106E-02    5.22       0.0  T
   2    -17.2030119 -0.151965E-06  0.570E-03    5.23       5.1  T
   3    -17.2030119 -0.548014E-08  0.212E-03    5.23      13.6  T
   4    -17.2030119 -0.103848E-08  0.327E-04    5.23      88.4  T
   5    -17.2030119 -0.386393E-10  0.114E-04    5.23     253.4  T
     SCC iter.                  ...        0 min,  0.001 sec
     gradient                   ...        0 min,  0.002 sec
 * total energy  :   -16.9973524 Eh     change       -0.1714036E-05 Eh
   gradient norm :     0.0005453 Eh/α   predicted    -0.1652200E-05 (  -3.61%)
   displ. norm   :     0.0028677 α      lambda       -0.4585969E-06
   maximum displ.:     0.0016966 α      in ANC's #5, #8, #2, ...

........................................................................
.............................. CYCLE    6 ..............................
........................................................................

 iter      E             dE          RMSdq      gap      omega  full diag
   1    -17.2030825 -0.172031E+02  0.312E-03    5.23       0.0  T
   2    -17.2030826 -0.199825E-07  0.161E-03    5.23      18.0  T
   3    -17.2030826 -0.346681E-09  0.736E-04    5.23      39.2  T
   4    -17.2030826 -0.922284E-10  0.102E-04    5.23     283.5  T
     SCC iter.                  ...        0 min,  0.001 sec
     gradient                   ...        0 min,  0.001 sec
 * total energy  :   -16.9973527 Eh     change       -0.3920125E-06 Eh
   gradient norm :     0.0001414 Eh/α   predicted    -0.2289233E-06 ( -41.60%)
   displ. norm   :     0.0017186 α      lambda       -0.5810786E-07
   maximum displ.:     0.0007668 α      in ANC's #3, #2, #1, ...

........................................................................
.............................. CYCLE    7 ..............................
........................................................................

 iter      E             dE          RMSdq      gap      omega  full diag
   1    -17.2031149 -0.172031E+02  0.118E-03    5.23       0.0  T
   2    -17.2031149 -0.198987E-08  0.651E-04    5.23      44.3  T
   3    -17.2031149 -0.619238E-10  0.263E-04    5.23     109.6  T
     SCC iter.                  ...        0 min,  0.000 sec
     gradient                   ...        0 min,  0.002 sec
 * total energy  :   -16.9973528 Eh     change       -0.4473708E-07 Eh
   gradient norm :     0.0000542 Eh/α   predicted    -0.2892185E-07 ( -35.35%)
   displ. norm   :     0.0020046 α      lambda       -0.2511427E-07
   maximum displ.:     0.0015711 α      in ANC's #2, #4, #3, ...

   *** GEOMETRY OPTIMIZATION CONVERGED AFTER 7 ITERATIONS ***

------------------------------------------------------------------------
 total energy gain   :        -0.0008305 Eh       -0.5211 kcal/mol
 total RMSD          :         0.0419969 a0        0.0222 Å
 total power (kW/mol):        -0.3114969 (step)  -70.4629 (real)
------------------------------------------------------------------------

 ANCopt (total)                0 d,  0 h,  0 min,  0.031 sec
 optimizer setup                ...        0 min,  0.000 sec (  0.830%)
 model hessian                  ...        0 min,  0.001 sec (  3.053%)
 ANC generation                 ...        0 min,  0.000 sec (  0.530%)
 coordinate transformation      ...        0 min,  0.000 sec (  0.094%)
 single point calculation       ...        0 min,  0.024 sec ( 78.422%)
 optimization log               ...        0 min,  0.005 sec ( 14.926%)
 hessian update                 ...        0 min,  0.000 sec (  0.074%)
 rational function              ...        0 min,  0.000 sec (  1.183%)

================
 final structure:
================
$coord
       -3.32191810483848        1.30199342468852       -0.00026763289848      C
       -0.89279920602993       -0.19989688532551        0.00034490895815      C
       -0.84486116724478       -2.52273431008787        0.00104932608412      O
        1.20640483159763        1.21794070646428        0.00002585363499      N
        3.73286267419876        0.18276852248078       -0.00086114416344      C
       -3.41350755426717        2.48956601970147        1.67226620913366      H
       -3.41258633821036        2.49042011557796       -1.67225667803684      H
       -4.91343119771130        0.00698989648938       -0.00098702301411      H
        1.04184704242504        3.11610464623350       -0.00200112057304      H
        4.75397175446646        0.77838600679987       -1.68755943075925      H
        3.57067837881226       -1.86819252089789        0.00928952708851      H
        4.76106681775523        0.79502014303712        1.67537657200383      H
$end
 
 Bond Distances (Angstroems)
 ---------------------------
C1-C2=1.5113         C1-H6=1.0866         C1-H7=1.0866         C1-H8=1.0858         C2-C1=1.5113         C2-O3=1.2295         
C2-N4=1.3405         O3-C2=1.2295         N4-C2=1.3405         N4-C5=1.4448         N4-H9=1.0082         C5-N4=1.4448         
C5-H10=1.0899        C5-H11=1.0887        C5-H12=1.0899        H6-C1=1.0866         H7-C1=1.0866         H8-C1=1.0858         
H9-N4=1.0082         H10-C5=1.0899        H11-C5=1.0887        H12-C5=1.0899        
 C  H  Rav=1.0879 sigma=0.0017  Rmin=1.0858  Rmax=1.0899     6
 C  C  Rav=1.5113 sigma=0.0000  Rmin=1.5113  Rmax=1.5113     1
 N  H  Rav=1.0082 sigma=0.0000  Rmin=1.0082  Rmax=1.0082     1
 N  C  Rav=1.3927 sigma=0.0522  Rmin=1.3405  Rmax=1.4448     2
 O  C  Rav=1.2295 sigma=0.0000  Rmin=1.2295  Rmax=1.2295     1
 
 selected bond angles (degree)
 --------------------
H6-C1-C2=109.99                H7-C1-C2=110.01                H7-C1-H6=109.06                H8-C1-C2=109.14                
H8-C1-H6=109.31                H8-C1-H7=109.32                O3-C2-C1=122.91                N4-C2-C1=114.24                
N4-C2-O3=122.85                C5-N4-C2=123.68                H9-N4-C2=119.08                H9-N4-C5=117.24                
H10-C5-N4=110.45               H11-C5-N4=107.76               H11-C5-H10=109.35              H12-C5-N4=110.43               
H12-C5-H10=109.45              H12-C5-H11=109.37              
 
 selected dihedral angles (degree)
 ---------------------------------
O3-C2-C1-H6=119.89            O3-C2-C1-H7=240.04            O3-C2-C1-H8=359.97            N4-C2-C1-H6=299.89            
N4-C2-C1-H7= 60.04            N4-C2-C1-H8=179.97            C5-N4-C2-C1=180.03            C5-N4-C2-O3=  0.03            
H9-N4-C2-C1=359.95            H9-N4-C2-O3=179.95            H10-C5-N4-C2=119.09           H10-C5-N4-H9=299.17           
H11-C5-N4-C2=359.69           H11-C5-N4-H9=179.78           H12-C5-N4-C2=240.29           H12-C5-N4-H9= 60.37           
           -------------------------------------------------
          |                Final Singlepoint                |
           -------------------------------------------------

          ...................................................
          :                      SETUP                      :
          :.................................................:
          :  # basis functions                  27          :
          :  # atomic orbitals                  27          :
          :  # shells                           17          :
          :  # electrons                        30          :
          :  max. iterations                   250          :
          :  Hamiltonian                  GFN2-xTB          :
          :  restarted?                      false          :
          :  GBSA solvation                   true          :
          :  PC potential                    false          :
          :  electronic temp.          300.0000000     K    :
          :  accuracy                    1.0000000          :
          :  -> integral cutoff          0.2500000E+02      :
          :  -> integral neglect         0.1000000E-07      :
          :  -> SCF convergence          0.1000000E-05 Eh   :
          :  -> wf. convergence          0.1000000E-03 e    :
          :  Broyden damping             0.4000000          :
          :  net charge                          0          :
          :  unpaired electrons                  0          :
          ...................................................

 iter      E             dE          RMSdq      gap      omega  full diag
   1    -17.2031149 -0.172031E+02  0.521E-05    5.23       0.0  T
   2    -17.2031149 -0.885692E-11  0.280E-05    5.23    1031.3  T
   3    -17.2031149 -0.137135E-11  0.175E-05    5.23    1652.6  T

   *** convergence criteria satisfied after 3 iterations ***

         #    Occupation            Energy/Eh            Energy/eV
      -------------------------------------------------------------
         1        2.0000           -0.6982039             -18.9991
       ...           ...                  ...                  ...
         9        2.0000           -0.4967807             -13.5181
        10        2.0000           -0.4879800             -13.2786
        11        2.0000           -0.4706602             -12.8073
        12        2.0000           -0.4659757             -12.6798
        13        2.0000           -0.4620313             -12.5725
        14        2.0000           -0.3994776             -10.8703
        15        2.0000           -0.3981331             -10.8338 (HOMO)
        16                         -0.2060940              -5.6081 (LUMO)
        17                          0.0121687               0.3311
        18                          0.1050789               2.8593
        19                          0.1615536               4.3961
        20                          0.1653172               4.4985
       ...                                ...                  ...
        27                          0.5993711              16.3097
      -------------------------------------------------------------
                  HL-Gap            0.1920391 Eh            5.2256 eV
             Fermi-level           -0.3021135 Eh           -8.2209 eV

 SCC (total)                   0 d,  0 h,  0 min,  0.004 sec
 SCC setup                      ...        0 min,  0.001 sec ( 15.109%)
 Dispersion                     ...        0 min,  0.000 sec (  0.728%)
 classical contributions        ...        0 min,  0.000 sec (  0.227%)
 integral evaluation            ...        0 min,  0.001 sec ( 16.766%)
 iterations                     ...        0 min,  0.001 sec ( 17.013%)
 molecular gradient             ...        0 min,  0.002 sec ( 47.197%)
 printout                       ...        0 min,  0.000 sec (  2.633%)

         :::::::::::::::::::::::::::::::::::::::::::::::::::::
         ::                     SUMMARY                     ::
         :::::::::::::::::::::::::::::::::::::::::::::::::::::
         :: total energy             -16.997352791769 Eh    ::
         :: total w/o Gsasa/hb       -16.995695233189 Eh    ::
         :: gradient norm              0.000054307040 Eh/a0 ::
         :: HOMO-LUMO gap              5.225649686611 eV    ::
         ::.................................................::
         :: SCC energy               -17.203111899308 Eh    ::
         :: -> isotropic ES            0.061447916683 Eh    ::
         :: -> anisotropic ES          0.001469092391 Eh    ::
         :: -> anisotropic XC          0.006554697496 Eh    ::
         :: -> dispersion             -0.005437805607 Eh    ::
         :: -> Gsolv                  -0.015982244520 Eh    ::
         ::    -> Gelec               -0.014324685941 Eh    ::
         ::    -> Gsasa                0.000942315150 Eh    ::
         ::    -> Ghb                 -0.003680633428 Eh    ::
         ::    -> Gshift               0.001080759698 Eh    ::
         :: repulsion energy           0.205759107539 Eh    ::
         :: add. restraining           0.000000000000 Eh    ::
         :: total charge               0.000000000000 e     ::
         :::::::::::::::::::::::::::::::::::::::::::::::::::::

           ------------------------------------------------- 
          |                Numerical Hessian                |
           ------------------------------------------------- 
step length          :   0.00500
SCC accuracy         :   0.30000
Hessian scale factor :   1.00000
frozen atoms in %    :   0.00000    0
RMS gradient         :   0.00005
estimated CPU  time      0.00 min
estimated wall time      0.00 min

writing file <hessian>.

 projected vibrational frequencies (cm⁻¹)
eigval :       -0.00    -0.00     0.00     0.00     0.00     0.00
eigval :       67.30   122.48   168.68   256.70   414.71   485.13
eigval :      591.36   618.38   890.62   986.26   999.64  1095.49
eigval :     1104.64  1130.49  1217.61  1367.07  1392.04  1429.30
eigval :     1443.65  1461.31  1462.89  1474.13  1656.37  2988.01
eigval :     3001.28  3036.57  3037.11  3038.36  3067.11  3450.50
           -------------------------------------------------
          |                Property Printout                |
           -------------------------------------------------

    * Orbital Energies and Occupations

         #    Occupation            Energy/Eh            Energy/eV
      -------------------------------------------------------------
         1        2.0000           -0.6982039             -18.9991
       ...           ...                  ...                  ...
         3        2.0000           -0.6373720             -17.3438
         4        2.0000           -0.6023364             -16.3904
         5        2.0000           -0.5779507             -15.7268
         6        2.0000           -0.5442380             -14.8095
         7        2.0000           -0.5423434             -14.7579
         8        2.0000           -0.5313950             -14.4600
         9        2.0000           -0.4967807             -13.5181
        10        2.0000           -0.4879801             -13.2786
        11        2.0000           -0.4706603             -12.8073
        12        2.0000           -0.4659758             -12.6798
        13        2.0000           -0.4620314             -12.5725
        14        2.0000           -0.3994777             -10.8703
        15        2.0000           -0.3981332             -10.8338 (HOMO)
        16                         -0.2060941              -5.6081 (LUMO)
        17                          0.0121687               0.3311
        18                          0.1050788               2.8593
        19                          0.1615536               4.3961
        20                          0.1653171               4.4985
        21                          0.1910892               5.1998
        22                          0.2161534               5.8818
        23                          0.2173582               5.9146
        24                          0.2249234               6.1205
        25                          0.2285318               6.2187
        26                          0.4034383              10.9781
        27                          0.5993710              16.3097
      -------------------------------------------------------------
                  HL-Gap            0.1920392 Eh            5.2257 eV
             Fermi-level           -0.3021136 Eh           -8.2209 eV

     #   Z          covCN         q      C6AA      α(0)
     1   6 C        3.758    -0.164    23.733     6.945
     2   6 C        2.749     0.280    22.265     7.726
     3   8 O        0.858    -0.544    24.791     6.676
     4   7 N        2.687    -0.181    24.913     7.413
     5   6 C        3.689    -0.059    21.839     6.688
     6   1 H        0.925     0.080     1.976     2.198
     7   1 H        0.925     0.080     1.976     2.198
     8   1 H        0.925     0.070     2.084     2.258
     9   1 H        0.860     0.223     0.997     1.564
    10   1 H        0.925     0.071     2.080     2.255
    11   1 H        0.925     0.074     2.043     2.235
    12   1 H        0.925     0.071     2.078     2.254

 Mol. C6AA /au·bohr⁶  :       1136.872981
 Mol. C8AA /au·bohr⁸  :      24157.249186
 Mol. α(0) /au        :         50.412785


Wiberg/Mayer (AO) data.
largest (>0.10) Wiberg bond orders for each atom

 ---------------------------------------------------------------------------
     #   Z sym  total        # sym  WBO       # sym  WBO       # sym  WBO
 ---------------------------------------------------------------------------
     1   6 C    3.991 --     2 C    0.987     8 H    0.984     7 H    0.967
                             6 H    0.967
     2   6 C    3.944 --     3 O    1.605     4 N    1.306     1 C    0.987
     3   8 O    1.910 --     2 C    1.605     4 N    0.194
     4   7 N    3.465 --     2 C    1.306     5 C    1.002     9 H    0.924
                             3 O    0.194
     5   6 C    3.960 --     4 N    1.002    11 H    0.979    12 H    0.975
                            10 H    0.974
     6   1 H    0.994 --     1 C    0.967
     7   1 H    0.994 --     1 C    0.967
     8   1 H    0.995 --     1 C    0.984
     9   1 H    0.950 --     4 N    0.924
    10   1 H    0.995 --     5 C    0.974
    11   1 H    0.995 --     5 C    0.979
    12   1 H    0.995 --     5 C    0.975
 ---------------------------------------------------------------------------

Topologies differ in total number of bonds
Writing topology from bond orders to xtbtopo.mol

molecular dipole:
                 x           y           z       tot (Debye)
 q only:        0.590       1.941      -0.001
   full:        0.546       2.139      -0.001       5.611
molecular quadrupole (traceless):
                xx          xy          yy          xz          yz          zz
 q only:        4.705      -1.975      -3.363       0.001       0.001      -1.343
  q+dip:        3.844      -1.520      -3.315      -0.001      -0.000      -0.529
   full:        3.970      -1.829      -3.712      -0.000       0.000      -0.257

           -------------------------------------------------
          |                Geometry Summary                 |
           -------------------------------------------------

      molecular mass/u    :       73.0939011
   center of mass at/Å    :        0.0000004      -0.0000032       0.0000132
  moments of inertia/u·Å² :        0.5102979E+02   0.1288149E+03   0.1734953E+03
rotational constants/cm⁻¹ :        0.3303489E+00   0.1308671E+00   0.9716480E-01

 * 10 selected distances

     #   Z          #   Z                                           value/Å
     2   6 C        3   8 O                                       1.2294545
     2   6 C        4   7 N                                       1.3404929
     4   7 N        5   6 C                                       1.4448159 (max)
     1   6 C        6   1 H                                       1.0865656
     1   6 C        7   1 H                                       1.0865706
     1   6 C        8   1 H                                       1.0857743
     4   7 N        9   1 H                                       1.0082333 (min)
     5   6 C       10   1 H                                       1.0899478
     5   6 C       11   1 H                                       1.0887233
     5   6 C       12   1 H                                       1.0898776

 * 4 distinct bonds (by element types)

   Z      Z             #   av. dist./Å        max./Å        min./Å
   1 H    6 C           6     1.0879099     1.0899478     1.0857743
   1 H    7 N           1     1.0082333     1.0082333     1.0082333
   6 C    7 N           2     1.3926544     1.4448159     1.3404929
   6 C    8 O           1     1.2294545     1.2294545     1.2294545

           -------------------------------------------------
          |               Frequency Printout                |
           -------------------------------------------------
 projected vibrational frequencies (cm⁻¹)
eigval :       -0.00    -0.00     0.00     0.00     0.00     0.00
eigval :       67.30   122.48   168.68   256.70   414.71   485.13
eigval :      591.36   618.38   890.62   986.26   999.64  1095.49
eigval :     1104.64  1130.49  1217.61  1367.07  1392.04  1429.30
eigval :     1443.65  1461.31  1462.89  1474.13  1656.37  2988.01
eigval :     3001.28  3036.57  3037.11  3038.36  3067.11  3450.50
 reduced masses (amu)
   1: 12.63   2: 12.37   3: 10.91   4: 11.77   5: 11.62   6:  9.31   7:  1.94   8:  2.03
   9:  9.58  10: 10.26  11: 10.30  12:  4.83  13:  7.05  14: 11.13  15:  9.55  16:  5.79
  17:  5.33  18:  6.63  19:  3.57  20:  9.49  21:  5.13  22:  3.22  23:  2.65  24:  8.75
  25:  1.69  26:  1.57  27:  1.57  28:  3.52  29: 12.95  30:  1.96  31:  1.45  32:  1.72
  33:  1.96  34:  1.47  35:  1.74  36:  1.85
 IR intensities (km·mol⁻¹)
   1:  5.03   2:  8.47   3:  3.31   4: 11.05   5:  4.69   6:  0.30   7:  0.04   8:  0.02
   9:  6.79  10: 10.66  11: 16.31  12:119.46  13:  4.94  14:  7.24  15:  6.12  16:  9.22
  17: 27.37  18: 98.44  19:  0.05  20:  5.93  21: 50.26  22: 23.13  23: 12.44  24:240.06
  25: 16.36  26:  6.18  27: 13.00  28: 66.56  29:854.02  30: 32.32  31: 47.44  32: 13.57
  33: 13.10  34:  9.80  35: 17.13  36: 38.87
 Raman intensities (Ä⁴*amu⁻¹)
   1:  0.00   2:  0.00   3:  0.00   4:  0.00   5:  0.00   6:  0.00   7:  0.00   8:  0.00
   9:  0.00  10:  0.00  11:  0.00  12:  0.00  13:  0.00  14:  0.00  15:  0.00  16:  0.00
  17:  0.00  18:  0.00  19:  0.00  20:  0.00  21:  0.00  22:  0.00  23:  0.00  24:  0.00
  25:  0.00  26:  0.00  27:  0.00  28:  0.00  29:  0.00  30:  0.00  31:  0.00  32:  0.00
  33:  0.00  34:  0.00  35:  0.00  36:  0.00
 output can be read by thermo (or use thermo option).
 writing <g98.out> molden fake output.
 recommended (thermochemical) frequency scaling factor: 1.0
           -------------------------------------------------
          |             Thermodynamic Functions             |
           -------------------------------------------------

Molecule has the following symmetry elements: (sigma) 
It seems to be the Cs point group
cs  symmetry found (for desy threshold:  0.10E+00) used in thermo

          ...................................................
          :                      SETUP                      :
          :.................................................:
          :  # frequencies                          30      :
          :  # imaginary freq.                       0      :
          :  linear?                             false      :
          :  only rotor calc.                    false      :
          :  symmetry                               cs      :
          :  rotational number                       1      :
          :  scaling factor                  1.0000000      :
          :  rotor cutoff                    0.0000000 cm⁻¹ :
          :  imag. cutoff                 -100.0000000 cm⁻¹ :
          :.................................................:

    mode    ω/cm⁻¹     T·S(HO)/kcal·mol⁻¹    T·S(FR)/kcal·mol⁻¹   T·S(vib)
   ------------------------------------------------------------------------
       1     67.30    -1.26138 (100.00%)    -0.96788 (  0.00%)    -1.26138
       2    122.48    -0.91260 (100.00%)    -0.79080 (  0.00%)    -0.91260
       3    168.68    -0.73050 (100.00%)    -0.69607 (  0.00%)    -0.73050
       4    256.70    -0.50212 (100.00%)    -0.57177 (  0.00%)    -0.50212
   ------------------------------------------------------------------------

   temp. (K)  partition function   enthalpy   heat capacity  entropy
                                   cal/mol     cal/K/mol   cal/K/mol   J/K/mol
 298.15  VIB   30.9                 2317.834     15.300     14.589
         ROT  0.816E+05              888.752      2.981     25.455
         INT  0.252E+07             3206.586     18.281     40.045
         TR   0.605E+27             1481.254      4.968     38.766
         TOT                        4687.8399    23.2491    78.8107   329.7441

       T/K    H(0)-H(T)+PV         H(T)/Eh          T*S/Eh         G(T)/Eh
   ------------------------------------------------------------------------
    298.15    0.747055E-02    0.106469E+00    0.374455E-01    0.690232E-01
   ------------------------------------------------------------------------

         :::::::::::::::::::::::::::::::::::::::::::::::::::::
         ::                  THERMODYNAMIC                  ::
         :::::::::::::::::::::::::::::::::::::::::::::::::::::
         :: total free energy         -16.928329602898 Eh   ::
         ::.................................................::
         :: total energy              -16.997352791675 Eh   ::
         :: zero point energy           0.098998164153 Eh   ::
         :: G(RRHO) w/o ZPVE           -0.029974975376 Eh   ::
         :: G(RRHO) contrib.            0.069023188777 Eh   ::
         :::::::::::::::::::::::::::::::::::::::::::::::::::::

optimized geometry written to: xtbopt.coord


           -------------------------------------------------
          | TOTAL ENERGY              -16.997352791675 Eh   |
          | TOTAL ENTHALPY            -16.890884079088 Eh   |
          | TOTAL FREE ENERGY         -16.928329602898 Eh   |
          | GRADIENT NORM               0.000054301716 Eh/α |
          | HOMO-LUMO GAP               5.225651629675 eV   |
           -------------------------------------------------

------------------------------------------------------------------------
 * finished run on 2025/04/03 at 19:46:36.191     
------------------------------------------------------------------------
 total:
 * wall-time:     0 d,  0 h,  0 min,  0.361 sec
 *  cpu-time:     0 d,  0 h,  0 min,  0.286 sec
 * ratio c/w:     0.793 speedup
 SCF:
 * wall-time:     0 d,  0 h,  0 min,  0.006 sec
 *  cpu-time:     0 d,  0 h,  0 min,  0.006 sec
 * ratio c/w:     0.986 speedup
 ANC optimizer:
 * wall-time:     0 d,  0 h,  0 min,  0.046 sec
 *  cpu-time:     0 d,  0 h,  0 min,  0.031 sec
 * ratio c/w:     0.669 speedup
 analytical hessian:
 * wall-time:     0 d,  0 h,  0 min,  0.251 sec
 *  cpu-time:     0 d,  0 h,  0 min,  0.241 sec
 * ratio c/w:     0.960 speedup

