      -----------------------------------------------------------      
     |                   =====================                   |     
     |                           x T B                           |     
     |                   =====================                   |     
     |                         S. Grimme                         |     
     |          Mulliken Center for Theoretical Chemistry        |     
     |                    University of Bonn                     |     
      -----------------------------------------------------------      

   * xtb version 6.7.1 (edcfbbe) compiled by 'albert@albert-system' on 2024-07-22

   xtb is free software: you can redistribute it and/or modify it under
   the terms of the GNU Lesser General Public License as published by
   the Free Software Foundation, either version 3 of the License, or
   (at your option) any later version.
   
   xtb is distributed in the hope that it will be useful,
   but WITHOUT ANY WARRANTY; without even the implied warranty of
   MERCHANTABILITY or FITNESS FOR A PARTICULAR PURPOSE.  See the
   GNU Lesser General Public License for more details.
   
   Cite this work as:
   * C. Bannwarth, E. Caldeweyher, S. Ehlert, A. Hansen, P. Pracht,
     J. Seibert, S. Spicher, S. Grimme, WIREs Comput. Mol. Sci., 2020, 11,
     e01493. DOI: 10.1002/wcms.1493
   
   for GFN2-xTB:
   * C. Bannwarth, S. Ehlert and S. Grimme., J. Chem. Theory Comput., 2019,
     15, 1652-1671. DOI: 10.1021/acs.jctc.8b01176
   for GFN1-xTB:
   * S. Grimme, C. Bannwarth, P. Shushkov, J. Chem. Theory Comput., 2017,
     13, 1989-2009. DOI: 10.1021/acs.jctc.7b00118
   for GFN0-xTB:
   * P. Pracht, E. Caldeweyher, S. Ehlert, S. Grimme, ChemRxiv, 2019, preprint.
     DOI: 10.26434/chemrxiv.8326202.v1
   for GFN-FF:
   * S. Spicher and S. Grimme, Angew. Chem. Int. Ed., 2020, 59, 15665-15673.
     DOI: 10.1002/anie.202004239
   
   for ALPB and GBSA implicit solvation:
   * S. Ehlert, M. Stahn, S. Spicher, S. Grimme, J. Chem. Theory Comput.,
     2021, 17, 4250-4261. DOI: 10.1021/acs.jctc.1c00471
   
   for ddCOSMO and CPCM-X implicit solvation:
   * M. Stahn, S. Ehlert, S. Grimme, J. Phys. Chem. A,
     2023, XX, XXXX-XXXX. DOI: 10.1021/acs.jpca.3c04382
   
   for DFT-D4:
   * E. Caldeweyher, C. Bannwarth and S. Grimme, J. Chem. Phys., 2017,
     147, 034112. DOI: 10.1063/1.4993215
   * E. Caldeweyher, S. Ehlert, A. Hansen, H. Neugebauer, S. Spicher,
     C. Bannwarth and S. Grimme, J. Chem. Phys., 2019, 150, 154122.
     DOI: 10.1063/1.5090222
   * E. Caldeweyher, J.-M. Mewes, S. Ehlert and S. Grimme, Phys. Chem. Chem. Phys.
     2020, 22, 8499-8512. DOI: 10.1039/D0CP00502A
   
   for sTDA-xTB:
   * S. Grimme and C. Bannwarth, J. Chem. Phys., 2016, 145, 054103.
     DOI: 10.1063/1.4959605
   
   in the mass-spec context:
   * V. Asgeirsson, C. Bauer and S. Grimme, Chem. Sci., 2017, 8, 4879.
     DOI: 10.1039/c7sc00601b
   * J. Koopman and S. Grimme, ACS Omega 2019, 4, 12, 15120-15133.
     DOI: 10.1021/acsomega.9b02011
   
   for metadynamics refer to:
   * S. Grimme, J. Chem. Theory Comput., 2019, 155, 2847-2862
     DOI: 10.1021/acs.jctc.9b00143
   
   for SPH calculations refer to:
   * S. Spicher and S. Grimme, J. Chem. Theory Comput., 2021, 17, 1701-1714
     DOI: 10.1021/acs.jctc.0c01306
   
   for ONIOM refer to:
   * C. Plett, A. Katbashev, S. Ehlert, S. Grimme, M. Bursch,
     Phys. Chem. Chem. Phys., 2023, 25, 17860-17868. DOI: 10.1039/D3CP02178E
   
   for DIPRO refer to:
   * J. Kohn, N. Gildemeister, S. Grimme, D. Fazzi, A. Hansen,
     J. Chem. Phys., 2023, just accepted.
   
   for PTB refer to:
   * S. Grimme, M. Mueller, A. Hansen, J. Chem. Phys., 2023, 158, 124111.
     DOI: 10.1063/5.0137838
   
   with help from (in alphabetical order)
   P. Atkinson, C. Bannwarth, F. Bohle, G. Brandenburg, E. Caldeweyher
   M. Checinski, S. Dohm, S. Ehlert, S. Ehrlich, I. Gerasimov, C. Hölzer
   A. Katbashev, J. Kohn, J. Koopman, C. Lavigne, S. Lehtola, F. März, M. Müller,
   F. Musil, H. Neugebauer, J. Pisarek, C. Plett, P. Pracht, F. Pultar,
   J. Seibert, P. Shushkov, S. Spicher, M. Stahn, M. Steiner, T. Strunk,
   J. Stückrath, T. Rose, and J. Unsleber
   
 * started run on 2025/04/09 at 07:31:33.766     
   ID    Z sym.   atoms
    1    6 C      1, 2, 4, 6, 7, 9, 12, 13, 18, 20
    2    8 O      3, 5, 10, 11, 17, 19
    3    1 H      8, 21-38
    4   16 S      14, 16
    5   15 P      15

           -------------------------------------------------
          |                Calculation Setup                |
           -------------------------------------------------

          program call               : /software/projects/pawsey0265/mwang1/xtb/bin/xtb gas.coord --gfn2 --sp --chrg 0 --norestart --parallel 1
          hostname                   : nid002043
          coordinate file            : gas.coord
          omp threads                :                     1


           -------------------------------------------------
          |                 G F N 2 - x T B                 |
           -------------------------------------------------

        Reference                      10.1021/acs.jctc.8b01176
      * Hamiltonian:
        H0-scaling (s, p, d)           1.850000    2.230000    2.230000
        zeta-weighting                 0.500000
      * Dispersion:
        s8                             2.700000
        a1                             0.520000
        a2                             5.000000
        s9                             5.000000
      * Repulsion:
        kExp                           1.500000    1.000000
        rExp                           1.000000
      * Coulomb:
        alpha                          2.000000
        third order                    shell-resolved
        anisotropic                    true
        a3                             3.000000
        a5                             4.000000
        cn-shift                       1.200000
        cn-exp                         4.000000
        max-rad                        5.000000


          ...................................................
          :                      SETUP                      :
          :.................................................:
          :  # basis functions                 113          :
          :  # atomic orbitals                 110          :
          :  # shells                           60          :
          :  # electrons                       112          :
          :  max. iterations                   250          :
          :  Hamiltonian                  GFN2-xTB          :
          :  restarted?                      false          :
          :  GBSA solvation                  false          :
          :  PC potential                    false          :
          :  electronic temp.          300.0000000     K    :
          :  accuracy                    1.0000000          :
          :  -> integral cutoff          0.2500000E+02      :
          :  -> integral neglect         0.1000000E-07      :
          :  -> SCF convergence          0.1000000E-05 Eh   :
          :  -> wf. convergence          0.1000000E-03 e    :
          :  Broyden damping             0.4000000          :
          :  net charge                          0          :
          :  unpaired electrons                  0          :
          ...................................................

 iter      E             dE          RMSdq      gap      omega  full diag
   1    -65.0507519 -0.650508E+02  0.582E+00    4.33       0.0  T
   2    -65.2080543 -0.157302E+00  0.327E+00    3.15       1.0  T
   3    -65.2182280 -0.101737E-01  0.143E+00    3.04       1.0  T
   4    -65.2248044 -0.657645E-02  0.466E-01    2.86       1.0  T
   5    -65.2264532 -0.164875E-02  0.236E-01    2.94       1.0  T
   6    -65.2266217 -0.168473E-03  0.967E-02    2.96       1.0  T
   7    -65.2266328 -0.111742E-04  0.356E-02    2.96       1.0  T
   8    -65.2266383 -0.542842E-05  0.180E-02    2.96       1.0  T
   9    -65.2266390 -0.756601E-06  0.372E-03    2.96       4.4  T
  10    -65.2266392 -0.143350E-06  0.211E-03    2.96       7.7  T
  11    -65.2266392 -0.467195E-08  0.569E-04    2.96      28.5  T
  12    -65.2266392 -0.109509E-08  0.197E-04    2.96      82.4  T

   *** convergence criteria satisfied after 12 iterations ***

         #    Occupation            Energy/Eh            Energy/eV
      -------------------------------------------------------------
         1        2.0000           -0.7584506             -20.6385
       ...           ...                  ...                  ...
        50        2.0000           -0.4453848             -12.1195
        51        2.0000           -0.4406729             -11.9913
        52        2.0000           -0.4306280             -11.7180
        53        2.0000           -0.4253051             -11.5731
        54        2.0000           -0.4019781             -10.9384
        55        2.0000           -0.3703505             -10.0778
        56        2.0000           -0.3673473              -9.9960 (HOMO)
        57                         -0.2584209              -7.0320 (LUMO)
        58                         -0.2386818              -6.4949
        59                         -0.2333972              -6.3511
        60                         -0.1887405              -5.1359
        61                         -0.1572600              -4.2793
       ...                                ...                  ...
       110                          1.3135315              35.7430
      -------------------------------------------------------------
                  HL-Gap            0.1089265 Eh            2.9640 eV
             Fermi-level           -0.3128841 Eh           -8.5140 eV

 SCC (total)                   0 d,  0 h,  0 min,  0.130 sec
 SCC setup                      ...        0 min,  0.000 sec (  0.312%)
 Dispersion                     ...        0 min,  0.000 sec (  0.275%)
 classical contributions        ...        0 min,  0.000 sec (  0.062%)
 integral evaluation            ...        0 min,  0.061 sec ( 46.661%)
 iterations                     ...        0 min,  0.033 sec ( 25.701%)
 molecular gradient             ...        0 min,  0.035 sec ( 26.697%)
 printout                       ...        0 min,  0.000 sec (  0.272%)

         :::::::::::::::::::::::::::::::::::::::::::::::::::::
         ::                     SUMMARY                     ::
         :::::::::::::::::::::::::::::::::::::::::::::::::::::
         :: total energy             -64.653700413401 Eh    ::
         :: gradient norm              0.041908971783 Eh/a0 ::
         :: HOMO-LUMO gap              2.964039801323 eV    ::
         ::.................................................::
         :: SCC energy               -65.226090766236 Eh    ::
         :: -> isotropic ES            0.144455909749 Eh    ::
         :: -> anisotropic ES         -0.012109830089 Eh    ::
         :: -> anisotropic XC          0.016528968044 Eh    ::
         :: -> dispersion             -0.042292515402 Eh    ::
         :: repulsion energy           0.572390352835 Eh    ::
         :: add. restraining           0.000000000000 Eh    ::
         :: total charge               0.000000000000 e     ::
         :::::::::::::::::::::::::::::::::::::::::::::::::::::

           -------------------------------------------------
          |                Property Printout                |
           -------------------------------------------------

    * Orbital Energies and Occupations

         #    Occupation            Energy/Eh            Energy/eV
      -------------------------------------------------------------
         1        2.0000           -0.7584506             -20.6385
       ...           ...                  ...                  ...
        44        2.0000           -0.4773047             -12.9881
        45        2.0000           -0.4755161             -12.9395
        46        2.0000           -0.4731607             -12.8754
        47        2.0000           -0.4572924             -12.4436
        48        2.0000           -0.4565856             -12.4243
        49        2.0000           -0.4535272             -12.3411
        50        2.0000           -0.4453848             -12.1195
        51        2.0000           -0.4406729             -11.9913
        52        2.0000           -0.4306280             -11.7180
        53        2.0000           -0.4253051             -11.5731
        54        2.0000           -0.4019781             -10.9384
        55        2.0000           -0.3703505             -10.0778
        56        2.0000           -0.3673473              -9.9960 (HOMO)
        57                         -0.2584209              -7.0320 (LUMO)
        58                         -0.2386818              -6.4949
        59                         -0.2333972              -6.3511
        60                         -0.1887405              -5.1359
        61                         -0.1572600              -4.2793
        62                         -0.1403934              -3.8203
        63                         -0.1061167              -2.8876
        64                         -0.0430490              -1.1714
        65                         -0.0288996              -0.7864
        66                         -0.0245218              -0.6673
        67                         -0.0080647              -0.2195
       ...                                ...                  ...
       110                          1.3135315              35.7430
      -------------------------------------------------------------
                  HL-Gap            0.1089265 Eh            2.9640 eV
             Fermi-level           -0.3128841 Eh           -8.5140 eV

     #   Z          covCN         q      C6AA      α(0)
     1   6 C        3.751    -0.116    22.781     6.807
     2   6 C        3.695     0.074    19.509     6.319
     3   8 O        1.703    -0.246    18.083     5.741
     4   6 C        2.716     0.366    20.790     7.464
     5   8 O        0.856    -0.424    22.159     6.311
     6   6 C        3.828    -0.092    22.236     6.710
     7   6 C        3.858     0.013    20.326     6.412
     8   1 H        0.924     0.099     1.798     2.097
     9   6 C        2.788     0.368    20.764     7.464
    10   8 O        0.868    -0.417    22.022     6.292
    11   8 O        1.703    -0.239    17.959     5.722
    12   6 C        3.700     0.083    19.346     6.290
    13   6 C        3.752    -0.116    22.784     6.807
    14  16 S        1.974    -0.150   147.373    20.432
    15  15 P        3.887     0.388   144.120    21.565
    16  16 S        0.926    -0.408   157.016    21.194
    17   8 O        1.654    -0.216    17.603     5.664
    18   6 C        3.817     0.029    20.073     6.376
    19   8 O        1.656    -0.260    18.319     5.778
    20   6 C        3.823     0.033    20.003     6.364
    21   1 H        0.925     0.061     2.190     2.314
    22   1 H        0.925     0.055     2.260     2.351
    23   1 H        0.925     0.057     2.240     2.340
    24   1 H        0.924     0.064     2.158     2.297
    25   1 H        0.925     0.064     2.156     2.296
    26   1 H        0.924     0.090     1.878     2.143
    27   1 H        0.924     0.084     1.935     2.175
    28   1 H        0.924     0.059     2.207     2.323
    29   1 H        0.924     0.073     2.058     2.243
    30   1 H        0.925     0.059     2.209     2.324
    31   1 H        0.925     0.060     2.200     2.320
    32   1 H        0.925     0.066     2.136     2.285
    33   1 H        0.925     0.078     2.000     2.212
    34   1 H        0.925     0.084     1.937     2.177
    35   1 H        0.925     0.068     2.103     2.268
    36   1 H        0.925     0.063     2.166     2.301
    37   1 H        0.925     0.077     2.012     2.218
    38   1 H        0.924     0.071     2.080     2.255

 Mol. C6AA /au·bohr⁶  :      18359.163818
 Mol. C8AA /au·bohr⁸  :     515184.545249
 Mol. α(0) /au        :        208.653910


Wiberg/Mayer (AO) data.
largest (>0.10) Wiberg bond orders for each atom

 ---------------------------------------------------------------------------
     #   Z sym  total        # sym  WBO       # sym  WBO       # sym  WBO
 ---------------------------------------------------------------------------
     1   6 C    3.991 --     2 C    1.014    23 H    0.986    21 H    0.985
                            22 H    0.982
     2   6 C    3.918 --     1 C    1.014    25 H    0.972    24 H    0.969
                             3 O    0.924
     3   8 O    2.337 --     4 C    1.176     2 C    0.924     5 O    0.178
     4   6 C    3.924 --     5 O    1.728     3 O    1.176     6 C    0.954
     5   8 O    2.020 --     4 C    1.728     3 O    0.178
     6   6 C    3.989 --     7 C    0.995    26 H    0.963     4 C    0.954
                            27 H    0.949
     7   6 C    3.972 --     6 C    0.995    14 S    0.961     9 C    0.952
                             8 H    0.931
     8   1 H    0.990 --     7 C    0.931
     9   6 C    3.924 --    10 O    1.687    11 O    1.200     7 C    0.952
    10   8 O    2.049 --     9 C    1.687    11 O    0.172
    11   8 O    2.355 --     9 C    1.200    12 C    0.909    10 O    0.172
    12   6 C    3.907 --    13 C    1.022    28 H    0.969    29 H    0.966
                            11 O    0.909
    13   6 C    3.989 --    12 C    1.022    30 H    0.985    32 H    0.984
                            31 H    0.982
    14  16 S    2.252 --    15 P    0.962     7 C    0.961    16 S    0.137
    15  15 P    5.271 --    16 S    1.547    17 O    1.330    19 O    1.266
                            14 S    0.962
    16  16 S    1.875 --    15 P    1.547    14 S    0.137
    17   8 O    2.422 --    15 P    1.330    18 C    0.913
    18   6 C    3.908 --    35 H    0.981    33 H    0.978    34 H    0.978
                            17 O    0.913
    19   8 O    2.378 --    15 P    1.266    20 C    0.935
    20   6 C    3.914 --    36 H    0.980    37 H    0.979    38 H    0.977
                            19 O    0.935
    21   1 H    0.996 --     1 C    0.985
    22   1 H    0.996 --     1 C    0.982
    23   1 H    0.997 --     1 C    0.986
    24   1 H    0.996 --     2 C    0.969
    25   1 H    0.996 --     2 C    0.972
    26   1 H    0.992 --     6 C    0.963
    27   1 H    0.993 --     6 C    0.949
    28   1 H    0.996 --    12 C    0.969
    29   1 H    0.995 --    12 C    0.966
    30   1 H    0.996 --    13 C    0.985
    31   1 H    0.995 --    13 C    0.982
    32   1 H    0.996 --    13 C    0.984
    33   1 H    0.994 --    18 C    0.978
    34   1 H    0.993 --    18 C    0.978
    35   1 H    0.995 --    18 C    0.981
    36   1 H    0.996 --    20 C    0.980
    37   1 H    0.994 --    20 C    0.979
    38   1 H    0.995 --    20 C    0.977
 ---------------------------------------------------------------------------

Topologies differ in total number of bonds
Writing topology from bond orders to xtbtopo.mol

molecular dipole:
                 x           y           z       tot (Debye)
 q only:        0.570      -0.867      -0.369
   full:        0.308      -0.597      -0.433       2.031
molecular quadrupole (traceless):
                xx          xy          yy          xz          yz          zz
 q only:       20.570       1.245       2.025      14.881       2.822     -22.595
  q+dip:       19.861       1.667       3.685      10.666       2.144     -23.545
   full:       20.518       1.545       3.624      11.028       2.563     -24.143


           -------------------------------------------------
          | TOTAL ENERGY              -64.653700413401 Eh   |
          | GRADIENT NORM               0.041908971783 Eh/α |
          | HOMO-LUMO GAP               2.964039801323 eV   |
           -------------------------------------------------

------------------------------------------------------------------------
 * finished run on 2025/04/09 at 07:31:33.963     
------------------------------------------------------------------------
 total:
 * wall-time:     0 d,  0 h,  0 min,  0.196 sec
 *  cpu-time:     0 d,  0 h,  0 min,  0.114 sec
 * ratio c/w:     0.583 speedup
 SCF:
 * wall-time:     0 d,  0 h,  0 min,  0.130 sec
 *  cpu-time:     0 d,  0 h,  0 min,  0.091 sec
 * ratio c/w:     0.701 speedup

