
                                 *****************
                                 * O   R   C   A *
                                 *****************

                                            #,                                       
                                            ###                                      
                                            ####                                     
                                            #####                                    
                                            ######                                   
                                           ########,                                 
                                     ,,################,,,,,                         
                               ,,#################################,,                 
                          ,,##########################################,,             
                       ,#########################################, ''#####,          
                    ,#############################################,,   '####,        
                  ,##################################################,,,,####,       
                ,###########''''           ''''###############################       
              ,#####''   ,,,,##########,,,,          '''####'''          '####       
            ,##' ,,,,###########################,,,                        '##       
           ' ,,###''''                  '''############,,,                           
         ,,##''                                '''############,,,,        ,,,,,,###''
      ,#''                                            '''#######################'''  
     '                                                          ''''####''''         
             ,#######,   #######,   ,#######,      ##                                
            ,#'     '#,  ##    ##  ,#'     '#,    #''#        ,####,   ,####,        
            ##       ##  ##   ,#'  ##            #'  '#       #'       #'  '#        
            ##       ##  #######   ##           ,######,      #####,   #    #        
            '#,     ,#'  ##    ##  '#,     ,#' ,#      #,     #,   #   #,  ,#        
             '#######'   ##     ##  '#######'  #'      '#     '####' # '####'        



                #########################################################
                #                        -***-                          #
                #          Department of theory and spectroscopy        #
                #                                                       #
                #                      Frank Neese                      #
                #                                                       #
                #     Directorship, Architecture, Infrastructure        #
                #                    SHARK, DRIVERS                     #
                #        Core code/Algorithms in most modules           #
                #                                                       #
                #        Max Planck Institute fuer Kohlenforschung      #
                #                Kaiser Wilhelm Platz 1                 #
                #                 D-45470 Muelheim/Ruhr                 #
                #                      Germany                          #
                #                                                       #
                #                  All rights reserved                  #
                #                        -***-                          #
                #########################################################


                         Program Version 6.0.0  -   RELEASE  -


 With contributions from (in alphabetic order):
   Daniel Aravena         : Magnetic Suceptibility
   Michael Atanasov       : Ab Initio Ligand Field Theory (pilot matlab implementation)
   Alexander A. Auer      : GIAO ZORA, VPT2 properties, NMR spectrum
   Ute Becker             : All parallelization in ORCA, NUMFREQ, NUMCALC
   Giovanni Bistoni       : ED, misc. LED, open-shell LED, HFLD
   Martin Brehm           : Molecular dynamics
   Dmytro Bykov           : pre 5.0 version of the SCF Hessian
   Marcos Casanova-Páez   : Triplet and SCS-CIS(D). UHF-(DLPNO)-IP/EA/STEOM-CCSD. UHF-CVS-IP/STEOM-CCSD
   Vijay G. Chilkuri      : MRCI spin determinant printing, contributions to CSF-ICE
   Pauline Colinet        : FMM embedding
   Dipayan Datta          : RHF DLPNO-CCSD density
   Achintya Kumar Dutta   : EOM-CC, STEOM-CC
   Nicolas Foglia         : Exact transition moments, OPA infrastructure, MCD improvements
   Dmitry Ganyushin       : Spin-Orbit,Spin-Spin,Magnetic field MRCI
   Miquel Garcia          : C-PCM and meta-GGA Hessian, CCSD/C-PCM, Gaussian charge scheme
   Tiago L. C. Gouveia    : GS-ROHF, GS-ROCIS
   Yang Guo               : DLPNO-NEVPT2, F12-NEVPT2, CIM, IAO-localization
   Andreas Hansen         : Spin unrestricted coupled pair/coupled cluster methods
   Ingolf Harden          : AUTO-CI MPn and infrastructure 
   Benjamin Helmich-Paris : MC-RPA, TRAH-(SCF,CASSCF), AVAS, COSX integrals, SCF dyn. polar.
   Lee Huntington         : MR-EOM, pCC
   Robert Izsak           : Overlap fitted RIJCOSX, COSX-SCS-MP3, EOM
   Riya Kayal             : Wick's Theorem for AUTO-CI, AUTO-CI UHF-CCSDT
   Emily Kempfer          : AUTO-CI, RHF CISDT and CCSDT
   Christian Kollmar      : KDIIS, OOCD, Brueckner-CCSD(T), CCSD density, CASPT2, CASPT2-K, improved NEVPT2
   Axel Koslowski         : Symmetry handling
   Simone Kossmann        : Meta GGA functionals, TD-DFT gradient, OOMP2, (MP2 Hessian; deprecated post 5.0)
   Lucas Lang             : DCDCAS
   Marvin Lechner         : AUTO-CI (C++ implementation), FIC-MRCC
   Spencer Leger          : CASSCF response
   Dagmar Lenk            : GEPOL surface, SMD, ORCA-2-JSON
   Dimitrios Liakos       : Extrapolation schemes; Compound Job, initial MDCI parallelization
   Dimitrios Manganas     : Further ROCIS development; embedding schemes. LFT, Crystal Embedding
   Dimitrios Pantazis     : SARC Basis sets
   Anastasios Papadopoulos: AUTO-CI, single reference methods and gradients
   Taras Petrenko         : pre 6.0 DFT Hessian and TD-DFT gradient, (ASA, deprecated), ECA, 1-Electron XAS/XES, NRVS
   Peter Pinski           : DLPNO-MP2, DLPNO-MP2 Gradient
   Christoph Reimann      : Effective Core Potentials
   Marius Retegan         : Local ZFS, SOC
   Christoph Riplinger    : Optimizer, TS searches, QM/MM, DLPNO-CCSD(T), (RO)-DLPNO pert. Triples
   Michael Roemelt        : Original ROCIS implementation
   Masaaki Saitow         : Open-shell DLPNO-CCSD energy and density
   Barbara Sandhoefer     : DKH picture change effects
   Kantharuban Sivalingam : CASSCF convergence/infrastructure, NEVPT2 and variants, FIC-MRCI
   Bernardo de Souza      : ESD, SOC TD-DFT
   Georgi Stoychev        : AutoAux, RI-MP2 NMR, DLPNO-MP2 response, X2C
   Van Anh Tran           : RI-MP2 g-tensors
   Willem Van den Heuvel  : Paramagnetic NMR
   Zikuan Wang            : NOTCH, Electric field optimization 
   Frank Wennmohs         : Technical directorship and infrastructure
   Hang Xu                : AUTO-CI-Response properties 


 We gratefully acknowledge several colleagues who have allowed us to
 interface, adapt or use parts of their codes:
   Stefan Grimme, W. Hujo, H. Kruse, P. Pracht,  : VdW corrections, initial TS optimization,
                  C. Bannwarth, S. Ehlert,         DFT functionals, gCP, sTDA/sTD-DF
                  L. Wittmann, M. Mueller
   Ed Valeev, F. Pavosevic, A. Kumar             : LibInt (2-el integral package), F12 methods
   Garnet Chan, S. Sharma, J. Yang, R. Olivares  : DMRG
   Ulf Ekstrom                                   : XCFun DFT Library
   Mihaly Kallay                                 : mrcc  (arbitrary order and MRCC methods)
   Frank Weinhold                                : gennbo (NPA and NBO analysis)
   Simon Mueller                                 : openCOSMO-RS
   Christopher J. Cramer and Donald G. Truhlar   : smd solvation model
   Lars Goerigk                                  : TD-DFT with DH, B97 family of functionals
   V. Asgeirsson, H. Jonsson                     : NEB implementation
   FAccTs GmbH                                   : IRC, NEB, NEB-TS, DLPNO-Multilevel, CI-OPT
                                                   MM, QMMM, 2- and 3-layer-ONIOM, Crystal-QMMM,
                                                   LR-CPCM, SF, NACMEs, symmetry and pop. for TD-DFT,
                                                   nearIR, NL-DFT gradient (VV10), updates on ESD,
                                                   ML-optimized integration grids, MBIS, APM,
                                                   GOAT, DOCKER, SOLVATOR, interface openCOSMO-RS
   S Lehtola, MJT Oliveira, MAL Marques          : LibXC Library
   Liviu Ungur et al                             : ANISO software


 Your calculation uses the libint2 library for the computation of 2-el integrals
 For citations please refer to: http://libint.valeyev.net

 Your ORCA version has been built with support for libXC version: 6.2.2
 For citations please refer to: https://libxc.gitlab.io

 This ORCA versions uses:
   CBLAS   interface :  Fast vector & matrix operations
   LAPACKE interface :  Fast linear algebra routines
   SCALAPACK package :  Parallel linear algebra routines
   Shared memory     :  Shared parallel matrices
   BLAS/LAPACK       :  OpenBLAS 0.3.27  USE64BITINT DYNAMIC_ARCH NO_AFFINITY SkylakeX SINGLE_THREADED
        Core in use  :  SkylakeX
   Copyright (c) 2011-2014, The OpenBLAS Project


Your calculation utilizes the geometrical counterpoise correction gCP
Please cite in your paper:
H.Kruse, S. Grimme J.Chem.Phys., 136, (2012), 154101 
   

Your calculation utilizes the DFT-NL dispersion correction.
Cite in your paper:
Vydrov, O. A.; Van Voorhis, T. J. Chem. Phys. 2010, 133, 244103
Hujo, W.; Grimme, S. J. Chem. Theory Comput. 2011, 7, 3866 
   

================================================================================

----- Orbital basis set information -----
Your calculation utilizes the basis: def2-TZVP
   F. Weigend and R. Ahlrichs, Phys. Chem. Chem. Phys. 7, 3297 (2005).

----- AuxJ basis set information -----
Your calculation utilizes the auxiliary basis: def2/J
   F. Weigend, Phys. Chem. Chem. Phys. 8, 1057 (2006).

================================================================================
                                        WARNINGS
                       Please study these warnings very carefully!
================================================================================


================================================================================
                                       INPUT FILE
================================================================================
NAME = sp_gas.inp
|  1> ! wb97x-v def2-tzvp def2/J RIJCOSX DEFGRID2 scfconv7 GCP(DFT/TZ) printgap
|  2> %output
|  3>     printlevel normal
|  4> end
|  5> * xyz 0 1
|  6> C 1.1970620156041192 -1.2148826736470304 -1.6289757010446207e-05
|  7> C 1.866409020795892 -6.041877987601965e-06 -5.9299043152536844e-05
|  8> C 1.1970700207695057 1.2148749565305164 -4.2926226952779814e-05
|  9> C -0.1917379041751656 1.2005442060149627 2.05852205650041e-06
| 10> C -0.9104765588599872 2.9599812822849327e-06 1.4114538398276082e-05
| 11> C -0.19174578635487372 -1.2005427198493526 1.2761637078048739e-05
| 12> Cl -1.031566761591196 -2.7253485639712838 5.017615285232295e-05
| 13> Cl -2.6411492274734347 7.003455808599577e-06 5.106237424040598e-05
| 14> Cl -1.0315475568321724 2.7253563983532403 -1.281297139506597e-05
| 15> Cl 3.6161711450917706 -1.1763925153235707e-05 -8.733974286883154e-05
| 16> H 1.734559955850126 -2.154707709011709 -1.2935245076361464e-05
| 17> H 1.7345741154010097 2.1546963471765093 -7.524543650236647e-05
| 18> *
| 19> 
| 20>                          ****END OF INPUT****
================================================================================

                       ****************************
                       * Single Point Calculation *
                       ****************************

---------------------------------
CARTESIAN COORDINATES (ANGSTROEM)
---------------------------------
  C      1.197062   -1.214883   -0.000016
  C      1.866409   -0.000006   -0.000059
  C      1.197070    1.214875   -0.000043
  C     -0.191738    1.200544    0.000002
  C     -0.910477    0.000003    0.000014
  C     -0.191746   -1.200543    0.000013
  Cl    -1.031567   -2.725349    0.000050
  Cl    -2.641149    0.000007    0.000051
  Cl    -1.031548    2.725356   -0.000013
  Cl     3.616171   -0.000012   -0.000087
  H      1.734560   -2.154708   -0.000013
  H      1.734574    2.154696   -0.000075

----------------------------
CARTESIAN COORDINATES (A.U.)
----------------------------
  NO LB      ZA    FRAG     MASS         X           Y           Z
   0 C     6.0000    0    12.011    2.262119   -2.295796   -0.000031
   1 C     6.0000    0    12.011    3.527002   -0.000011   -0.000112
   2 C     6.0000    0    12.011    2.262135    2.295781   -0.000081
   3 C     6.0000    0    12.011   -0.362332    2.268700    0.000004
   4 C     6.0000    0    12.011   -1.720551    0.000006    0.000027
   5 C     6.0000    0    12.011   -0.362347   -2.268697    0.000024
   6 Cl   17.0000    0    35.453   -1.949379   -5.150162    0.000095
   7 Cl   17.0000    0    35.453   -4.991049    0.000013    0.000096
   8 Cl   17.0000    0    35.453   -1.949342    5.150177   -0.000024
   9 Cl   17.0000    0    35.453    6.833573   -0.000022   -0.000165
  10 H     1.0000    0     1.008    3.277843   -4.071807   -0.000024
  11 H     1.0000    0     1.008    3.277870    4.071786   -0.000142

--------------------------------
INTERNAL COORDINATES (ANGSTROEM)
--------------------------------
 C      0   0   0     0.000000000000     0.00000000     0.00000000
 C      1   0   0     1.387065479935     0.00000000     0.00000000
 C      2   1   0     1.387065440965   122.29446736     0.00000000
 C      3   2   1     1.388881861363   118.26137859     0.00000000
 C      4   3   2     1.399244273639   121.49926448     0.00000000
 C      1   2   3     1.388881832951   118.26137557     0.00000000
 Cl     6   1   2     1.740784918970   118.25318080   179.99938119
 Cl     5   4   3     1.730672669013   120.90793125   180.00074386
 Cl     4   3   2     1.740785016830   118.25313321   180.00132318
 Cl     2   1   3     1.749762124530   118.85276727   179.99814655
 H      1   2   3     1.082670371294   121.38125478   180.00104725
 H      3   2   1     1.082670263333   121.38125293   179.99988678

---------------------------
INTERNAL COORDINATES (A.U.)
---------------------------
 C      0   0   0     0.000000000000     0.00000000     0.00000000
 C      1   0   0     2.621173886893     0.00000000     0.00000000
 C      2   1   0     2.621173813250   122.29446736     0.00000000
 C      3   2   1     2.624606350347   118.26137859     0.00000000
 C      4   3   2     2.644188471635   121.49926448     0.00000000
 C      1   2   3     2.624606296656   118.26137557     0.00000000
 Cl     6   1   2     3.289606754915   118.25318080   179.99938119
 Cl     5   4   3     3.270497371896   120.90793125   180.00074386
 Cl     4   3   2     3.289606939843   118.25313321   180.00132318
 Cl     2   1   3     3.306571214870   118.85276727   179.99814655
 H      1   2   3     2.045950495057   121.38125478   180.00104725
 H      3   2   1     2.045950291040   121.38125293   179.99988678

---------------------
BASIS SET INFORMATION
---------------------
There are 3 groups of distinct atoms

 Group   1 Type C   : 11s6p2d1f contracted to 5s3p2d1f pattern {62111/411/11/1}
 Group   2 Type Cl  : 14s9p3d1f contracted to 5s5p2d1f pattern {73211/51111/21/1}
 Group   3 Type H   : 5s1p contracted to 3s1p pattern {311/1}

Atom   0C    basis set group =>   1
Atom   1C    basis set group =>   1
Atom   2C    basis set group =>   1
Atom   3C    basis set group =>   1
Atom   4C    basis set group =>   1
Atom   5C    basis set group =>   1
Atom   6Cl   basis set group =>   2
Atom   7Cl   basis set group =>   2
Atom   8Cl   basis set group =>   2
Atom   9Cl   basis set group =>   2
Atom  10H    basis set group =>   3
Atom  11H    basis set group =>   3
---------------------------------
AUXILIARY/J BASIS SET INFORMATION
---------------------------------
There are 3 groups of distinct atoms

 Group   1 Type C   : 12s5p4d2f1g contracted to 6s4p3d1f1g pattern {711111/2111/211/2/1}
 Group   2 Type Cl  : 14s5p5d2f1g contracted to 8s4p3d1f1g pattern {71111111/2111/311/2/1}
 Group   3 Type H   : 5s2p1d contracted to 3s1p1d pattern {311/2/1}

Atom   0C    basis set group =>   1
Atom   1C    basis set group =>   1
Atom   2C    basis set group =>   1
Atom   3C    basis set group =>   1
Atom   4C    basis set group =>   1
Atom   5C    basis set group =>   1
Atom   6Cl   basis set group =>   2
Atom   7Cl   basis set group =>   2
Atom   8Cl   basis set group =>   2
Atom   9Cl   basis set group =>   2
Atom  10H    basis set group =>   3
Atom  11H    basis set group =>   3

Checking for AutoStart:
The File: sp_gas.gbw exists
Trying to determine its content:
     ... Fine, the file contains calculation information
     ... Fine, the calculation information was read
     ... Fine, the file contains a basis set
     ... Fine, the basis set was read
     ... Fine, the file contains a geometry
     ... Fine, the geometry was read
     ... Fine, the file contains a set of orbitals
     ... Fine, the orbitals can be read
     => possible old guess file was deleted
     => GBW file was renamed to GES file
     => GES file is set as startup file
     => Guess is set to MORead
     ... now leaving AutoStart

------------------------------------------------------------------------------
                             ORCA STARTUP CALCULATIONS
                           -- RI-GTO INTEGRALS CHOSEN --
------------------------------------------------------------------------------
------------------------------------------------------------------------------
                   ___                                                        
                  /   \      - P O W E R E D   B Y -                         
                 /     \                                                     
                 |  |  |   _    _      __       _____    __    __             
                 |  |  |  | |  | |    /  \     |  _  \  |  |  /  |          
                  \  \/   | |  | |   /    \    | | | |  |  | /  /          
                 / \  \   | |__| |  /  /\  \   | |_| |  |  |/  /          
                |  |  |   |  __  | /  /__\  \  |    /   |      \           
                |  |  |   | |  | | |   __   |  |    \   |  |\   \          
                \     /   | |  | | |  |  |  |  | |\  \  |  | \   \       
                 \___/    |_|  |_| |__|  |__|  |_| \__\ |__|  \__/        
                                                                              
                      - O R C A' S   B I G   F R I E N D -                    
                                      &                                       
                       - I N T E G R A L  F E E D E R -                       
                                                                              
 v1 FN, 2020, v2 2021, v3 2022-2024                                           
------------------------------------------------------------------------------


----------------------
SHARK INTEGRAL PACKAGE
----------------------

Number of atoms                             ...     12
Number of basis functions                   ...    346
Number of shells                            ...    126
Maximum angular momentum                    ...      3
Integral batch strategy                     ... SHARK/LIBINT Hybrid
RI-J (if used) integral strategy            ... SPLIT-RIJ (Revised 2003 algorithm where possible)
Printlevel                                  ...      1
Contraction scheme used                     ... SEGMENTED contraction
Prescreening option                         ... SCHWARTZ
   Thresh                                   ... 3.000e-11
   Tcut                                     ... 1.000e-12
   Tpresel                                  ... 1.000e-12 
Coulomb Range Separation                    ... NOT USED
Exchange Range Separation                   ... Long Range
   Mu parameter                             ... 3.000e-01
   Scaling (regular/separated)              ... 1.670e-01 8.330e-01
Multipole approximations                    ... NOT USED
Finite Nucleus Model                        ... NOT USED
CABS basis                                  ... NOT available
Auxiliary Coulomb fitting basis             ... AVAILABLE
   # of basis functions in Aux-J            ...    520
   # of shells in Aux-J                     ...    168
   Maximum angular momentum in Aux-J        ...      4
Auxiliary J/K fitting basis                 ... NOT available
Auxiliary Correlation fitting basis         ... NOT available
Auxiliary 'external' fitting basis          ... NOT available

Checking pre-screening integrals            ... done (  0.0 sec) Dimension = 126
Check shell pair data                       ... done (  0.0 sec)
Shell pair information
Shell pair cut-off parameter TPreSel        ...   1.0e-12
Total number of shell pairs                 ...      8001
Shell pairs after pre-screening             ...      6849
Total number of primitive shell pairs       ...     29202
Primitive shell pairs kept                  ...     17205
          la=0 lb=0:   1257 shell pairs
          la=1 lb=0:   1880 shell pairs
          la=1 lb=1:    714 shell pairs
          la=2 lb=0:    996 shell pairs
          la=2 lb=1:    727 shell pairs
          la=2 lb=2:    200 shell pairs
          la=3 lb=0:    482 shell pairs
          la=3 lb=1:    348 shell pairs
          la=3 lb=2:    192 shell pairs
          la=3 lb=3:     53 shell pairs

Calculating one electron integrals          ... done (  0.0 sec)
Calculating RI/J V-Matrix + Cholesky decomp.... done (  0.1 sec)
Calculating Nuclear repulsion               ... done (  0.0 sec) ENN=    831.591995825298 Eh

Diagonalization of the overlap matrix:
Smallest eigenvalue                        ... 9.599e-06
Time for diagonalization                   ...    0.013 sec
Threshold for overlap eigenvalues          ... 1.000e-07
Number of eigenvalues below threshold      ... 0
Time for construction of square roots      ...    0.024 sec
Total time needed                          ...    0.046 sec

-------------------
DFT GRID GENERATION
-------------------

General Integration Accuracy     IntAcc      ... 4.388
Radial Grid Type                 RadialGrid  ... OptM3 with GC (2021)
Angular Grid (max. ang.)         AngularGrid ... 4 (Lebedev-302)
Angular grid pruning method      GridPruning ... 4 (adaptive)
Weight generation scheme         WeightScheme... mBecke (2022)
Basis function cutoff            BFCut       ... 1.0000e-11
Integration weight cutoff        WCut        ... 1.0000e-14
Partially contracted basis set               ... off
Rotationally invariant grid construction     ... off
Angular grids for H and He will be reduced by one unit

Total number of grid points                  ...    71716
Total number of batches                      ...     1127
Average number of points per batch           ...       63
Average number of grid points per atom       ...     5976

--------------------
COSX GRID GENERATION
--------------------

GRIDX 1
-------
General Integration Accuracy     IntAcc      ... 3.816
Radial Grid Type                 RadialGrid  ... OptM3 with GC (2021)
Angular Grid (max. ang.)         AngularGrid ... 1 (Lebedev-50)
Angular grid pruning method      GridPruning ... 4 (adaptive)
Weight generation scheme         WeightScheme... mBecke (2022)
Basis function cutoff            BFCut       ... 1.0000e-11
Integration weight cutoff        WCut        ... 1.0000e-14
Partially contracted basis set               ... on
Rotationally invariant grid construction     ... off
Angular grids for H and He will be reduced by one unit

Total number of grid points                  ...    13210
Total number of batches                      ...      109
Average number of points per batch           ...      121
Average number of grid points per atom       ...     1101
UseSFitting                                  ... on

GRIDX 2
-------
General Integration Accuracy     IntAcc      ... 4.020
Radial Grid Type                 RadialGrid  ... OptM3 with GC (2021)
Angular Grid (max. ang.)         AngularGrid ... 2 (Lebedev-110)
Angular grid pruning method      GridPruning ... 4 (adaptive)
Weight generation scheme         WeightScheme... mBecke (2022)
Basis function cutoff            BFCut       ... 1.0000e-11
Integration weight cutoff        WCut        ... 1.0000e-14
Partially contracted basis set               ... on
Rotationally invariant grid construction     ... off
Angular grids for H and He will be reduced by one unit

Total number of grid points                  ...    20118
Total number of batches                      ...      164
Average number of points per batch           ...      122
Average number of grid points per atom       ...     1676
UseSFitting                                  ... on

GRIDX 3
-------
General Integration Accuracy     IntAcc      ... 4.338
Radial Grid Type                 RadialGrid  ... OptM3 with GC (2021)
Angular Grid (max. ang.)         AngularGrid ... 3 (Lebedev-194)
Angular grid pruning method      GridPruning ... 4 (adaptive)
Weight generation scheme         WeightScheme... mBecke (2022)
Basis function cutoff            BFCut       ... 1.0000e-11
Integration weight cutoff        WCut        ... 1.0000e-14
Partially contracted basis set               ... on
Rotationally invariant grid construction     ... off
Angular grids for H and He will be reduced by one unit

Total number of grid points                  ...    46864
Total number of batches                      ...      373
Average number of points per batch           ...      125
Average number of grid points per atom       ...     3905
UseSFitting                                  ... on
Initializing property integral containers    ... done (  0.0 sec)

SHARK setup successfully completed in   2.4 seconds

Maximum memory used throughout the entire STARTUP-calculation: 49.0 MB
-------------------------------------------------------------------------------
                                 ORCA GUESS
                   Start orbitals & Density for SCF / CASSCF
-------------------------------------------------------------------------------

------------
SCF SETTINGS
------------
Hamiltonian:
 Density Functional     Method          .... DFT(GTOs)
 Exchange Functional    Exchange        .... WB97X-V
 Correlation Functional Correlation     .... WB97X-V
 Gradients option       PostSCFGGA      .... off
 Hybrid DFT is turned on
   Fraction HF Exchange ScalHFX         ....  0.167000
   Scaling of DF-GGA-X  ScalDFX         ....  0.000000
   Scaling of DF-GGA-C  ScalDFC         ....  1.000000
   Scaling of DF-LDA-C  ScalLDAC        ....  1.000000
   Perturbative correction              ....  0.000000
 Long-range corrected/Screened/Range-Separated Hybrid DFT is turned on
   Amount of maximum screened exact exchange              ....  0.833000
   Range separation parameter mu (erf(mu*r12)/r12)        ....  0.300000
   NL short-range parameter             ....  6.000000
   NL long-range parameter              ....  0.010000
 RI-approximation to the Coulomb term is turned on
   Number of AuxJ basis functions       .... 520
   RIJ-COSX (HFX calculated with COS-X)).... on


General Settings:
 Integral files         IntName         .... sp_gas
 Hartree-Fock type      HFTyp           .... RHF
 Total Charge           Charge          ....    0
 Multiplicity           Mult            ....    1
 Number of Electrons    NEL             ....  106
 Basis Dimension        Dim             ....  346
 Nuclear Repulsion      ENuc            ....    831.5919958253 Eh

Convergence Acceleration:
 AO-DIIS                CNVDIIS         .... on
   Start iteration      DIISMaxIt       ....    12
   Startup error        DIISStart       ....  0.200000
   # of expansion vecs  DIISMaxEq       ....     5
   Bias factor          DIISBfac        ....   1.050
   Max. coefficient     DIISMaxC        ....  10.000
 MO-DIIS                CNVKDIIS        .... off
 Trust-Rad. Augm. Hess. CNVTRAH         .... auto
   Auto Start mean grad. ratio tolernc. ....  1.125000
   Auto Start start iteration           ....     1
   Auto Start num. interpolation iter.  ....    10
   Max. Number of Micro iterations      ....    24
   Max. Number of Macro iterations      .... Maxiter - #DIIS iter
   Number of Davidson start vectors     ....     2
   Converg. threshold    (grad. norm)   ....   1.000e-04
   Grad. Scal. Fac. for Micro threshold ....   0.100
   Minimum threshold for Micro iter.    ....   1.000e-02
   NR start threshold (gradient norm)   ....   1.000e-04
   Initial trust radius                 ....   0.400
   Minimum AH scaling param. (alpha)    ....   1.000
   Maximum AH scaling param. (alpha)    .... 1000.000
   Quad. conv. algorithm                .... NR
   White noise on init. David. guess    .... on
   Maximum white noise                  ....   0.010
   Pseudo random numbers                .... off
   Inactive MOs                         .... canonical
   Orbital update algorithm             .... Taylor
   Preconditioner                       .... Diag
   Full preconditioner red. dimension   ....   250
 SOSCF                  CNVSOSCF        .... on
   Start iteration      SOSCFMaxIt      ....   150
   Startup grad/error   SOSCFStart      ....  0.003300
   Hessian update       SOSCFHessUp     .... L-BFGS
 Level Shifting         CNVShift        .... on
   Level shift para.    LevelShift      ....    0.2500
   Turn off err/grad.   ShiftErr        ....    0.0010
 Zerner damping         CNVZerner       .... off
 Static damping         CNVDamp         .... on
   Fraction old density DampFac         ....    0.7000
   Max. Damping (<1)    DampMax         ....    0.9800
   Min. Damping (>=0)   DampMin         ....    0.0000
   Turn off err/grad.   DampErr         ....    0.1000

SCF Procedure:
 Maximum # iterations   MaxIter         ....   125
 SCF integral mode      SCFMode         .... Direct
   Integral package                     .... SHARK and LIBINT hybrid scheme
 Reset frequency        DirectResetFreq ....    20
 Integral Threshold     Thresh          ....  3.000e-11 Eh
 Primitive CutOff       TCut            ....  1.000e-12 Eh

Convergence Tolerance:
 Convergence Check Mode ConvCheckMode   .... Total+1el-Energy
 Convergence forced     ConvForced      .... 0
 Energy Change          TolE            ....  1.000e-07 Eh
 1-El. energy change                    ....  1.000e-04 Eh
 Orbital Gradient       TolG            ....  1.000e-04
 Orbital Rotation angle TolX            ....  1.000e-04
 DIIS Error             TolErr          ....  1.000e-07

---------------------
INITIAL GUESS: MOREAD
---------------------
Guess MOs are being read from file: sp_gas.ges
Input Geometry matches current geometry (good)
Atom 0: N(Shells)= 11 and 9 - projection required
Input basis set needs projection
NBasis(read)= 232
NBasis(calc)= 346
Basis set overlap was calculated
Using GuessMode=FMatrix for the initial guess
C*T matrix was formed
Effective Fockian was calculated
Effective Fockian was diagonalized
Initial density was built
                      ------------------
                      INITIAL GUESS DONE (   0.1 sec)
                      ------------------
             **** ENERGY FILE WAS UPDATED (sp_gas.en.tmp) ****
Finished Guess after   1.0 sec
Maximum memory used throughout the entire GUESS-calculation: 34.6 MB

-------------------------------------------------------------------------------------------
                                      ORCA LEAN-SCF
                              memory conserving SCF solver
-------------------------------------------------------------------------------------------

----------------------------------------D-I-I-S--------------------------------------------
Iteration    Energy (Eh)           Delta-E    RMSDP     MaxDP     DIISErr   Damp  Time(sec)
-------------------------------------------------------------------------------------------
               ***  Starting incremental Fock matrix formation  ***
    1    -2070.8215291449364486     0.00e+00  2.33e-03  8.47e-02  5.84e-02  0.700  22.6
    2    -2070.8313093661986386    -9.78e-03  1.94e-03  7.55e-02  4.32e-02  0.700  14.0
                               ***Turning on AO-DIIS***
    3    -2070.8386005125462361    -7.29e-03  1.58e-03  6.34e-02  3.12e-02  0.700  14.7
    4    -2070.8439328509080042    -5.33e-03  3.95e-03  1.59e-01  2.21e-02  0.000  14.1
                              *** Initializing SOSCF ***
---------------------------------------S-O-S-C-F--------------------------------------
Iteration    Energy (Eh)           Delta-E    RMSDP     MaxDP     MaxGrad    Time(sec)
--------------------------------------------------------------------------------------
    5    -2070.8574280751690821    -1.35e-02  2.24e-04  1.11e-02  1.60e-03    15.3
               *** Restarting incremental Fock matrix formation ***
    6    -2070.8574940769508430    -6.60e-05  9.68e-05  4.53e-03  1.04e-03    22.7
    7    -2070.8575113436631909    -1.73e-05  6.27e-05  2.99e-03  2.86e-04    18.0
    8    -2070.8575135382893677    -2.19e-06  1.70e-05  7.92e-04  2.10e-04    18.3
    9    -2070.8575144594256017    -9.21e-07  2.40e-06  9.37e-05  3.03e-05    15.8
   10    -2070.8575144822480070    -2.28e-08  8.58e-07  3.39e-05  9.49e-06    14.7
                 **** Energy Check signals convergence ****

               *****************************************************
               *                     SUCCESS                       *
               *           SCF CONVERGED AFTER  10 CYCLES          *
               *****************************************************


------------------
NL GRID GENERATION
------------------

General Integration Accuracy     IntAcc      ... 4.004
Radial Grid Type                 RadialGrid  ... OptM3 with GC (2021)
Angular Grid (max. ang.)         AngularGrid ... 2 (Lebedev-110)
Angular grid pruning method      GridPruning ... 4 (adaptive)
Weight generation scheme         WeightScheme... mBecke (2022)
Basis function cutoff            BFCut       ... 1.0000e-10
Integration weight cutoff        WCut        ... 1.0000e-14
Partially contracted basis set               ... off
Rotationally invariant grid construction     ... off
Angular grids for H and He will be reduced by one unit

Total number of grid points                  ...    23544
Total number of batches                      ...      374
Average number of points per batch           ...       62
Average number of grid points per atom       ...     1962
Final grid set up in    0.2 sec

-------------------------------------------------------------------------------
                    post-SCF DFT-NL dispersion correction                      
-------------------------------------------------------------------------------

SCF Energy:    -2070.857514482 
NL    Energy:      0.417841605 
SC+NL Energy:  -2070.439672878 
NL done in  :              2.5 sec
-------------------------------------------------------------------------------
Recomputing exchange energy using gridx3       ... done (   41.490 sec)
Old exchange energy                            :    -37.773649534 Eh
New exchange energy                            :    -37.773662834 Eh
Exchange energy change after final integration :     -0.000013300 Eh
Total energy after final integration           :  -2070.439686177 Eh
             **** ENERGY FILE WAS UPDATED (sp_gas.en.tmp) ****

----------------
TOTAL SCF ENERGY
----------------

Total Energy       :      -2070.43968617722521 Eh          -56339.52811 eV

Components:
Nuclear Repulsion  :        831.59199582529800 Eh           22628.76863 eV
Electronic Energy  :      -2902.44951030754601 Eh          -78979.66642 eV
One Electron Energy:      -4506.44079693130061 Eh         -122626.48829 eV
Two Electron Energy:       1603.99128662375460 Eh           43646.82187 eV

Virial components:
Potential Energy   :      -4137.22618675901140 Eh         -112579.64798 eV
Kinetic Energy     :       2066.78650058178664 Eh           56240.11987 eV
Virial Ratio       :          2.00176756795848

DFT components:
N(Alpha)           :       53.000010794178 electrons
N(Beta)            :       53.000010794178 electrons
N(Total)           :      106.000021588356 electrons
E(X)               :     -103.488156574049 Eh       
E(C)               :       -5.199531642232 Eh       
NL Energy, E(C,NL) :        0.417841604636 Eh       
E(XC)              :     -108.269846611645 Eh       

---------------
SCF CONVERGENCE
---------------

  Last Energy change         ...    2.2822e-08  Tolerance :   1.0000e-07
  Last MAX-Density change    ...    3.3928e-05  Tolerance :   1.0000e-05
  Last RMS-Density change    ...    8.5846e-07  Tolerance :   1.0000e-06
  Last DIIS Error            ...    1.6035e-03  Tolerance :   1.0000e-07
  Last Orbital Gradient      ...    9.4938e-06  Tolerance :   1.0000e-04
  Last Orbital Rotation      ...    1.1949e-05  Tolerance :   1.0000e-04


----------------
ORBITAL ENERGIES
----------------

  NO   OCC          E(Eh)            E(eV) 
   0   2.0000    -107.167097     -2916.1650 
   1   2.0000    -107.167011     -2916.1626 
   2   2.0000    -107.166995     -2916.1622 
   3   2.0000    -107.165278     -2916.1155 
   4   2.0000     -12.154703      -330.7463 
   5   2.0000     -12.154262      -330.7343 
   6   2.0000     -12.151159      -330.6498 
   7   2.0000     -12.148464      -330.5765 
   8   2.0000     -12.096999      -329.1761 
   9   2.0000     -12.096629      -329.1660 
  10   2.0000     -11.320093      -308.0354 
  11   2.0000     -11.320068      -308.0347 
  12   2.0000     -11.320029      -308.0336 
  13   2.0000     -11.318384      -307.9889 
  14   2.0000      -9.112128      -247.9536 
  15   2.0000      -9.111916      -247.9478 
  16   2.0000      -9.111133      -247.9265 
  17   2.0000      -9.109859      -247.8919 
  18   2.0000      -9.109489      -247.8818 
  19   2.0000      -9.108952      -247.8672 
  20   2.0000      -9.108848      -247.8644 
  21   2.0000      -9.108802      -247.8631 
  22   2.0000      -9.108744      -247.8615 
  23   2.0000      -9.108192      -247.8465 
  24   2.0000      -9.107231      -247.8203 
  25   2.0000      -9.107184      -247.8191 
  26   2.0000      -1.490834       -40.5676 
  27   2.0000      -1.451635       -39.5010 
  28   2.0000      -1.449675       -39.4477 
  29   2.0000      -1.429100       -38.8878 
  30   2.0000      -1.382835       -37.6289 
  31   2.0000      -1.309001       -35.6197 
  32   2.0000      -1.293783       -35.2056 
  33   2.0000      -1.157458       -31.4960 
  34   2.0000      -1.145597       -31.1733 
  35   2.0000      -1.035712       -28.1832 
  36   2.0000      -1.013844       -27.5881 
  37   2.0000      -0.980674       -26.6855 
  38   2.0000      -0.950669       -25.8690 
  39   2.0000      -0.948347       -25.8058 
  40   2.0000      -0.906643       -24.6710 
  41   2.0000      -0.890590       -24.2342 
  42   2.0000      -0.882569       -24.0159 
  43   2.0000      -0.841094       -22.8873 
  44   2.0000      -0.838009       -22.8034 
  45   2.0000      -0.822713       -22.3871 
  46   2.0000      -0.821165       -22.3450 
  47   2.0000      -0.817377       -22.2419 
  48   2.0000      -0.812894       -22.1200 
  49   2.0000      -0.806106       -21.9353 
  50   2.0000      -0.778835       -21.1932 
  51   2.0000      -0.688298       -18.7295 
  52   2.0000      -0.686285       -18.6748 
  53   0.0000      -0.339477        -9.2376 
  54   0.0000      -0.310947        -8.4613 
  55   0.0000      -0.300101        -8.1662 
  56   0.0000      -0.284620        -7.7449 
  57   0.0000      -0.260964        -7.1012 
  58   0.0000      -0.244254        -6.6465 
  59   0.0000      -0.139134        -3.7860 
  60   0.0000      -0.048518        -1.3202 
  61   0.0000      -0.032260        -0.8779 
  62   0.0000      -0.007651        -0.2082 
  63   0.0000       0.007358         0.2002 
*Only the first 10 virtual orbitals were printed.

                    ********************************
                    * MULLIKEN POPULATION ANALYSIS *
                    ********************************

-----------------------
MULLIKEN ATOMIC CHARGES
-----------------------
   0 C :   -0.242010
   1 C :    0.156018
   2 C :   -0.241963
   3 C :    0.095250
   4 C :    0.018020
   5 C :    0.095242
   6 Cl:   -0.047496
   7 Cl:   -0.023943
   8 Cl:   -0.047491
   9 Cl:   -0.072464
  10 H :    0.155424
  11 H :    0.155415
Sum of atomic charges:    0.0000000

--------------------------------
MULLIKEN REDUCED ORBITAL CHARGES
--------------------------------
  0 C s       :     3.228718  s :     3.228718
      pz      :     0.986521  p :     2.913131
      px      :     0.968971
      py      :     0.957639
      dz2     :     0.005922  d :     0.092410
      dxz     :     0.019027
      dyz     :     0.010573
      dx2y2   :     0.025975
      dxy     :     0.030914
      f0      :     0.001738  f :     0.007752
      f+1     :     0.000721
      f-1     :     0.000745
      f+2     :     0.000953
      f-2     :     0.000426
      f+3     :     0.001114
      f-3     :     0.002056

  1 C s       :     3.086820  s :     3.086820
      pz      :     0.967997  p :     2.580326
      px      :     0.785361
      py      :     0.826968
      dz2     :     0.007003  d :     0.165839
      dxz     :     0.030116
      dyz     :     0.028176
      dx2y2   :     0.051542
      dxy     :     0.049002
      f0      :     0.002131  f :     0.010998
      f+1     :     0.001072
      f-1     :     0.000672
      f+2     :     0.001010
      f-2     :     0.001152
      f+3     :     0.001440
      f-3     :     0.003520

  2 C s       :     3.228706  s :     3.228706
      pz      :     0.986522  p :     2.913146
      px      :     0.968969
      py      :     0.957655
      dz2     :     0.005915  d :     0.092359
      dxz     :     0.019026
      dyz     :     0.010573
      dx2y2   :     0.025970
      dxy     :     0.030876
      f0      :     0.001738  f :     0.007752
      f+1     :     0.000721
      f-1     :     0.000745
      f+2     :     0.000953
      f-2     :     0.000426
      f+3     :     0.001114
      f-3     :     0.002056

  3 C s       :     3.121357  s :     3.121357
      pz      :     0.977975  p :     2.594202
      px      :     0.846388
      py      :     0.769840
      dz2     :     0.008539  d :     0.178024
      dxz     :     0.028851
      dyz     :     0.031018
      dx2y2   :     0.051933
      dxy     :     0.057683
      f0      :     0.002161  f :     0.011167
      f+1     :     0.000804
      f-1     :     0.001015
      f+2     :     0.001159
      f-2     :     0.001064
      f+3     :     0.001491
      f-3     :     0.003473

  4 C s       :     3.137870  s :     3.137870
      pz      :     1.019175  p :     2.648042
      px      :     0.768745
      py      :     0.860121
      dz2     :     0.008493  d :     0.185027
      dxz     :     0.032750
      dyz     :     0.024058
      dx2y2   :     0.057959
      dxy     :     0.061766
      f0      :     0.002146  f :     0.011042
      f+1     :     0.001108
      f-1     :     0.000780
      f+2     :     0.000983
      f-2     :     0.001133
      f+3     :     0.001511
      f-3     :     0.003381

  5 C s       :     3.121416  s :     3.121416
      pz      :     0.977974  p :     2.594184
      px      :     0.846305
      py      :     0.769905
      dz2     :     0.008532  d :     0.177990
      dxz     :     0.028852
      dyz     :     0.031017
      dx2y2   :     0.051942
      dxy     :     0.057647
      f0      :     0.002161  f :     0.011168
      f+1     :     0.000804
      f-1     :     0.001015
      f+2     :     0.001159
      f-2     :     0.001064
      f+3     :     0.001492
      f-3     :     0.003473

  6 Cls       :     5.872042  s :     5.872042
      pz      :     3.920203  p :    11.108952
      px      :     3.797177
      py      :     3.391571
      dz2     :     0.008217  d :     0.060725
      dxz     :     0.004473
      dyz     :     0.012287
      dx2y2   :     0.014388
      dxy     :     0.021360
      f0      :     0.000560  f :     0.005777
      f+1     :     0.000322
      f-1     :     0.000897
      f+2     :     0.000252
      f-2     :     0.000636
      f+3     :     0.002011
      f-3     :     0.001100

  7 Cls       :     5.873717  s :     5.873717
      pz      :     3.915068  p :    11.080340
      px      :     3.215264
      py      :     3.950008
      dz2     :     0.008714  d :     0.063820
      dxz     :     0.017470
      dyz     :     0.000379
      dx2y2   :     0.027354
      dxy     :     0.009903
      f0      :     0.000583  f :     0.006065
      f+1     :     0.001175
      f-1     :     0.000089
      f+2     :     0.000942
      f-2     :     0.000022
      f+3     :     0.002096
      f-3     :     0.001158

  8 Cls       :     5.872037  s :     5.872037
      pz      :     3.920204  p :    11.108952
      px      :     3.797177
      py      :     3.391571
      dz2     :     0.008217  d :     0.060725
      dxz     :     0.004473
      dyz     :     0.012287
      dx2y2   :     0.014388
      dxy     :     0.021360
      f0      :     0.000560  f :     0.005777
      f+1     :     0.000322
      f-1     :     0.000897
      f+2     :     0.000252
      f-2     :     0.000636
      f+3     :     0.002011
      f-3     :     0.001100

  9 Cls       :     5.867072  s :     5.867072
      pz      :     3.928241  p :    11.141864
      px      :     3.242562
      py      :     3.971061
      dz2     :     0.007751  d :     0.058035
      dxz     :     0.016206
      dyz     :     0.000216
      dx2y2   :     0.024551
      dxy     :     0.009312
      f0      :     0.000549  f :     0.005493
      f+1     :     0.001096
      f-1     :     0.000077
      f+2     :     0.000800
      f-2     :     0.000025
      f+3     :     0.001922
      f-3     :     0.001024

 10 H s       :     0.821956  s :     0.821956
      pz      :     0.004460  p :     0.022621
      px      :     0.006127
      py      :     0.012033

 11 H s       :     0.821964  s :     0.821964
      pz      :     0.004460  p :     0.022621
      px      :     0.006128
      py      :     0.012033


------------------------
MULLIKEN OVERLAP CHARGES
------------------------
B(  0-C ,  1-C ) :   0.5353 B(  0-C ,  2-C ) :   0.2340 B(  0-C ,  3-C ) :  -0.3689 
B(  0-C ,  4-C ) :   0.2305 B(  0-C ,  5-C ) :   0.5191 B(  0-C ,  6-Cl) :  -0.0610 
B(  0-C ,  9-Cl) :  -0.0778 B(  0-C , 10-H ) :   0.8870 B(  1-C ,  2-C ) :   0.5353 
B(  1-C ,  3-C ) :   0.2419 B(  1-C ,  4-C ) :  -0.3361 B(  1-C ,  5-C ) :   0.2420 
B(  1-C ,  9-Cl) :   0.5814 B(  1-C , 10-H ) :  -0.1310 B(  1-C , 11-H ) :  -0.1310 
B(  2-C ,  3-C ) :   0.5194 B(  2-C ,  4-C ) :   0.2304 B(  2-C ,  5-C ) :  -0.3689 
B(  2-C ,  8-Cl) :  -0.0610 B(  2-C ,  9-Cl) :  -0.0778 B(  2-C , 11-H ) :   0.8870 
B(  3-C ,  4-C ) :   0.4674 B(  3-C ,  5-C ) :   0.2385 B(  3-C ,  7-Cl) :  -0.1314 
B(  3-C ,  8-Cl) :   0.6674 B(  3-C , 11-H ) :  -0.1274 B(  4-C ,  5-C ) :   0.4672 
B(  4-C ,  6-Cl) :  -0.1220 B(  4-C ,  7-Cl) :   0.8067 B(  4-C ,  8-Cl) :  -0.1219 
B(  5-C ,  6-Cl) :   0.6674 B(  5-C ,  7-Cl) :  -0.1314 B(  5-C , 10-H ) :  -0.1274 



                     *******************************
                     * LOEWDIN POPULATION ANALYSIS *
                     *******************************

----------------------
LOEWDIN ATOMIC CHARGES
----------------------
   0 C :   -0.141175
   1 C :   -0.409166
   2 C :   -0.141173
   3 C :   -0.420862
   4 C :   -0.446540
   5 C :   -0.420861
   6 Cl:    0.418576
   7 Cl:    0.433540
   8 Cl:    0.418576
   9 Cl:    0.397106
  10 H :    0.155990
  11 H :    0.155989

-------------------------------
LOEWDIN REDUCED ORBITAL CHARGES
-------------------------------
  0 C s       :     2.765430  s :     2.765430
      pz      :     0.897269  p :     2.955365
      px      :     1.042221
      py      :     1.015875
      dz2     :     0.027458  d :     0.376571
      dxz     :     0.063378
      dyz     :     0.030546
      dx2y2   :     0.117956
      dxy     :     0.137233
      f0      :     0.003580  f :     0.043809
      f+1     :     0.004352
      f-1     :     0.003691
      f+2     :     0.006998
      f-2     :     0.003163
      f+3     :     0.008487
      f-3     :     0.013538

  1 C s       :     2.775427  s :     2.775427
      pz      :     0.902135  p :     2.954035
      px      :     0.946597
      py      :     1.105303
      dz2     :     0.040971  d :     0.615668
      dxz     :     0.089754
      dyz     :     0.090186
      dx2y2   :     0.222385
      dxy     :     0.172372
      f0      :     0.004546  f :     0.064036
      f+1     :     0.005111
      f-1     :     0.004625
      f+2     :     0.006811
      f-2     :     0.008073
      f+3     :     0.010581
      f-3     :     0.024288

  2 C s       :     2.765430  s :     2.765430
      pz      :     0.897270  p :     2.955365
      px      :     1.042220
      py      :     1.015875
      dz2     :     0.027458  d :     0.376570
      dxz     :     0.063378
      dyz     :     0.030546
      dx2y2   :     0.117955
      dxy     :     0.137232
      f0      :     0.003580  f :     0.043809
      f+1     :     0.004352
      f-1     :     0.003691
      f+2     :     0.006998
      f-2     :     0.003163
      f+3     :     0.008487
      f-3     :     0.013538

  3 C s       :     2.779433  s :     2.779433
      pz      :     0.909839  p :     2.963228
      px      :     1.069738
      py      :     0.983651
      dz2     :     0.041700  d :     0.614627
      dxz     :     0.089404
      dyz     :     0.093583
      dx2y2   :     0.181778
      dxy     :     0.208162
      f0      :     0.004639  f :     0.063574
      f+1     :     0.004721
      f-1     :     0.005159
      f+2     :     0.008035
      f-2     :     0.007362
      f+3     :     0.010680
      f-3     :     0.022977

  4 C s       :     2.781972  s :     2.781972
      pz      :     0.939910  p :     2.997536
      px      :     0.969679
      py      :     1.087947
      dz2     :     0.042354  d :     0.604365
      dxz     :     0.097828
      dyz     :     0.077204
      dx2y2   :     0.203392
      dxy     :     0.183586
      f0      :     0.004770  f :     0.062666
      f+1     :     0.005384
      f-1     :     0.004736
      f+2     :     0.006960
      f-2     :     0.008243
      f+3     :     0.010809
      f-3     :     0.021765

  5 C s       :     2.779433  s :     2.779433
      pz      :     0.909839  p :     2.963228
      px      :     1.069737
      py      :     0.983652
      dz2     :     0.041700  d :     0.614627
      dxz     :     0.089404
      dyz     :     0.093583
      dx2y2   :     0.181778
      dxy     :     0.208161
      f0      :     0.004639  f :     0.063573
      f+1     :     0.004721
      f-1     :     0.005159
      f+2     :     0.008035
      f-2     :     0.007362
      f+3     :     0.010680
      f-3     :     0.022977

  6 Cls       :     5.539926  s :     5.539926
      pz      :     3.843748  p :    10.931041
      px      :     3.715871
      py      :     3.371422
      dz2     :     0.012607  d :     0.098675
      dxz     :     0.007140
      dyz     :     0.019970
      dx2y2   :     0.024275
      dxy     :     0.034683
      f0      :     0.001188  f :     0.011781
      f+1     :     0.000611
      f-1     :     0.001590
      f+2     :     0.000539
      f-2     :     0.001436
      f+3     :     0.003674
      f-3     :     0.002743

  7 Cls       :     5.534210  s :     5.534210
      pz      :     3.837581  p :    10.915876
      px      :     3.224251
      py      :     3.854045
      dz2     :     0.013069  d :     0.103880
      dxz     :     0.029135
      dyz     :     0.000372
      dx2y2   :     0.043100
      dxy     :     0.018204
      f0      :     0.001268  f :     0.012494
      f+1     :     0.002095
      f-1     :     0.000197
      f+2     :     0.002214
      f-2     :     0.000013
      f+3     :     0.003885
      f-3     :     0.002821

  8 Cls       :     5.539926  s :     5.539926
      pz      :     3.843749  p :    10.931042
      px      :     3.715875
      py      :     3.371418
      dz2     :     0.012607  d :     0.098675
      dxz     :     0.007140
      dyz     :     0.019970
      dx2y2   :     0.024275
      dxy     :     0.034683
      f0      :     0.001188  f :     0.011781
      f+1     :     0.000611
      f-1     :     0.001590
      f+2     :     0.000539
      f-2     :     0.001436
      f+3     :     0.003674
      f-3     :     0.002743

  9 Cls       :     5.545273  s :     5.545273
      pz      :     3.853041  p :    10.952103
      px      :     3.240510
      py      :     3.858552
      dz2     :     0.012028  d :     0.094373
      dxz     :     0.026282
      dyz     :     0.000236
      dx2y2   :     0.037364
      dxy     :     0.018463
      f0      :     0.001165  f :     0.011145
      f+1     :     0.001926
      f-1     :     0.000176
      f+2     :     0.001806
      f-2     :     0.000019
      f+3     :     0.003448
      f-3     :     0.002605

 10 H s       :     0.783417  s :     0.783417
      pz      :     0.013406  p :     0.060593
      px      :     0.016449
      py      :     0.030738

 11 H s       :     0.783417  s :     0.783417
      pz      :     0.013406  p :     0.060593
      px      :     0.016450
      py      :     0.030738


---------------------------------
LOEWDIN BOND ORDERS (THRESH 0.050000)
---------------------------------
B(  0-C ,  1-C ) :   1.5395 B(  0-C ,  2-C ) :   0.2315 B(  0-C ,  3-C ) :   0.1001 
B(  0-C ,  4-C ) :   0.2284 B(  0-C ,  5-C ) :   1.5405 B(  0-C ,  6-Cl) :   0.1745 
B(  0-C ,  9-Cl) :   0.1693 B(  0-C , 10-H ) :   0.8157 B(  1-C ,  2-C ) :   1.5395 
B(  1-C ,  3-C ) :   0.2512 B(  1-C ,  4-C ) :   0.0969 B(  1-C ,  5-C ) :   0.2512 
B(  1-C ,  9-Cl) :   1.6115 B(  1-C , 10-H ) :   0.0958 B(  1-C , 11-H ) :   0.0958 
B(  2-C ,  3-C ) :   1.5405 B(  2-C ,  4-C ) :   0.2284 B(  2-C ,  5-C ) :   0.1001 
B(  2-C ,  8-Cl) :   0.1745 B(  2-C ,  9-Cl) :   0.1693 B(  2-C , 11-H ) :   0.8157 
B(  3-C ,  4-C ) :   1.4896 B(  3-C ,  5-C ) :   0.2379 B(  3-C ,  7-Cl) :   0.1598 
B(  3-C ,  8-Cl) :   1.6322 B(  3-C , 11-H ) :   0.0972 B(  4-C ,  5-C ) :   1.4896 
B(  4-C ,  6-Cl) :   0.1594 B(  4-C ,  7-Cl) :   1.6603 B(  4-C ,  8-Cl) :   0.1594 
B(  5-C ,  6-Cl) :   1.6322 B(  5-C ,  7-Cl) :   0.1598 B(  5-C , 10-H ) :   0.0972 


------------------------------------------
LOEWDIN REDUCED ORBITAL POPULATIONS PER MO
-------------------------------------------
THRESHOLD FOR PRINTING IS 0.1%%
                      0         1         2         3         4         5   
                 -107.16710 -107.16701 -107.16699 -107.16528 -12.15470 -12.15426
                   2.00000   2.00000   2.00000   2.00000   2.00000   2.00000
                  --------  --------  --------  --------  --------  --------
 0 C  dx2y2           0.0       0.0       0.0       0.0       0.1       0.1
 1 C  s               0.0       0.0       0.0       0.0       0.2       0.0
 2 C  dx2y2           0.0       0.0       0.0       0.0       0.1       0.1
 3 C  s               0.0       0.0       0.0       0.0      37.2      49.5
 4 C  s               0.0       0.0       0.0       0.0      24.3       0.0
 4 C  py              0.0       0.0       0.0       0.0       0.0       0.1
 4 C  dz2             0.0       0.0       0.0       0.0       0.1       0.0
 4 C  dxy             0.0       0.0       0.0       0.0       0.0       0.3
 5 C  s               0.0       0.0       0.0       0.0      37.2      49.5
 6 Cl s               3.1      50.1      46.8       0.0       0.0       0.0
 7 Cl s              93.8       0.0       6.1       0.0       0.0       0.0
 8 Cl s               3.1      49.9      47.0       0.0       0.0       0.0
 9 Cl s               0.0       0.0       0.0     100.0       0.0       0.0

                      6         7         8         9        10        11   
                 -12.15116 -12.14846 -12.09700 -12.09663 -11.32009 -11.32007
                   2.00000   2.00000   2.00000   2.00000   2.00000   2.00000
                  --------  --------  --------  --------  --------  --------
 0 C  s               0.0       0.1      49.5      49.4       0.0       0.0
 0 C  dxy             0.0       0.2       0.0       0.0       0.0       0.0
 1 C  s               0.0      98.6       0.0       0.1       0.0       0.0
 1 C  py              0.0       0.0       0.2       0.0       0.0       0.0
 1 C  dz2             0.0       0.0       0.0       0.1       0.0       0.0
 1 C  dx2y2           0.0       0.0       0.0       0.1       0.0       0.0
 1 C  dxy             0.0       0.0       0.3       0.0       0.0       0.0
 1 C  f+3             0.0       0.0       0.0       0.1       0.0       0.0
 2 C  s               0.0       0.1      49.4      49.4       0.0       0.0
 2 C  dxy             0.0       0.2       0.0       0.0       0.0       0.0
 3 C  s              12.2       0.1       0.0       0.0       0.0       0.0
 3 C  dx2y2           0.0       0.0       0.1       0.1       0.0       0.0
 3 C  dxy             0.1       0.0       0.0       0.0       0.0       0.0
 4 C  s              74.7       0.0       0.0       0.0       0.0       0.0
 5 C  s              12.2       0.1       0.0       0.0       0.0       0.0
 5 C  dx2y2           0.0       0.0       0.1       0.1       0.0       0.0
 5 C  dxy             0.1       0.0       0.0       0.0       0.0       0.0
 6 Cl s               0.0       0.0       0.0       0.0      31.5      49.8
 7 Cl s               0.0       0.0       0.0       0.0      37.0       0.0
 8 Cl s               0.0       0.0       0.0       0.0      31.3      50.0

                     12        13        14        15        16        17   
                 -11.32003 -11.31838  -9.11213  -9.11192  -9.11113  -9.10986
                   2.00000   2.00000   2.00000   2.00000   2.00000   2.00000
                  --------  --------  --------  --------  --------  --------
 6 Cl s              18.4       0.0       0.0       0.0       0.0       0.0
 6 Cl px              0.0       0.0       4.2       9.6       7.9       0.0
 6 Cl py              0.0       0.0      13.0      40.4      22.6       2.6
 7 Cl s              62.8       0.0       0.0       0.0       0.0       0.0
 7 Cl px              0.0       0.0      64.4       0.0      35.5       0.1
 8 Cl s              18.5       0.0       0.0       0.0       0.0       0.0
 8 Cl px              0.0       0.0       4.2       9.6       7.9       0.0
 8 Cl py              0.0       0.0      13.0      40.4      22.6       2.6
 9 Cl s               0.0      99.7       0.0       0.0       0.0       0.0
 9 Cl px              0.0       0.0       1.1       0.0       3.4      94.5

                     18        19        20        21        22        23   
                  -9.10949  -9.10895  -9.10885  -9.10880  -9.10874  -9.10819
                   2.00000   2.00000   2.00000   2.00000   2.00000   2.00000
                  --------  --------  --------  --------  --------  --------
 6 Cl pz              0.0      31.9      50.0      18.0       0.0       0.0
 6 Cl px             23.1       0.0       0.0       0.0      37.9      17.2
 6 Cl py              5.2       0.0       0.0       0.0      11.7       4.4
 7 Cl pz              0.0      36.1       0.0      62.5       0.0       0.0
 7 Cl py             43.4       0.0       0.0       0.0       0.0      56.5
 8 Cl pz              0.0      31.9      50.0      18.0       0.0       0.0
 8 Cl px             23.1       0.0       0.0       0.0      37.9      17.2
 8 Cl py              5.2       0.0       0.0       0.0      11.7       4.4
 9 Cl pz              0.0       0.1       0.0       1.5       0.0       0.0
 9 Cl px              0.0       0.0       0.0       0.0       0.9       0.0
 9 Cl py              0.0       0.0       0.0       0.0       0.0       0.2

                     24        25        26        27        28        29   
                  -9.10723  -9.10718  -1.49083  -1.45163  -1.44967  -1.42910
                   2.00000   2.00000   2.00000   2.00000   2.00000   2.00000
                  --------  --------  --------  --------  --------  --------
 0 C  s               0.0       0.0       5.2       2.5       1.4       0.2
 0 C  px              0.0       0.0       1.1       2.2       1.5       0.9
 0 C  py              0.0       0.0       0.9       2.0       0.3       0.2
 0 C  dz2             0.0       0.0       0.3       0.1       0.1       0.0
 0 C  dx2y2           0.0       0.0       0.1       0.0       0.3       0.0
 0 C  dxy             0.0       0.0       0.1       0.4       0.1       0.0
 1 C  s               0.0       0.0       5.8      14.9       0.0       0.3
 1 C  px              0.0       0.0       0.3       5.5       0.0       1.4
 1 C  py              0.0       0.0       0.0       0.0       0.7       0.0
 1 C  dz2             0.0       0.0       0.4       1.1       0.0       0.0
 1 C  dx2y2           0.0       0.0       0.1       1.1       0.0       0.2
 1 C  dxy             0.0       0.0       0.0       0.0       0.2       0.0
 1 C  f+3             0.0       0.0       0.1       0.3       0.0       0.0
 2 C  s               0.0       0.0       5.2       2.5       1.4       0.2
 2 C  px              0.0       0.0       1.1       2.2       1.5       0.9
 2 C  py              0.0       0.0       0.9       2.0       0.3       0.2
 2 C  dz2             0.0       0.0       0.3       0.1       0.1       0.0
 2 C  dx2y2           0.0       0.0       0.1       0.0       0.3       0.0
 2 C  dxy             0.0       0.0       0.1       0.4       0.1       0.0
 3 C  s               0.0       0.0      12.1       0.1       7.4       1.4
 3 C  px              0.0       0.0       0.4       2.6       0.7       0.1
 3 C  py              0.0       0.0       0.3       0.0       5.3       4.3
 3 C  dz2             0.0       0.0       0.8       0.0       0.6       0.1
 3 C  dx2y2           0.0       0.0       0.1       0.1       0.1       0.3
 3 C  dxy             0.0       0.0       0.0       0.1       0.8       1.2
 3 C  f+3             0.0       0.0       0.1       0.0       0.2       0.1
 4 C  s               0.0       0.0      16.0       2.6       0.0       2.5
 4 C  px              0.0       0.0       0.0       3.3       0.0       9.2
 4 C  py              0.0       0.0       0.0       0.0       7.0       0.0
 4 C  dz2             0.0       0.0       1.1       0.2       0.0       0.2
 4 C  dx2y2           0.0       0.0       0.0       0.2       0.0       3.3
 4 C  dxy             0.0       0.0       0.0       0.0       0.3       0.0
 4 C  f+3             0.0       0.0       0.2       0.1       0.0       0.1
 5 C  s               0.0       0.0      12.1       0.1       7.4       1.4
 5 C  px              0.0       0.0       0.4       2.6       0.7       0.1
 5 C  py              0.0       0.0       0.3       0.0       5.3       4.3
 5 C  dz2             0.0       0.0       0.8       0.0       0.6       0.1
 5 C  dx2y2           0.0       0.0       0.1       0.1       0.1       0.3
 5 C  dxy             0.0       0.0       0.0       0.1       0.8       1.2
 5 C  f+3             0.0       0.0       0.1       0.0       0.2       0.1
 6 Cl s               0.0       0.0       7.3       0.9      26.0      13.8
 6 Cl pz              0.0       0.1       0.0       0.0       0.0       0.0
 6 Cl px              0.1       0.0       0.1       0.0       0.1       0.0
 6 Cl py              0.0       0.0       0.6       0.0       0.4       0.1
 6 Cl dxy             0.0       0.0       0.1       0.0       0.1       0.0
 7 Cl s               0.0       0.0      10.7       9.9       0.0      32.8
 7 Cl pz              0.0       1.4       0.0       0.0       0.0       0.0
 7 Cl px              0.0       0.0       1.1       0.2       0.0       0.2
 7 Cl py              0.1       0.0       0.0       0.0       0.1       0.0
 7 Cl dx2y2           0.0       0.0       0.2       0.1       0.0       0.1
 8 Cl s               0.0       0.0       7.3       0.9      26.0      13.8
 8 Cl pz              0.0       0.1       0.0       0.0       0.0       0.0
 8 Cl px              0.1       0.0       0.1       0.0       0.1       0.0
 8 Cl py              0.0       0.0       0.6       0.0       0.4       0.1
 8 Cl dxy             0.0       0.0       0.1       0.0       0.1       0.0
 9 Cl s               0.0       0.0       2.7      36.3       0.0       3.9
 9 Cl pz              0.0      98.4       0.0       0.0       0.0       0.0
 9 Cl px              0.0       0.0       0.3       0.9       0.0       0.0
 9 Cl py             99.8       0.0       0.0       0.0       0.0       0.0
 9 Cl dx2y2           0.0       0.0       0.0       0.2       0.0       0.0
10 H  s               0.0       0.0       0.7       0.4       0.2       0.0
11 H  s               0.0       0.0       0.7       0.4       0.2       0.0

                     30        31        32        33        34        35   
                  -1.38284  -1.30900  -1.29378  -1.15746  -1.14560  -1.03571
                   2.00000   2.00000   2.00000   2.00000   2.00000   2.00000
                  --------  --------  --------  --------  --------  --------
 0 C  s               4.6      12.5       3.4       4.2       1.6       0.0
 0 C  px              0.5       1.1       2.1       4.9       7.8      11.7
 0 C  py              1.3       0.2       1.1       0.3       6.2       3.6
 0 C  dz2             0.2       0.1       0.0       0.0       0.0       0.0
 0 C  dx2y2           0.1       0.6       1.0       0.2       0.6       0.1
 0 C  dxy             0.1       0.0       0.7       0.2       0.1       0.0
 0 C  f+3             0.1       0.1       0.0       0.0       0.0       0.0
 1 C  s               1.6       0.0       7.8       0.0       7.5       0.0
 1 C  px             11.8       0.0       3.4       0.0       0.0       0.0
 1 C  py              0.0      12.3       0.0      14.7       0.0      16.7
 1 C  dz2             0.0       0.0       0.0       0.0       0.1       0.0
 1 C  dx2y2           1.3       0.0       1.8       0.0       0.3       0.0
 1 C  dxy             0.0       2.4       0.0       0.2       0.0       0.2
 1 C  f+1             0.1       0.0       0.0       0.0       0.0       0.0
 2 C  s               4.6      12.5       3.4       4.2       1.6       0.0
 2 C  px              0.5       1.1       2.1       4.9       7.8      11.7
 2 C  py              1.3       0.2       1.1       0.3       6.2       3.6
 2 C  dz2             0.2       0.1       0.0       0.0       0.0       0.0
 2 C  dx2y2           0.1       0.6       1.0       0.2       0.6       0.1
 2 C  dxy             0.1       0.0       0.7       0.2       0.1       0.0
 2 C  f+3             0.1       0.1       0.0       0.0       0.0       0.0
 3 C  s               1.3       5.8       2.5       5.7       1.8       0.0
 3 C  px              3.7       5.8       2.5       3.8       8.4      10.6
 3 C  py              5.1       0.7       5.0       1.2       3.5       4.0
 3 C  dx2y2           0.2       1.7       0.9       0.0       0.4       0.1
 3 C  dxy             0.3       0.4       1.1       0.4       0.0       0.0
 4 C  s               1.1       0.0      10.6       0.0       4.7       0.0
 4 C  px              5.8       0.0       5.7       0.0       0.1       0.0
 4 C  py              0.0       3.5       0.0      21.0       0.0      13.9
 4 C  dx2y2           0.0       0.0       1.6       0.0       0.3       0.0
 4 C  dxy             0.0       1.9       0.0       1.0       0.0       0.2
 4 C  f-1             0.0       0.0       0.0       0.1       0.0       0.0
 4 C  f-3             0.0       0.1       0.0       0.0       0.0       0.0
 5 C  s               1.3       5.8       2.5       5.7       1.8       0.0
 5 C  px              3.7       5.8       2.5       3.8       8.4      10.6
 5 C  py              5.1       0.7       5.0       1.2       3.5       4.0
 5 C  dx2y2           0.2       1.7       0.9       0.0       0.4       0.1
 5 C  dxy             0.3       0.4       1.1       0.4       0.0       0.0
 6 Cl s              10.0       6.8       1.8       3.0       1.2       0.0
 6 Cl px              0.1       0.4       0.0       0.4       1.1       1.4
 6 Cl py              0.1       0.9       0.4       3.4       0.7       0.1
 6 Cl dz2             0.0       0.0       0.0       0.1       0.1       0.0
 6 Cl dx2y2           0.0       0.0       0.1       0.3       0.0       0.2
 6 Cl dxy             0.0       0.2       0.0       0.1       0.3       0.1
 7 Cl s               3.9       0.0       9.5       0.0       2.9       0.0
 7 Cl px              0.1       0.0       2.2       0.0       3.7       0.0
 7 Cl py              0.0       0.0       0.0       0.4       0.0       1.5
 7 Cl dz2             0.0       0.0       0.1       0.0       0.1       0.0
 7 Cl dx2y2           0.0       0.0       0.3       0.0       0.3       0.0
 7 Cl dxy             0.0       0.0       0.0       0.3       0.0       0.3
 8 Cl s              10.0       6.8       1.8       3.0       1.2       0.0
 8 Cl px              0.1       0.4       0.0       0.4       1.1       1.4
 8 Cl py              0.1       0.9       0.4       3.4       0.7       0.1
 8 Cl dz2             0.0       0.0       0.0       0.1       0.1       0.0
 8 Cl dx2y2           0.0       0.0       0.1       0.3       0.0       0.2
 8 Cl dxy             0.0       0.2       0.0       0.1       0.3       0.1
 9 Cl s              17.2       0.0       7.5       0.0       3.7       0.0
 9 Cl px              0.4       0.0       1.8       0.0       4.9       0.0
 9 Cl py              0.0       0.1       0.0       0.3       0.0       1.2
 9 Cl dz2             0.0       0.0       0.1       0.0       0.2       0.0
 9 Cl dx2y2           0.0       0.0       0.2       0.0       0.4       0.0
 9 Cl dxy             0.0       0.1       0.0       0.2       0.0       0.4
10 H  s               0.4       2.0       0.6       2.2       1.0       0.0
10 H  px              0.0       0.1       0.0       0.0       0.2       0.1
10 H  py              0.0       0.2       0.1       0.3       0.0       0.1
11 H  s               0.4       2.0       0.6       2.2       1.0       0.0
11 H  px              0.0       0.1       0.0       0.0       0.2       0.1
11 H  py              0.0       0.2       0.1       0.3       0.0       0.1

                     36        37        38        39        40        41   
                  -1.01384  -0.98067  -0.95067  -0.94835  -0.90664  -0.89059
                   2.00000   2.00000   2.00000   2.00000   2.00000   2.00000
                  --------  --------  --------  --------  --------  --------
 0 C  s               0.5       1.7       0.3       0.1       0.4       0.5
 0 C  px              2.2       0.4       0.5       4.1       8.2       0.8
 0 C  py              5.9       1.9       6.4       3.2       0.8      15.0
 0 C  dx2y2           0.1       0.4       0.3       0.2       0.8       0.8
 0 C  dxy             0.2       1.0       0.6       0.1       0.7       2.2
 0 C  f-3             0.0       0.0       0.3       0.1       0.0       0.0
 1 C  s               0.2       1.3       0.2       0.0       0.1       0.0
 1 C  px              5.6       2.8      11.5       0.0       4.6       0.0
 1 C  py              0.0       0.0       0.0       0.3       0.0       8.4
 1 C  dz2             0.0       0.1       0.1       0.0       0.0       0.0
 1 C  dx2y2           0.7       1.1       0.0       0.0       4.2       0.0
 1 C  dxy             0.0       0.0       0.0       1.0       0.0       0.4
 1 C  f-3             0.0       0.0       0.0       0.3       0.0       0.4
 2 C  s               0.5       1.7       0.3       0.1       0.4       0.5
 2 C  px              2.2       0.4       0.5       4.1       8.2       0.8
 2 C  py              5.9       1.9       6.4       3.2       0.8      15.0
 2 C  dx2y2           0.1       0.4       0.3       0.2       0.8       0.8
 2 C  dxy             0.2       1.0       0.6       0.1       0.7       2.2
 2 C  f-3             0.0       0.0       0.3       0.1       0.0       0.0
 3 C  s               0.1       1.3       0.0       0.0       0.0       0.1
 3 C  px              1.5       1.0       0.3       3.5       5.9       0.3
 3 C  py              4.3       1.0       3.3       8.3       0.1       1.6
 3 C  dz2             0.0       0.1       0.0       0.1       0.0       0.0
 3 C  dx2y2           0.2       0.6       0.2       0.5       0.2       0.2
 3 C  dxy             0.6       1.0       0.9       0.1       0.1       1.9
 3 C  f-3             0.0       0.0       0.3       0.1       0.1       0.1
 4 C  s               0.4       1.5       0.1       0.0       0.0       0.0
 4 C  px              7.1       5.1       7.2       0.0       4.6       0.0
 4 C  py              0.0       0.0       0.0       1.7       0.0       3.4
 4 C  dx2y2           0.5       1.7       0.0       0.0       2.4       0.0
 4 C  dxy             0.0       0.0       0.0       1.2       0.0       0.2
 4 C  f-3             0.0       0.0       0.0       0.5       0.0       0.0
 5 C  s               0.1       1.3       0.0       0.0       0.0       0.1
 5 C  px              1.5       1.0       0.3       3.5       5.9       0.3
 5 C  py              4.3       1.0       3.3       8.3       0.1       1.6
 5 C  dz2             0.0       0.1       0.0       0.1       0.0       0.0
 5 C  dx2y2           0.2       0.6       0.2       0.5       0.2       0.2
 5 C  dxy             0.6       1.0       0.9       0.1       0.1       1.9
 5 C  f-3             0.0       0.0       0.3       0.1       0.1       0.1
 6 Cl s               1.7       1.4       0.7       2.2       0.1       0.2
 6 Cl px              1.9       1.9       1.2       5.3       0.1       2.5
 6 Cl py              6.2       7.7       5.6      15.9       3.5       2.4
 6 Cl dxy             0.2       0.2       0.1       0.2       0.0       0.1
 7 Cl s               2.4       2.7       1.1       0.0       0.8       0.0
 7 Cl px             12.1      19.1       9.6       0.0      12.6       0.0
 7 Cl py              0.0       0.0       0.0       0.0       0.0       3.2
 7 Cl dz2             0.1       0.1       0.1       0.0       0.0       0.0
 7 Cl dx2y2           0.4       0.4       0.1       0.0       0.1       0.0
 8 Cl s               1.7       1.4       0.7       2.2       0.1       0.2
 8 Cl px              1.9       1.9       1.2       5.3       0.1       2.5
 8 Cl py              6.2       7.7       5.6      15.9       3.5       2.4
 8 Cl dxy             0.2       0.2       0.1       0.2       0.0       0.1
 9 Cl s               1.7       1.6       1.8       0.0       1.1       0.0
 9 Cl px              8.1      11.1      16.8       0.0      17.1       0.0
 9 Cl py              0.0       0.0       0.0       0.2       0.0       2.1
 9 Cl dx2y2           0.2       0.3       0.2       0.0       0.2       0.0
 9 Cl dxy             0.0       0.0       0.0       0.0       0.0       0.1
10 H  s               4.1       3.5       4.1       2.9       4.6      11.7
10 H  px              0.0       0.0       0.1       0.0       0.0       0.2
10 H  py              0.2       0.1       0.1       0.1       0.2       0.2
11 H  s               4.1       3.5       4.1       2.9       4.6      11.7
11 H  px              0.0       0.0       0.1       0.0       0.0       0.2
11 H  py              0.2       0.1       0.1       0.1       0.2       0.2

                     42        43        44        45        46        47   
                  -0.88257  -0.84109  -0.83801  -0.82271  -0.82117  -0.81738
                   2.00000   2.00000   2.00000   2.00000   2.00000   2.00000
                  --------  --------  --------  --------  --------  --------
 0 C  s               0.0       0.0       0.0       0.0       0.2       0.1
 0 C  pz              6.1       2.1       1.1       0.1       0.0       0.0
 0 C  px              0.0       0.0       0.0       0.0       0.3       0.6
 0 C  py              0.0       0.0       0.0       0.0       0.4       0.2
 0 C  dxz             0.2       0.3       0.3       0.1       0.0       0.0
 0 C  dyz             0.2       0.4       0.0       0.0       0.0       0.0
 1 C  pz              6.7      13.7       0.0       0.3       0.0       0.0
 1 C  px              0.0       0.0       0.0       0.0       0.0       0.2
 1 C  py              0.0       0.0       0.0       0.0       0.2       0.0
 1 C  dxz             0.0       1.4       0.0       0.2       0.0       0.0
 1 C  dyz             0.0       0.0       0.1       0.0       0.0       0.0
 1 C  dx2y2           0.0       0.0       0.0       0.0       0.0       0.1
 1 C  dxy             0.0       0.0       0.0       0.0       0.8       0.0
 1 C  f0              0.1       0.1       0.0       0.0       0.0       0.0
 2 C  s               0.0       0.0       0.0       0.0       0.2       0.1
 2 C  pz              6.1       2.1       1.1       0.1       0.0       0.0
 2 C  px              0.0       0.0       0.0       0.0       0.3       0.6
 2 C  py              0.0       0.0       0.0       0.0       0.4       0.2
 2 C  dxz             0.2       0.3       0.3       0.1       0.0       0.0
 2 C  dyz             0.2       0.4       0.0       0.0       0.0       0.0
 3 C  s               0.0       0.0       0.0       0.0       0.1       0.0
 3 C  pz             13.1       0.2       7.0       1.1       0.0       0.0
 3 C  px              0.0       0.0       0.0       0.0       1.2       0.6
 3 C  py              0.0       0.0       0.0       0.0       0.8       0.1
 3 C  dxz             0.1       0.4       0.2       0.0       0.0       0.0
 3 C  dyz             0.0       0.0       1.1       1.1       0.0       0.0
 3 C  dx2y2           0.0       0.0       0.0       0.0       0.5       1.9
 3 C  dxy             0.0       0.0       0.0       0.0       0.5       0.4
 3 C  f0              0.1       0.0       0.1       0.0       0.0       0.0
 3 C  f-3             0.0       0.0       0.0       0.0       0.1       0.2
 4 C  s               0.0       0.0       0.0       0.0       0.0       0.4
 4 C  pz             16.9       2.7       0.0       2.6       0.0       0.0
 4 C  px              0.0       0.0       0.0       0.0       0.0       0.2
 4 C  py              0.0       0.0       0.0       0.0       3.3       0.0
 4 C  dz2             0.0       0.0       0.0       0.0       0.0       0.1
 4 C  dxz             0.0       0.5       0.0       2.2       0.0       0.0
 4 C  dyz             0.0       0.0       1.0       0.0       0.0       0.0
 4 C  dxy             0.0       0.0       0.0       0.0       2.3       0.0
 4 C  f0              0.2       0.0       0.0       0.0       0.0       0.0
 4 C  f+2             0.0       0.0       0.0       0.2       0.0       0.0
 4 C  f-3             0.0       0.0       0.0       0.0       0.1       0.0
 5 C  s               0.0       0.0       0.0       0.0       0.1       0.0
 5 C  pz             13.1       0.2       7.0       1.1       0.0       0.0
 5 C  px              0.0       0.0       0.0       0.0       1.2       0.6
[...]
10 H  px              0.1       0.0       0.4       0.1       0.0       0.0
10 H  py              0.0       0.8       0.3       0.0       0.0       0.0
11 H  s               0.1       2.2       3.1       0.0       0.1       0.0
11 H  px              0.1       0.0       0.4       0.1       0.0       0.0
11 H  py              0.0       0.8       0.3       0.0       0.0       0.0

                    324       325       326       327       328       329   
                   9.57056   9.59613   9.59759   9.61900   9.65970   9.67339
                   0.00000   0.00000   0.00000   0.00000   0.00000   0.00000
                  --------  --------  --------  --------  --------  --------
 6 Cl pz             26.4       1.9      50.0      21.7       0.0       0.0
 6 Cl px              0.0       0.0       0.0       0.0       6.1      27.0
 6 Cl py              0.0       0.0       0.0       0.0       1.6       8.7
 7 Cl pz             38.7       4.8       0.0      56.4       0.0       0.0
 7 Cl py              0.0       0.0       0.0       0.0      34.7       0.4
 8 Cl pz             26.4       1.9      50.0      21.7       0.0       0.0
 8 Cl px              0.0       0.0       0.0       0.0       6.1      27.0
 8 Cl py              0.0       0.0       0.0       0.0       1.6       8.7
 9 Cl pz              8.5      91.3       0.0       0.1       0.0       0.0
 9 Cl py              0.0       0.0       0.0       0.0      49.5      27.8

                    330       331       332       333       334       335   
                   9.68142   9.71094  10.09835  10.24179  10.25322  10.32113
                   0.00000   0.00000   0.00000   0.00000   0.00000   0.00000
                  --------  --------  --------  --------  --------  --------
 1 C  s               0.0       0.0       0.0       1.0       0.0       0.0
 1 C  px              0.0       0.0       0.1       0.3       0.0       0.0
 3 C  s               0.0       0.0       0.1       0.1       0.6       0.3
 3 C  py              0.0       0.0       0.1       0.0       0.2       0.1
 4 C  s               0.1       0.0       0.2       0.1       0.0       1.0
 4 C  px              0.1       0.0       0.1       0.0       0.0       0.3
 5 C  s               0.0       0.0       0.1       0.1       0.6       0.3
 5 C  py              0.0       0.0       0.1       0.0       0.2       0.1
 6 Cl s               0.0       0.0       0.2       0.0       0.5       0.2
 6 Cl px             37.9       4.6       5.9       0.9      11.7       4.8
 6 Cl py             11.8       1.8      19.6       3.5      36.6      14.0
 7 Cl s               0.0       0.0       0.2       0.1       0.0       0.7
 7 Cl px              0.0       0.0      29.4       8.9       0.0      58.4
 7 Cl py              0.0      64.2       0.0       0.0       0.0       0.0
 8 Cl s               0.0       0.0       0.2       0.0       0.5       0.2
 8 Cl px             37.9       4.6       5.9       0.9      11.7       4.8
 8 Cl py             11.8       1.8      19.6       3.5      36.6      14.0
 9 Cl s               0.0       0.0       0.1       0.8       0.0       0.0
 9 Cl px              0.0       0.0      17.7      79.1       0.0       0.3
 9 Cl py              0.0      22.2       0.0       0.0       0.0       0.0
 9 Cl dx2y2           0.0       0.0       0.0       0.1       0.0       0.0

                    336       337       338       339       340       341   
                  20.15336  21.01917  21.07549  21.10108  21.12162  21.41596
                   0.00000   0.00000   0.00000   0.00000   0.00000   0.00000
                  --------  --------  --------  --------  --------  --------
 0 C  s              12.5       5.4       2.7      13.2      46.0      17.7
 0 C  px              0.0       0.4       0.1       0.0       0.0       0.0
 0 C  py              0.1       0.1       0.0       0.0       0.0       0.0
 1 C  s              18.8      44.7       0.0      24.4       0.0      10.0
 1 C  px              0.0       0.1       0.0       0.1       0.0       0.0
 1 C  py              0.0       0.0       0.0       0.0       0.8       0.0
 1 C  dxy             0.0       0.0       0.0       0.0       0.3       0.0
 2 C  s              12.5       5.4       2.7      13.2      46.0      17.7
 2 C  px              0.0       0.4       0.1       0.0       0.0       0.0
 2 C  py              0.1       0.1       0.0       0.0       0.0       0.0
 3 C  s              19.4       8.7      46.0       5.2       2.5      16.0
 3 C  px              0.0       0.4       0.0       0.1       0.2       0.0
 3 C  py              0.0       0.1       0.1       0.1       0.1       0.0
 3 C  dx2y2           0.0       0.1       0.0       0.0       0.1       0.0
 4 C  s              16.4      23.2       0.0      36.9       0.0      20.8
 4 C  px              0.0       0.0       0.0       0.2       0.0       0.0
 4 C  py              0.0       0.0       0.6       0.0       0.3       0.0
 4 C  dxy             0.0       0.0       0.3       0.0       0.1       0.0
 5 C  s              19.4       8.7      46.0       5.2       2.5      16.0
 5 C  px              0.0       0.4       0.0       0.1       0.2       0.0
 5 C  py              0.0       0.1       0.1       0.1       0.1       0.0
 5 C  dx2y2           0.0       0.1       0.0       0.0       0.1       0.0
 6 Cl s               0.1       0.1       0.4       0.0       0.1       0.2
 7 Cl s               0.0       0.3       0.0       0.3       0.0       0.1
 8 Cl s               0.1       0.1       0.4       0.0       0.1       0.2
 9 Cl s               0.1       0.5       0.0       0.1       0.0       0.1
10 H  s               0.1       0.0       0.0       0.0       0.1       0.0
11 H  s               0.1       0.0       0.0       0.0       0.1       0.0

                    342       343       344       345   
                  24.23891  24.75206  24.80277  25.13324
                   0.00000   0.00000   0.00000   0.00000
                  --------  --------  --------  --------
 0 C  s               0.3       0.0       0.0       0.0
 0 C  px              0.0       0.3       0.0       0.0
 1 C  s               0.1       0.5       0.0       0.0
 1 C  px              0.1       0.7       0.0       0.0
 1 C  dx2y2           0.1       0.5       0.0       0.0
 2 C  s               0.3       0.0       0.0       0.0
 2 C  px              0.0       0.3       0.0       0.0
 3 C  s               0.0       0.1       0.4       0.2
 3 C  px              0.1       0.1       0.1       0.1
 3 C  py              0.0       0.0       0.5       0.1
 3 C  dxy             0.0       0.0       0.2       0.3
 4 C  s               0.0       0.1       0.0       0.8
 4 C  px              0.3       0.1       0.0       0.4
 4 C  py              0.0       0.0       0.4       0.0
 4 C  dx2y2           0.1       0.0       0.0       0.8
 5 C  s               0.0       0.1       0.4       0.2
 5 C  px              0.1       0.1       0.1       0.1
 5 C  py              0.0       0.0       0.5       0.1
 5 C  dxy             0.0       0.0       0.2       0.3
 6 Cl s              23.8       7.3      48.1      17.1
 6 Cl py              0.1       0.0       0.2       0.1
 7 Cl s              32.2       3.5       0.0      60.4
 7 Cl px              0.1       0.0       0.0       0.3
 8 Cl s              23.8       7.3      48.1      17.1
 8 Cl py              0.1       0.0       0.2       0.1
 9 Cl s              17.8      78.0       0.0       0.7
 9 Cl px              0.1       0.3       0.0       0.0


                      *****************************
                      * MAYER POPULATION ANALYSIS *
                      *****************************

  NA   - Mulliken gross atomic population
  ZA   - Total nuclear charge
  QA   - Mulliken gross atomic charge
  VA   - Mayer's total valence
  BVA  - Mayer's bonded valence
  FA   - Mayer's free valence

  ATOM       NA         ZA         QA         VA         BVA        FA
  0 C      6.2420     6.0000    -0.2420     3.9947     3.9947     0.0000
  1 C      5.8440     6.0000     0.1560     3.8817     3.8817    -0.0000
  2 C      6.2420     6.0000    -0.2420     3.9947     3.9947    -0.0000
  3 C      5.9048     6.0000     0.0952     3.8973     3.8973    -0.0000
  4 C      5.9820     6.0000     0.0180     3.9837     3.9837     0.0000
  5 C      5.9048     6.0000     0.0952     3.8972     3.8972     0.0000
  6 Cl    17.0475    17.0000    -0.0475     1.2583     1.2583     0.0000
  7 Cl    17.0239    17.0000    -0.0239     1.2917     1.2917    -0.0000
  8 Cl    17.0475    17.0000    -0.0475     1.2583     1.2583     0.0000
  9 Cl    17.0725    17.0000    -0.0725     1.2247     1.2247    -0.0000
 10 H      0.8446     1.0000     0.1554     0.9812     0.9812     0.0000
 11 H      0.8446     1.0000     0.1554     0.9812     0.9812    -0.0000

  Mayer bond orders larger than 0.100000
B(  0-C ,  1-C ) :   1.3795 B(  0-C ,  5-C ) :   1.3804 B(  0-C , 10-H ) :   0.9552 
B(  1-C ,  2-C ) :   1.3795 B(  1-C ,  9-Cl) :   0.9904 B(  2-C ,  3-C ) :   1.3804 
B(  2-C , 11-H ) :   0.9552 B(  3-C ,  4-C ) :   1.3120 B(  3-C ,  8-Cl) :   1.0893 
B(  4-C ,  5-C ) :   1.3119 B(  4-C ,  7-Cl) :   1.2083 B(  5-C ,  6-Cl) :   1.0893 


-------
TIMINGS
-------

Total SCF time: 0 days 0 hours 3 min 35 sec 

Total time                  ....     215.198 sec
Sum of individual times     ....     209.472 sec  ( 97.3%)

SCF preparation             ....       0.245 sec  (  0.1%)
Fock matrix formation       ....     205.159 sec  ( 95.3%)
  Startup                   ....       0.069 sec  (  0.0% of F)
  Split-RI-J                ....       8.442 sec  (  4.1% of F)
  Chain of spheres X        ....     173.178 sec  ( 84.4% of F)
  XC integration            ....      25.292 sec  ( 12.3% of F)
    XC Preparation          ....       0.000 sec  (  0.0% of XC)
    Basis function eval.    ....       4.250 sec  ( 16.8% of XC)
    Density eval.           ....       3.817 sec  ( 15.1% of XC)
    XC-Functional eval.     ....       3.591 sec  ( 14.2% of XC)
    XC-Potential eval.      ....       6.450 sec  ( 25.5% of XC)
Diagonalization             ....       0.000 sec  (  0.0%)
Density matrix formation    ....       0.274 sec  (  0.1%)
Total Energy calculation    ....       0.056 sec  (  0.0%)
Population analysis         ....       0.208 sec  (  0.1%)
Orbital Transformation      ....       0.111 sec  (  0.1%)
Orbital Orthonormalization  ....       0.000 sec  (  0.0%)
DIIS solution               ....       2.624 sec  (  1.2%)
  MO trafo                  ....       0.000 sec  (  0.0 % of DIIS)
  Orb grad                  ....       0.000 sec  (  0.0 % of DIIS)
  Energy W gradient         ....       0.000 sec  (  0.0 % of DIIS)
  DIIS error                ....       0.024 sec  (  0.9 % of DIIS)
  DIIS work                 ....       2.533 sec  ( 96.5 % of DIIS)
  Form Q                    ....       0.000 sec  (  0.0 % of DIIS)
  Form QpQm                 ....       0.000 sec  (  0.0 % of DIIS)
  Exp/Cayley                ....       0.000 sec  (  0.0 % of DIIS)
  Orb update                ....       0.000 sec  (  0.0 % of DIIS)
  Wake-sleep                ....       0.014 sec  (  0.5 % of DIIS)
SOSCF solution              ....       0.588 sec  (  0.3%)
  MO trafo                  ....       0.129 sec  ( 21.9 % of SOSCF)
  Orb grad                  ....       0.004 sec  (  0.7 % of SOSCF)
  Rot update                ....       0.338 sec  ( 57.4 % of SOSCF)
  Step                      ....       0.118 sec  ( 20.1 % of SOSCF)
Grid generation             ....       0.207 sec  (  0.1%)
Finished LeanSCF after 215.3 sec

Maximum memory used throughout the entire LEANSCF-calculation: 46.9 MB
------------------   -----------------
gCP correction             0.005822810
------------------   -----------------

-------------------------   --------------------
FINAL SINGLE POINT ENERGY     -2070.433863367625
-------------------------   --------------------


------------------------------------------------------------------------------
                              ORCA PROPERTY CALCULATIONS
------------------------------------------------------------------------------

GBWName                                 ... sp_gas.gbw
Number of atoms                         ...     12
Number of basis functions               ...    346
Max core memory                         ...   1024 MB

Electric properties:
Dipole moment                           ... YES
Quadrupole moment                       ...  NO
Static polarizability (Dipole/Dipole)   ...  NO
Static polarizability (Dipole/Quad.)    ...  NO
Static polarizability (Quad./Quad.)     ...  NO
Static polarizability (Velocity)        ...  NO

Atomic electric properties:
Dipole moment                           ...  NO
Quadrupole moment                       ...  NO
Static polarizability                   ...  NO

Choice of electric origin               ... Center of mass
Position of electric origin             ...     0.004835    -0.000000    -0.000010

General magnetic properties:
Magnetizability                         ...  NO

EPR properties:
g-Tensor (aka g-matrix)                 ...  NO
Zero-Field splitting spin-orbit         ...  NO
Zero-field splitting spin-spin          ...  NO
Hyperfine couplings                     ...  NO (   0 nuclei)
Quadrupole couplings                    ...  NO (   0 nuclei)
Contact density                         ...  NO (   0 nuclei)

NMR properties:
Chemical shifts                         ...  NO (   0 nuclei)
Spin-rotation constants                 ...  NO (   0 nuclei)
Spin-spin couplings                     ...  NO (   0 nuclei,    0 pairs)

Choice of magnetic origin               ... GIAO
Position of magnetic origin             ...     0.000000     0.000000     0.000000

Properties with geometric perturbations:
SCF Hessian                             ...  NO
IR spectrum                             ...  NO
VCD spectrum                            ...  NO
X-ray spectroscopy properties:
SCF XES/XAS/RIXS spectra                ...  NO


-------------
DIPOLE MOMENT
-------------

Method             : SCF
Type of density    : Electron Density
Multiplicity       :   1
Irrep              :   0
Energy             : -2070.4396861772252123 Eh
Relativity type    : 
Basis              : AO
                                X                 Y                 Z
Electronic contribution:     -4.359313875       0.000012920       0.000094507
Nuclear contribution   :      4.724040747      -0.000015017      -0.000102407
                        -----------------------------------------
Total Dipole Moment    :      0.364726871      -0.000002097      -0.000007900
                        -----------------------------------------
Magnitude (a.u.)       :      0.364726871
Magnitude (Debye)      :      0.927062032



--------------------
Rotational spectrum 
--------------------
 
Rotational constants in cm-1:             0.027814             0.019167             0.011347 
Rotational constants in MHz :           833.828581           574.598398           340.178493 

Dipole components along the rotational axes: 
x,y,z [a.u.] :     0.364727     0.000001     0.000000 
x,y,z [Debye]:     0.927062     0.000003     0.000001 

 

Dipole moment calculation done in   0.0 sec 

Maximum memory used throughout the entire PROP-calculation: 31.4 MB

--------------------------------
SUGGESTED CITATIONS FOR THIS RUN
--------------------------------

Below you find a list of papers that are relevant to this ORCA run
We neither can nor want to force you to cite these papers, but we appreciate if you do
You receive ORCA, which is the product of decades of hard work by many enthusiastic individuals, for free
The only thing we kindly ask in return is that you cite our papers,
We deeply appreciate it, if you show your appreciation for ORCA by not just citing the generic ORCA reference.

Please note that relegating all ORCA citations to the supporting information does *not* help us.
SI sections are not indexed - citations you put there will not count into any citation statistics
But we need these citations in order to attract the funding resources that allow us to do what we are doing

Therefore, if you are a happy ORCA user, please consider citing a few of the papers listed below in the main body of your paper

In addition to the list printed below, the program has created the file sp_gas.bibtex that contains the list in bibtex format
You can import this file easily into all common literature databanks and citation aid programs


List of essential papers. We consider these as the minimum necessary citations

  1. Neese,F.
     Software update: the ORCA program system, version 5.0
     WIRES Comput. Molec. Sci., 2022 12(1)e1606
     doi.org/10.1002/wcms.1606

List of papers to cite with high priority. The work reported in these papers was absolutely
necessary for this run to complete.
Our perspective: the developers of density functionals and basis sets usually get cited in chemistry papers
Good! But without the algorithms to do something with them, the functionals or basis sets would not do anything.
Hence, in our opinion, the algorithm design and method developments papers are equally worthy of getting cited

  1. Neese,F.
     An improvement of the resolution of the identity approximation for the formation of the Coulomb matrix
     J. Comp. Chem., 2003 24(14)1740-1747
     doi.org/10.1002/jcc.10318
  2. Neese,F.; Wennmohs,F.; Hansen,A.; Becker,U.
     Efficient, approximate and parallel Hartree-Fock and hybrid DFT calculations. A 'chain-of-spheres' algorithm for the Hartree-Fock exchange
     Chem. Phys., 2009 356(1-3)98-109
     doi.org/10.1016/j.chemphys.2008.10.036
  3. Helmich-Paris,B.; de Souza,B.; Neese,F.; Izsák,R.
     An improved chain of spheres for exchange algorithm
     J. Chem. Phys., 2021 155 104109
     doi.org/doi: 10.1063/5.0058766.
  4. Neese,F.
     The SHARK Integral Generation and Digestion System
     J. Comp. Chem., 2022  1-16
     doi.org/10.1002/jcc.26942

List of suggested additional citations. These are papers that are important in the 'surrounding' of 
of this run, or papers that preceded the highly important papers. If you like your results we are grateful for a citation.

  1. Izsak,R.; Neese,F.
     An overlap fitted chain of spheres exchange method
     J. Chem. Phys., 2011 135 144105
     doi.org/10.1063/1.3646921
  2. Izsak,R.; Hansen,A.; Neese,F.
     The resolution of identity and chain of spheres approximations for the LPNO-CCSD singles Fock term
     Molec. Phys., 2012 110 2413-2417
     doi.org/10.1080/00268976.2012.687466
  3. Neese,F.
     The ORCA program system
     WIRES Comput. Molec. Sci., 2012 2(1)73-78
     doi.org/10.1002/wcms.81
  4. Izsak,R.; Neese,F.; Klopper,W.
     Robust fitting techniques in the chain of spheres approximation to the Fock exchange: The role of the complementary space
     J. Chem. Phys., 2013 139 
     doi.org/10.1063/1.4819264
  5. Neese,F.
     Software update: the ORCA program system, version 4.0
     WIRES Comput. Molec. Sci., 2018 8(1)1-6
     doi.org/10.1002/wcms.1327
  6. Neese,F.; Wennmohs,F.; Becker,U.; Riplinger,C.
     The ORCA quantum chemistry program package
     J. Chem. Phys., 2020 152 Art. No. L224108
     doi.org/10.1063/5.0004608

List of optional additional citations

  1. Neese,F.
     Approximate second-order SCF convergence for spin unrestricted wavefunctions
     Chem. Phys. Lett., 2000 325(1-3)93-98
     doi.org/10.1016/s0009-2614(00)00662-x

Timings for individual modules:

Sum of individual times          ...      218.905 sec (=   3.648 min)
Startup calculation              ...        2.480 sec (=   0.041 min)   1.1 %
SCF iterations                   ...      216.291 sec (=   3.605 min)  98.8 %
Property calculations            ...        0.134 sec (=   0.002 min)   0.1 %
                             ****ORCA TERMINATED NORMALLY****
TOTAL RUN TIME: 0 days 0 hours 3 minutes 40 seconds 45 msec
