      -----------------------------------------------------------      
     |                   =====================                   |     
     |                           x T B                           |     
     |                   =====================                   |     
     |                         S. Grimme                         |     
     |          Mulliken Center for Theoretical Chemistry        |     
     |                    University of Bonn                     |     
      -----------------------------------------------------------      

   * xtb version 6.7.1 (edcfbbe) compiled by 'albert@albert-system' on 2024-07-22

   xtb is free software: you can redistribute it and/or modify it under
   the terms of the GNU Lesser General Public License as published by
   the Free Software Foundation, either version 3 of the License, or
   (at your option) any later version.
   
   xtb is distributed in the hope that it will be useful,
   but WITHOUT ANY WARRANTY; without even the implied warranty of
   MERCHANTABILITY or FITNESS FOR A PARTICULAR PURPOSE.  See the
   GNU Lesser General Public License for more details.
   
   Cite this work as:
   * C. Bannwarth, E. Caldeweyher, S. Ehlert, A. Hansen, P. Pracht,
     J. Seibert, S. Spicher, S. Grimme, WIREs Comput. Mol. Sci., 2020, 11,
     e01493. DOI: 10.1002/wcms.1493
   
   for GFN2-xTB:
   * C. Bannwarth, S. Ehlert and S. Grimme., J. Chem. Theory Comput., 2019,
     15, 1652-1671. DOI: 10.1021/acs.jctc.8b01176
   for GFN1-xTB:
   * S. Grimme, C. Bannwarth, P. Shushkov, J. Chem. Theory Comput., 2017,
     13, 1989-2009. DOI: 10.1021/acs.jctc.7b00118
   for GFN0-xTB:
   * P. Pracht, E. Caldeweyher, S. Ehlert, S. Grimme, ChemRxiv, 2019, preprint.
     DOI: 10.26434/chemrxiv.8326202.v1
   for GFN-FF:
   * S. Spicher and S. Grimme, Angew. Chem. Int. Ed., 2020, 59, 15665-15673.
     DOI: 10.1002/anie.202004239
   
   for ALPB and GBSA implicit solvation:
   * S. Ehlert, M. Stahn, S. Spicher, S. Grimme, J. Chem. Theory Comput.,
     2021, 17, 4250-4261. DOI: 10.1021/acs.jctc.1c00471
   
   for ddCOSMO and CPCM-X implicit solvation:
   * M. Stahn, S. Ehlert, S. Grimme, J. Phys. Chem. A,
     2023, XX, XXXX-XXXX. DOI: 10.1021/acs.jpca.3c04382
   
   for DFT-D4:
   * E. Caldeweyher, C. Bannwarth and S. Grimme, J. Chem. Phys., 2017,
     147, 034112. DOI: 10.1063/1.4993215
   * E. Caldeweyher, S. Ehlert, A. Hansen, H. Neugebauer, S. Spicher,
     C. Bannwarth and S. Grimme, J. Chem. Phys., 2019, 150, 154122.
     DOI: 10.1063/1.5090222
   * E. Caldeweyher, J.-M. Mewes, S. Ehlert and S. Grimme, Phys. Chem. Chem. Phys.
     2020, 22, 8499-8512. DOI: 10.1039/D0CP00502A
   
   for sTDA-xTB:
   * S. Grimme and C. Bannwarth, J. Chem. Phys., 2016, 145, 054103.
     DOI: 10.1063/1.4959605
   
   in the mass-spec context:
   * V. Asgeirsson, C. Bauer and S. Grimme, Chem. Sci., 2017, 8, 4879.
     DOI: 10.1039/c7sc00601b
   * J. Koopman and S. Grimme, ACS Omega 2019, 4, 12, 15120-15133.
     DOI: 10.1021/acsomega.9b02011
   
   for metadynamics refer to:
   * S. Grimme, J. Chem. Theory Comput., 2019, 155, 2847-2862
     DOI: 10.1021/acs.jctc.9b00143
   
   for SPH calculations refer to:
   * S. Spicher and S. Grimme, J. Chem. Theory Comput., 2021, 17, 1701-1714
     DOI: 10.1021/acs.jctc.0c01306
   
   for ONIOM refer to:
   * C. Plett, A. Katbashev, S. Ehlert, S. Grimme, M. Bursch,
     Phys. Chem. Chem. Phys., 2023, 25, 17860-17868. DOI: 10.1039/D3CP02178E
   
   for DIPRO refer to:
   * J. Kohn, N. Gildemeister, S. Grimme, D. Fazzi, A. Hansen,
     J. Chem. Phys., 2023, just accepted.
   
   for PTB refer to:
   * S. Grimme, M. Mueller, A. Hansen, J. Chem. Phys., 2023, 158, 124111.
     DOI: 10.1063/5.0137838
   
   with help from (in alphabetical order)
   P. Atkinson, C. Bannwarth, F. Bohle, G. Brandenburg, E. Caldeweyher
   M. Checinski, S. Dohm, S. Ehlert, S. Ehrlich, I. Gerasimov, C. Hölzer
   A. Katbashev, J. Kohn, J. Koopman, C. Lavigne, S. Lehtola, F. März, M. Müller,
   F. Musil, H. Neugebauer, J. Pisarek, C. Plett, P. Pracht, F. Pultar,
   J. Seibert, P. Shushkov, S. Spicher, M. Stahn, M. Steiner, T. Strunk,
   J. Stückrath, T. Rose, and J. Unsleber
   
 * started run on 2025/04/09 at 05:20:47.161     
   ID    Z sym.   atoms
    1    6 C      1, 2, 7, 8, 10, 15, 16, 18, 19
    2    8 O      3, 6, 14, 17
    3   15 P      4, 12
    4   16 S      5, 9, 11, 13
    5    1 H      20-41

           -------------------------------------------------
          |                Calculation Setup                |
           -------------------------------------------------

          program call               : /srv/scratch/z5358697/.xtb/bin/xtb solv.coord --gfn2 --sp --chrg 0 --norestart --parallel 1 --alpb water reference -I xtb_sp-xcontrol-inp
          hostname                   : k163
          coordinate file            : solv.coord
          omp threads                :                     1


           -------------------------------------------------
          |                 G F N 2 - x T B                 |
           -------------------------------------------------

        Reference                      10.1021/acs.jctc.8b01176
      * Hamiltonian:
        H0-scaling (s, p, d)           1.850000    2.230000    2.230000
        zeta-weighting                 0.500000
      * Dispersion:
        s8                             2.700000
        a1                             0.520000
        a2                             5.000000
        s9                             5.000000
      * Repulsion:
        kExp                           1.500000    1.000000
        rExp                           1.000000
      * Coulomb:
        alpha                          2.000000
        third order                    shell-resolved
        anisotropic                    true
        a3                             3.000000
        a5                             4.000000
        cn-shift                       1.200000
        cn-exp                         4.000000
        max-rad                        5.000000

      * Solvation model:               ALPB
        Solvent                        water
        Parameter file                 internal GFN2-xTB/ALPB
        Dielectric constant                8.0200E+01
        Reference state                gsolv=reference [X=1]
        Free energy shift                  2.8945E-03 Eh       1.8164E+00 kcal/mol
        Temperature                        2.9815E+02 K
        Density                            1.0000E+00 kg/L
        Solvent mass                       1.8000E+01 g/mol
        Interaction kernel             P16
        Born radius scaling (c1)           1.4744E+00
        Born radii integrator          GBOBC
        Born offset                        0.0000E+00 a0       0.0000E+00 AA
        H-bond correction              true
        Ion screening                  false
        Surface tension                    1.0000E-05 Eh       1.5569E+01 dyn/cm
        Grid points                               974 per atom

          ...................................................
          :                      SETUP                      :
          :.................................................:
          :  # basis functions                 134          :
          :  # atomic orbitals                 128          :
          :  # shells                           66          :
          :  # electrons                       116          :
          :  max. iterations                   250          :
          :  Hamiltonian                  GFN2-xTB          :
          :  restarted?                      false          :
          :  GBSA solvation                   true          :
          :  PC potential                    false          :
          :  electronic temp.          300.0000000     K    :
          :  accuracy                    1.0000000          :
          :  -> integral cutoff          0.2500000E+02      :
          :  -> integral neglect         0.1000000E-07      :
          :  -> SCF convergence          0.1000000E-05 Eh   :
          :  -> wf. convergence          0.1000000E-03 e    :
          :  Broyden damping             0.4000000          :
          :  net charge                          0          :
          :  unpaired electrons                  0          :
          ...................................................

 iter      E             dE          RMSdq      gap      omega  full diag
   1    -65.4486106 -0.654486E+02  0.633E+00    4.27       0.0  T
   2    -65.5649137 -0.116303E+00  0.359E+00    3.75       1.0  T
   3    -65.5840759 -0.191621E-01  0.107E+00    3.28       1.0  T
   4    -65.5872015 -0.312569E-02  0.513E-01    3.21       1.0  T
   5    -65.5879360 -0.734468E-03  0.266E-01    3.27       1.0  T
   6    -65.5881239 -0.187924E-03  0.123E-01    3.27       1.0  T
   7    -65.5881779 -0.539260E-04  0.428E-02    3.29       1.0  T
   8    -65.5881827 -0.487141E-05  0.183E-02    3.30       1.0  T
   9    -65.5881837 -0.960336E-06  0.619E-03    3.30       2.5  T
  10    -65.5881837 -0.728949E-08  0.284E-03    3.30       5.5  T
  11    -65.5881837 -0.486536E-07  0.899E-04    3.30      17.4  T
  12    -65.5881837 -0.155022E-08  0.432E-04    3.30      36.2  T

   *** convergence criteria satisfied after 12 iterations ***

         #    Occupation            Energy/Eh            Energy/eV
      -------------------------------------------------------------
         1        2.0000           -0.7720756             -21.0092
       ...           ...                  ...                  ...
        52        2.0000           -0.4449901             -12.1088
        53        2.0000           -0.4188631             -11.3978
        54        2.0000           -0.4116656             -11.2020
        55        2.0000           -0.3970141             -10.8033
        56        2.0000           -0.3968026             -10.7975
        57        2.0000           -0.3926467             -10.6845
        58        2.0000           -0.3903629             -10.6223 (HOMO)
        59                         -0.2691995              -7.3253 (LUMO)
        60                         -0.2549296              -6.9370
        61                         -0.2349655              -6.3937
        62                         -0.1998969              -5.4395
        63                         -0.1810662              -4.9271
       ...                                ...                  ...
       128                          1.3720205              37.3346
      -------------------------------------------------------------
                  HL-Gap            0.1211634 Eh            3.2970 eV
             Fermi-level           -0.3297812 Eh           -8.9738 eV

 SCC (total)                   0 d,  0 h,  0 min,  0.071 sec
 SCC setup                      ...        0 min,  0.003 sec (  3.659%)
 Dispersion                     ...        0 min,  0.000 sec (  0.429%)
 classical contributions        ...        0 min,  0.000 sec (  0.080%)
 integral evaluation            ...        0 min,  0.021 sec ( 29.701%)
 iterations                     ...        0 min,  0.024 sec ( 34.253%)
 molecular gradient             ...        0 min,  0.022 sec ( 31.490%)
 printout                       ...        0 min,  0.000 sec (  0.364%)

         :::::::::::::::::::::::::::::::::::::::::::::::::::::
         ::                     SUMMARY                     ::
         :::::::::::::::::::::::::::::::::::::::::::::::::::::
         :: total energy             -65.027656575588 Eh    ::
         :: total w/o Gsasa/hb       -65.030690590852 Eh    ::
         :: gradient norm              0.000170831408 Eh/a0 ::
         :: HOMO-LUMO gap              3.297024833685 eV    ::
         ::.................................................::
         :: SCC energy               -65.586798138406 Eh    ::
         :: -> isotropic ES            0.126876562100 Eh    ::
         :: -> anisotropic ES         -0.019037593535 Eh    ::
         :: -> anisotropic XC          0.030168619528 Eh    ::
         :: -> dispersion             -0.056408917966 Eh    ::
         :: -> Gsolv                  -0.019612517238 Eh    ::
         ::    -> Gelec               -0.022646532502 Eh    ::
         ::    -> Gsasa                0.003907144565 Eh    ::
         ::    -> Ghb                 -0.003767678462 Eh    ::
         ::    -> Gshift               0.002894549160 Eh    ::
         :: repulsion energy           0.559141562818 Eh    ::
         :: add. restraining           0.000000000000 Eh    ::
         :: total charge              -0.000000000000 e     ::
         :::::::::::::::::::::::::::::::::::::::::::::::::::::

           -------------------------------------------------
          |                Property Printout                |
           -------------------------------------------------

    * Orbital Energies and Occupations

         #    Occupation            Energy/Eh            Energy/eV
      -------------------------------------------------------------
         1        2.0000           -0.7720756             -21.0092
       ...           ...                  ...                  ...
        46        2.0000           -0.4714439             -12.8286
        47        2.0000           -0.4605665             -12.5327
        48        2.0000           -0.4597277             -12.5098
        49        2.0000           -0.4578373             -12.4584
        50        2.0000           -0.4533372             -12.3359
        51        2.0000           -0.4509611             -12.2713
        52        2.0000           -0.4449901             -12.1088
        53        2.0000           -0.4188631             -11.3978
        54        2.0000           -0.4116656             -11.2020
        55        2.0000           -0.3970141             -10.8033
        56        2.0000           -0.3968026             -10.7975
        57        2.0000           -0.3926467             -10.6845
        58        2.0000           -0.3903629             -10.6223 (HOMO)
        59                         -0.2691995              -7.3253 (LUMO)
        60                         -0.2549296              -6.9370
        61                         -0.2349655              -6.3937
        62                         -0.1998969              -5.4395
        63                         -0.1810662              -4.9271
        64                         -0.1697433              -4.6190
        65                         -0.1626904              -4.4270
        66                         -0.1595217              -4.3408
        67                         -0.1328079              -3.6139
        68                         -0.1208972              -3.2898
        69                         -0.0508560              -1.3839
       ...                                ...                  ...
       128                          1.3720205              37.3346
      -------------------------------------------------------------
                  HL-Gap            0.1211634 Eh            3.2970 eV
             Fermi-level           -0.3297812 Eh           -8.9738 eV

     #   Z          covCN         q      C6AA      α(0)
     1   6 C        3.751    -0.127    23.001     6.840
     2   6 C        3.832     0.076    19.290     6.249
     3   8 O        1.654    -0.266    18.433     5.796
     4  15 P        3.838     0.387   144.191    21.570
     5  16 S        0.927    -0.466   159.765    21.379
     6   8 O        1.655    -0.270    18.486     5.804
     7   6 C        3.880     0.083    19.158     6.223
     8   6 C        3.752    -0.133    23.126     6.858
     9  16 S        1.985    -0.137   146.815    20.393
    10   6 C        3.799     0.029    20.085     6.381
    11  16 S        1.977    -0.145   147.162    20.418
    12  15 P        3.935     0.387   144.179    21.570
    13  16 S        0.927    -0.469   159.896    21.388
    14   8 O        1.654    -0.263    18.372     5.786
    15   6 C        3.899     0.085    19.123     6.216
    16   6 C        3.751    -0.129    23.046     6.846
    17   8 O        1.656    -0.265    18.407     5.792
    18   6 C        3.902     0.092    19.008     6.197
    19   6 C        3.751    -0.119    22.840     6.816
    20   1 H        0.925     0.065     2.147     2.291
    21   1 H        0.925     0.066     2.133     2.284
    22   1 H        0.925     0.089     1.893     2.152
    23   1 H        0.924     0.088     1.895     2.153
    24   1 H        0.924     0.074     2.046     2.237
    25   1 H        0.924     0.056     2.244     2.342
    26   1 H        0.924     0.066     2.128     2.281
    27   1 H        0.925     0.084     1.941     2.179
    28   1 H        0.925     0.077     2.015     2.220
    29   1 H        0.925     0.068     2.109     2.271
    30   1 H        0.924     0.088     1.896     2.153
    31   1 H        0.925     0.130     1.538     1.939
    32   1 H        0.924     0.087     1.904     2.158
    33   1 H        0.924     0.056     2.251     2.346
    34   1 H        0.925     0.060     2.202     2.320
    35   1 H        0.925     0.071     2.070     2.250
    36   1 H        0.925     0.086     1.923     2.169
    37   1 H        0.924     0.076     2.021     2.223
    38   1 H        0.924     0.060     2.196     2.317
    39   1 H        0.925     0.065     2.144     2.290
    40   1 H        0.925     0.083     1.952     2.185
    41   1 H        0.925     0.058     2.228     2.334

 Mol. C6AA /au·bohr⁶  :      26409.334008
 Mol. C8AA /au·bohr⁸  :     862536.056943
 Mol. α(0) /au        :        257.616640


Wiberg/Mayer (AO) data.
largest (>0.10) Wiberg bond orders for each atom

 ---------------------------------------------------------------------------
     #   Z sym  total        # sym  WBO       # sym  WBO       # sym  WBO
 ---------------------------------------------------------------------------
     1   6 C    3.985 --     2 C    1.023    21 H    0.980    22 H    0.974
                            20 H    0.974
     2   6 C    3.882 --     1 C    1.023    24 H    0.970    23 H    0.965
                             3 O    0.864
     3   8 O    2.395 --     4 P    1.339     2 C    0.864
     4  15 P    5.274 --     5 S    1.508     3 O    1.339     6 O    1.306
                             9 S    0.954
     5  16 S    1.853 --     4 P    1.508     9 S    0.143
     6   8 O    2.386 --     4 P    1.306     7 C    0.889
     7   6 C    3.893 --     8 C    1.018    26 H    0.970    25 H    0.969
                             6 O    0.889
     8   6 C    3.982 --     7 C    1.018    29 H    0.984    28 H    0.982
                            27 H    0.976
     9  16 S    2.288 --    10 C    0.997     4 P    0.954     5 S    0.143
    10   6 C    3.945 --     9 S    0.997    11 S    0.973    31 H    0.953
                            30 H    0.941
    11  16 S    2.273 --    12 P    0.987    10 C    0.973    13 S    0.110
    12  15 P    5.282 --    13 S    1.540    14 O    1.304    17 O    1.296
                            11 S    0.987
    13  16 S    1.830 --    12 P    1.540    11 S    0.110
    14   8 O    2.396 --    12 P    1.304    15 C    0.881
    15   6 C    3.887 --    16 C    1.020    32 H    0.966    33 H    0.963
                            14 O    0.881
    16   6 C    3.984 --    15 C    1.020    35 H    0.983    34 H    0.981
                            36 H    0.976
    17   8 O    2.408 --    12 P    1.296    18 C    0.884
    18   6 C    3.889 --    19 C    1.022    38 H    0.966    37 H    0.966
                            17 O    0.884
    19   6 C    3.987 --    18 C    1.022    39 H    0.981    40 H    0.976
                            41 H    0.973
    20   1 H    0.996 --     1 C    0.974
    21   1 H    0.996 --     1 C    0.980
    22   1 H    0.991 --     1 C    0.974
    23   1 H    0.992 --     2 C    0.965
    24   1 H    0.994 --     2 C    0.970
    25   1 H    0.997 --     7 C    0.969
    26   1 H    0.995 --     7 C    0.970
    27   1 H    0.992 --     8 C    0.976
    28   1 H    0.994 --     8 C    0.982
    29   1 H    0.995 --     8 C    0.984
    30   1 H    0.992 --    10 C    0.941
    31   1 H    0.980 --    10 C    0.953
    32   1 H    0.992 --    15 C    0.966
    33   1 H    0.997 --    15 C    0.963
    34   1 H    0.996 --    16 C    0.981
    35   1 H    0.995 --    16 C    0.983
    36   1 H    0.992 --    16 C    0.976
    37   1 H    0.994 --    18 C    0.966
    38   1 H    0.996 --    18 C    0.966
    39   1 H    0.996 --    19 C    0.981
    40   1 H    0.993 --    19 C    0.976
    41   1 H    0.997 --    19 C    0.973
 ---------------------------------------------------------------------------

Topologies differ in total number of bonds
Writing topology from bond orders to xtbtopo.mol

molecular dipole:
                 x           y           z       tot (Debye)
 q only:        3.457       0.817      -0.719
   full:        3.632       0.934      -0.044       9.532
molecular quadrupole (traceless):
                xx          xy          yy          xz          yz          zz
 q only:       -1.940      10.372       6.121      -5.621       3.998      -4.181
  q+dip:       -4.610      10.454       4.979      -5.523       6.403      -0.369
   full:       -4.955      10.501       5.231      -5.497       6.203      -0.276


           -------------------------------------------------
          | TOTAL ENERGY              -65.027656575588 Eh   |
          | GRADIENT NORM               0.000170831408 Eh/α |
          | HOMO-LUMO GAP               3.297024833685 eV   |
           -------------------------------------------------

------------------------------------------------------------------------
 * finished run on 2025/04/09 at 05:20:47.281     
------------------------------------------------------------------------
 total:
 * wall-time:     0 d,  0 h,  0 min,  0.119 sec
 *  cpu-time:     0 d,  0 h,  0 min,  0.072 sec
 * ratio c/w:     0.605 speedup
 SCF:
 * wall-time:     0 d,  0 h,  0 min,  0.072 sec
 *  cpu-time:     0 d,  0 h,  0 min,  0.059 sec
 * ratio c/w:     0.821 speedup

