
                                 *****************
                                 * O   R   C   A *
                                 *****************

                                            #,                                       
                                            ###                                      
                                            ####                                     
                                            #####                                    
                                            ######                                   
                                           ########,                                 
                                     ,,################,,,,,                         
                               ,,#################################,,                 
                          ,,##########################################,,             
                       ,#########################################, ''#####,          
                    ,#############################################,,   '####,        
                  ,##################################################,,,,####,       
                ,###########''''           ''''###############################       
              ,#####''   ,,,,##########,,,,          '''####'''          '####       
            ,##' ,,,,###########################,,,                        '##       
           ' ,,###''''                  '''############,,,                           
         ,,##''                                '''############,,,,        ,,,,,,###''
      ,#''                                            '''#######################'''  
     '                                                          ''''####''''         
             ,#######,   #######,   ,#######,      ##                                
            ,#'     '#,  ##    ##  ,#'     '#,    #''#        ,####,   ,####,        
            ##       ##  ##   ,#'  ##            #'  '#       #'       #'  '#        
            ##       ##  #######   ##           ,######,      #####,   #    #        
            '#,     ,#'  ##    ##  '#,     ,#' ,#      #,     #,   #   #,  ,#        
             '#######'   ##     ##  '#######'  #'      '#     '####' # '####'        



                #########################################################
                #                        -***-                          #
                #          Department of theory and spectroscopy        #
                #                                                       #
                #                      Frank Neese                      #
                #                                                       #
                #     Directorship, Architecture, Infrastructure        #
                #                    SHARK, DRIVERS                     #
                #        Core code/Algorithms in most modules           #
                #                                                       #
                #        Max Planck Institute fuer Kohlenforschung      #
                #                Kaiser Wilhelm Platz 1                 #
                #                 D-45470 Muelheim/Ruhr                 #
                #                      Germany                          #
                #                                                       #
                #                  All rights reserved                  #
                #                        -***-                          #
                #########################################################


                         Program Version 6.0.1  -  RELEASE   -


 With contributions from (in alphabetic order):
[Max-Planck-Institut fuer Kohlenforschung]                               
  Daniel Aravena         : Magnetic Suceptibility                        
  Michael Atanasov       : Ab Initio Ligand Field Theory (pilot matlab implementation)
  Alexander A. Auer      : GIAO ZORA, VPT2 properties, NMR spectrum      
  Ute Becker             : All parallelization in ORCA, NUMFREQ, NUMCALC 
  Giovanni Bistoni       : ED, misc. LED, open-shell LED, HFLD           
  Martin Brehm           : Molecular dynamics                            
  Dmytro Bykov           : pre 5.0 version of the SCF Hessian            
  Marcos Casanova-Páez   : Triplet and SCS-CIS(D). UHF-(DLPNO)-IP/EA/STEOM-CCSD. UHF-CVS-IP/STEOM-CCSD   
  Vijay G. Chilkuri      : MRCI spin determinant printing, contributions to CSF-ICE 
  Pauline Colinet        : FMM embedding                                 
  Dipayan Datta          : RHF DLPNO-CCSD density                        
  Achintya Kumar Dutta   : EOM-CC, STEOM-CC                              
  Nicolas Foglia         : Exact transition moments, OPA infrastructure, MCD improvements    
  Dmitry Ganyushin       : Spin-Orbit,Spin-Spin,Magnetic field MRCI      
  Miquel Garcia-Rates    : C-PCM and meta-GGA Hessian, CCSD/C-PCM, Gaussian charge scheme 
  Tiago L. C. Gouveia    : GS-ROHF, GS-ROCIS                             
  Yang Guo               : DLPNO-NEVPT2, F12-NEVPT2, CIM, IAO-localization        
  Andreas Hansen         : Spin unrestricted coupled pair/coupled cluster methods 
  Ingolf Harden          : AUTO-CI MPn and infrastructure                
  Benjamin Helmich-Paris : MC-RPA, TRAH-(SCF,CASSCF), AVAS, COSX integrals, SCF dyn. polar. 
  Lee Huntington         : MR-EOM, pCC                                   
  Robert Izsak           : Overlap fitted RIJCOSX, COSX-SCS-MP3, EOM     
  Riya Kayal             : Wick's Theorem for AUTO-CI, AUTO-CI UHF-CCSDT 
  Emily Kempfer          : AUTO-CI, RHF CISDT and CCSDT                  
  Christian Kollmar      : KDIIS, OOCD, Brueckner-CCSD(T), CCSD density, CASPT2, CASPT2-K, improved NEVPT2 
  Axel Koslowski         : Symmetry handling                             
  Simone Kossmann        : meta-GGA functionals, TD-DFT gradient, OOMP2, (MP2 Hessian; deprecated post 5.0) 
  Lucas Lang             : DCDCAS                                        
  Marvin Lechner         : AUTO-CI (C++ implementation), FIC-MRCC        
  Spencer Leger          : CASSCF response                               
  Dagmar Lenk            : GEPOL surface, SMD, ORCA-2-JSON               
  Dimitrios Liakos       : Extrapolation schemes; Compound Job, initial MDCI parallelization 
  Dimitrios Manganas     : Further ROCIS development; embedding schemes. LFT, Crystal Embedding 
  Dimitrios Pantazis     : SARC Basis sets                               
  Anastasios Papadopoulos: AUTO-CI, single reference methods and gradients 
  Taras Petrenko         : pre 6.0 DFT Hessian and TD-DFT gradient, (ASA, deprecated), ECA, 1-Electron XAS/XES, NRVS 
  Peter Pinski           : DLPNO-MP2, DLPNO-MP2 Gradient                 
  Christoph Reimann      : Effective Core Potentials                     
  Marius Retegan         : Local ZFS, SOC                                
  Christoph Riplinger    : Optimizer, TS searches, QM/MM, DLPNO-CCSD(T), (RO)-DLPNO pert. Triples 
  Michael Roemelt        : Original ROCIS implementation                 
  Masaaki Saitow         : Open-shell DLPNO-CCSD energy and density      
  Barbara Sandhoefer     : DKH picture change effects                    
  Kantharuban Sivalingam : CASSCF convergence/infrastructure, NEVPT2 and variants, FIC-MRCI 
  Bernardo de Souza      : ESD, SOC TD-DFT                               
  Georgi L. Stoychev     : AutoAux, RI-MP2 NMR, DLPNO-MP2 response, X2C  
  Van Anh Tran           : RI-MP2 g-tensors                              
  Willem Van den Heuvel  : Paramagnetic NMR                              
  Zikuan Wang            : NOTCH, Electric field optimization            
  Frank Wennmohs         : Technical directorship and infrastructure     
  Hang Xu                : AUTO-CI-Response properties                   
                                                                         
[FACCTs GmbH]                                                            
  Markus Bursch, Miquel Garcia-Rates, Christoph Riplinger, Bernardo de Souza, Georgi L. Stoychev 
                                                                 
  APM, Basis sets (HGBS, AHGBS, def-TZVP (Ac-Lr), def2-XVPD (La-Lu)), CI-OPT, improved COSX, DLPNO-Multilevel,           
  DOCKER, DRACO, updates on ESD, GOAT, IRC, LR-CPCM, MBIS, meta-GGA TD-DFT gradient, ML-optimized integration grids, 
  MM, NACMEs, nearIR, NEB, NEB-TS, NL-DFT gradient (VV10), 2- and 3-layer-ONIOM, interface openCOSMO-RS, QMMM,   
  Crystal-QMMM, SF, symmetry and pop. for TD-DFT, r2SCAN hybrids, SOLVATOR                                   
                                                                         
[Other institutions]                                                     
  V. Asgeirsson          : NEB                                           
  Christoph Bannwarth    : sTDA-DFT, sTD-DFT, PBEh-3c, B97-3c, D3        
  Sebastian Ehlert       : rSCAN, r2SCAN, r2SCAN-3c, D4, dhf basis sets  
  Marvin Friede          : D4 for Fr, Ra, Ac-Lr                          
  Lars Goerigk           : TD-DFT with DH, B97 family of functionals     
  Stefan Grimme          : VdW corrections, initial TS optimization, DFT functionals, gCP, sTDA/sTD-DF 
  Waldemar Hujo          : DFT-NL                                        
  H. Jonsson             : NEB                                           
  Holger Kruse           : gCP                                           
  Marcel Mueller         : wB97X-3c, vDZP basis set                      
  Hagen Neugebauer       : wr2SCAN                                       
  Tobias Risthaus        : range-separated hybrid DFT                    
  Lukas Wittmann         : regularized MP2, r2SCAN double-hybrids, wr2SCAN        
                                                                         
We gratefully acknowledge several colleagues who have allowed us to      
interface, adapt or use parts of their codes:                            
  Ed Valeev, F. Pavosevic, A. Kumar             : LibInt (2-el integral package), F12 methods 
  Garnet Chan, S. Sharma, J. Yang, R. Olivares  : DMRG                   
  Ulf Ekstrom                                   : XCFun DFT Library      
  Mihaly Kallay                                 : mrcc  (arbitrary order and MRCC methods)
  Frank Weinhold                                : gennbo (NPA and NBO analysis)           
  Simon Mueller                                 : openCOSMO-RS                            
  Christopher J. Cramer and Donald G. Truhlar   : smd solvation model                     
  S Lehtola, MJT Oliveira, MAL Marques          : LibXC Library                           
  Liviu Ungur et al                             : ANISO software                          


 Your calculation uses the libint2 library for the computation of 2-el integrals
 For citations please refer to: http://libint.valeyev.net

 Your ORCA version has been built with support for libXC version: 6.2.2
 For citations please refer to: https://libxc.gitlab.io

 This ORCA versions uses:
   CBLAS   interface :  Fast vector & matrix operations
   LAPACKE interface :  Fast linear algebra routines
   SCALAPACK package :  Parallel linear algebra routines
   Shared memory     :  Shared parallel matrices
   BLAS/LAPACK       :  OpenBLAS 0.3.27  USE64BITINT DYNAMIC_ARCH NO_AFFINITY Zen SINGLE_THREADED
        Core in use  :  Zen
   Copyright (c) 2011-2014, The OpenBLAS Project


Your calculation utilizes the geometrical counterpoise correction gCP
Please cite in your paper:
H.Kruse, S. Grimme J.Chem.Phys., 136, (2012), 154101 
   

Your calculation utilizes the atom-pairwise dispersion correction
based on EEQ partial charges (D4)


================================================================================

----- Orbital basis set information -----
Your calculation utilizes the basis: def2-SV(P)
   F. Weigend and R. Ahlrichs, Phys. Chem. Chem. Phys. 7, 3297 (2005).

----- AuxJ basis set information -----
Your calculation utilizes the auxiliary basis: def2/J
   F. Weigend, Phys. Chem. Chem. Phys. 8, 1057 (2006).

================================================================================
                                        WARNINGS
                       Please study these warnings very carefully!
================================================================================

WARNING: Old DensityContainer found on disk!
         Will remove this file - 
         If you want to keep old densities, please start your calculation with a different basename. 


================================================================================
                                       INPUT FILE
================================================================================
NAME = sp.inp
|  1> ! pbe def2-sv(p) def2/J RI DEFGRID1 loosescf d4 GCP(DFT/SV(P)) printgap
|  2> %output
|  3>     printlevel normal
|  4> end
|  5> * xyz 0 1
|  6> C 4.2407263867 -2.4055449684 0.8047283393
|  7> C 2.7573971609 -2.295238927 0.5134627779
|  8> O 2.5688568183 -1.2480882829 -0.4578577087
|  9> C 1.4185764008 -1.1738027513 -1.0850877622
| 10> O 0.4831703743 -1.929447226 -0.9038484366
| 11> C 1.3814674164 -0.0293884119 -2.0761214074
| 12> C 0.2932020331 0.97530362 -1.6956817626
| 13> H 0.2164117839 1.7396525652 -2.4755774304
| 14> C 0.5453650177 1.6807829702 -0.3754827367
| 15> O -0.3608908685 1.9870449301 0.3749248187
| 16> O 1.8118286876 1.9105186102 -0.1664096005
| 17> C 2.1948313738 2.5687172672 1.0600351379
| 18> C 2.0376995116 4.0754138735 0.9440646706
| 19> S -1.3759327232 0.237171022 -1.6289964148
| 20> P -1.6639120218 -0.2749079703 0.4213204366
| 21> S -0.2799887337 -0.6264554619 1.7643523799
| 22> O -2.7145687879 0.7579714681 1.0026677179
| 23> C -3.9120873494 1.1492813293 0.3096462148
| 24> O -2.6580059604 -1.5239701039 0.2283033704
| 25> C -2.2455196526 -2.841153575 -0.1331322932
| 26> H 4.7833543233 -2.6470432962 -0.1044560505
| 27> H 4.6120911254 -1.465002399 1.1991429055
| 28> H 4.4013773709 -3.188421707 1.5381405449
| 29> H 2.1814822519 -2.0331749259 1.4072200588
| 30> H 2.3492713692 -3.2233246636 0.1007926566
| 31> H 1.1447094212 -0.4379273471 -3.0592707391
| 32> H 2.3511102911 0.4663819595 -2.0874235593
| 33> H 1.5817954656 2.1678297501 1.8727506569
| 34> H 3.237482686 2.2828381689 1.1959631713
| 35> H 0.9893882964 4.3346770276 0.8139302931
| 36> H 2.4027200217 4.5407115303 1.8535354387
| 37> H 2.6067193853 4.4473763817 0.0966272346
| 38> H -3.6574591227 1.6036224742 -0.6480209574
| 39> H -4.3890830919 1.8745244575 0.9637309113
| 40> H -4.552863679 0.2824906111 0.1557029972
| 41> H -3.1123425839 -3.4739821527 0.040257615
| 42> H -1.406189001 -3.1556800584 0.4875013668
| 43> H -1.9449969293 -2.8657204807 -1.1796284897
| 44> *
| 45> 
| 46>                          ****END OF INPUT****
================================================================================

                       ****************************
                       * Single Point Calculation *
                       ****************************

---------------------------------
CARTESIAN COORDINATES (ANGSTROEM)
---------------------------------
  C      4.240726   -2.405545    0.804728
  C      2.757397   -2.295239    0.513463
  O      2.568857   -1.248088   -0.457858
  C      1.418576   -1.173803   -1.085088
  O      0.483170   -1.929447   -0.903848
  C      1.381467   -0.029388   -2.076121
  C      0.293202    0.975304   -1.695682
  H      0.216412    1.739653   -2.475577
  C      0.545365    1.680783   -0.375483
  O     -0.360891    1.987045    0.374925
  O      1.811829    1.910519   -0.166410
  C      2.194831    2.568717    1.060035
  C      2.037700    4.075414    0.944065
  S     -1.375933    0.237171   -1.628996
  P     -1.663912   -0.274908    0.421320
  S     -0.279989   -0.626455    1.764352
  O     -2.714569    0.757971    1.002668
  C     -3.912087    1.149281    0.309646
  O     -2.658006   -1.523970    0.228303
  C     -2.245520   -2.841154   -0.133132
  H      4.783354   -2.647043   -0.104456
  H      4.612091   -1.465002    1.199143
  H      4.401377   -3.188422    1.538141
  H      2.181482   -2.033175    1.407220
  H      2.349271   -3.223325    0.100793
  H      1.144709   -0.437927   -3.059271
  H      2.351110    0.466382   -2.087424
  H      1.581795    2.167830    1.872751
  H      3.237483    2.282838    1.195963
  H      0.989388    4.334677    0.813930
  H      2.402720    4.540712    1.853535
  H      2.606719    4.447376    0.096627
  H     -3.657459    1.603622   -0.648021
  H     -4.389083    1.874524    0.963731
  H     -4.552864    0.282491    0.155703
  H     -3.112343   -3.473982    0.040258
  H     -1.406189   -3.155680    0.487501
  H     -1.944997   -2.865720   -1.179628

----------------------------
CARTESIAN COORDINATES (A.U.)
----------------------------
  NO LB      ZA    FRAG     MASS         X           Y           Z
   0 C     6.0000    0    12.011    8.013811   -4.545821    1.520716
   1 C     6.0000    0    12.011    5.210725   -4.337373    0.970304
   2 O     8.0000    0    15.999    4.854436   -2.358545   -0.865226
   3 C     6.0000    0    12.011    2.680721   -2.218166   -2.050519
   4 O     8.0000    0    15.999    0.913060   -3.646127   -1.708026
   5 C     6.0000    0    12.011    2.610595   -0.055536   -3.923301
   6 C     6.0000    0    12.011    0.554072    1.843057   -3.204374
   7 H     1.0000    0     1.008    0.408959    3.287467   -4.678163
   8 C     6.0000    0    12.011    1.030591    3.176220   -0.709560
   9 O     8.0000    0    15.999   -0.681985    3.754971    0.708505
  10 O     8.0000    0    15.999    3.423860    3.610357   -0.314469
  11 C     6.0000    0    12.011    4.147630    4.854172    2.003176
  12 C     6.0000    0    12.011    3.850694    7.701416    1.784024
  13 S    16.0000    0    32.060   -2.600136    0.448188   -3.078357
  14 P    15.0000    0    30.974   -3.144338   -0.519501    0.796180
  15 S    16.0000    0    32.060   -0.529102   -1.183829    3.334143
  16 O     8.0000    0    15.999   -5.129792    1.432358    1.894767
  17 C     6.0000    0    12.011   -7.392774    2.171827    0.585147
  18 O     8.0000    0    15.999   -5.022903   -2.879886    0.431431
  19 C     6.0000    0    12.011   -4.243417   -5.369002   -0.251584
  20 H     1.0000    0     1.008    9.039230   -5.002187   -0.197393
  21 H     1.0000    0     1.008    8.715589   -2.768453    2.266052
  22 H     1.0000    0     1.008    8.317398   -6.025244    2.906664
  23 H     1.0000    0     1.008    4.122404   -3.842144    2.659261
  24 H     1.0000    0     1.008    4.439480   -6.091201    0.190471
  25 H     1.0000    0     1.008    2.163187   -0.827563   -5.781184
  26 H     1.0000    0     1.008    4.442955    0.881334   -3.944659
  27 H     1.0000    0     1.008    2.989160    4.096605    3.538986
  28 H     1.0000    0     1.008    6.117956    4.313939    2.260043
  29 H     1.0000    0     1.008    1.869673    8.191352    1.538105
  30 H     1.0000    0     1.008    4.540483    8.580701    3.502674
  31 H     1.0000    0     1.008    4.925986    8.404323    0.182599
  32 H     1.0000    0     1.008   -6.911596    3.030407   -1.224582
  33 H     1.0000    0     1.008   -8.294165    3.542338    1.821187
  34 H     1.0000    0     1.008   -8.603665    0.533830    0.294236
  35 H     1.0000    0     1.008   -5.881475   -6.564875    0.076076
  36 H     1.0000    0     1.008   -2.657312   -5.963371    0.921244
  37 H     1.0000    0     1.008   -3.675512   -5.415427   -2.229175

--------------------------------
INTERNAL COORDINATES (ANGSTROEM)
--------------------------------
 C      0   0   0     0.000000000000     0.00000000     0.00000000
 C      1   0   0     1.515674319285     0.00000000     0.00000000
 O      2   1   0     1.440671864067   108.09163324     0.00000000
 C      3   2   1     1.312280808022   118.56221787   164.71484304
 O      4   3   2     1.216071831637   124.59939978     0.26674853
 C      4   3   2     1.514334488436   112.15167587   180.36492994
 C      6   4   3     1.529203043022   110.55695961   241.80894461
 H      7   6   4     1.094697814492   109.35491771   185.55985735
 C      7   6   4     1.517963356721   113.79692478    64.87905819
 O      9   7   6     1.215815618651   122.00823494   214.99016249
 O      9   7   6     1.304001636404   112.49853861    35.29779370
 C     11   9   7     1.443635420064   118.30742789   180.45874031
 C     12  11   9     1.519300574225   111.09175654   277.59838467
 S      7   6   4     1.826279689021   113.20118635   301.15814152
 P     14   7   6     2.132828207313   104.80589323    94.96006241
 S     15  14   7     1.960245930214   127.32692252   336.06923077
 O     15  14   7     1.583882645873   106.60884272   107.78954307
 C     17  15  14     1.437864011779   123.57500785    44.00255755
 O     15  14   7     1.607990845807    98.89257631   209.03971248
 C     19  15  14     1.426798160072   124.66572511    79.44649747
 H      1   2   3     1.085993910924   110.13900414   299.86055661
 H      1   2   3     1.085400821832   109.97501576    60.03965911
 H      1   2   3     1.084711108954   109.11118700   179.80661505
 H      2   1   3     1.095060546382   112.04106210   241.23198184
 H      2   1   3     1.094626157802   112.06331307   119.21194664
 H      6   4   3     1.090660817251   108.18984292   123.23269332
 H      6   4   3     1.089092881371   109.20741106     2.59972195
 H     12  11   9     1.094088817662   108.38225935    40.08949334
 H     12  11   9     1.089644459418   103.89965004   157.43217863
 H     13  12  11     1.087708022953   110.19339988    64.79664044
 H     13  12  11     1.084840522955   109.06005833   184.16758054
 H     13  12  11     1.086411492993   110.17621801   304.16022197
 H     18  17  15     1.090132020670   110.01737504   300.29469008
 H     18  17  15     1.086889747656   104.89484976   181.23341180
 H     18  17  15     1.088861317147   109.97528059    61.83789426
 H     20  19  15     1.087160550814   105.45401998   167.64208636
 H     20  19  15     1.090224284907   110.16313669    48.03799166
 H     20  19  15     1.089069203203   110.12179648   287.59112387

---------------------------
INTERNAL COORDINATES (A.U.)
---------------------------
 C      0   0   0     0.000000000000     0.00000000     0.00000000
 C      1   0   0     2.864209371666     0.00000000     0.00000000
 O      2   1   0     2.722475271933   108.09163324     0.00000000
 C      3   2   1     2.479851337962   118.56221787   164.71484304
 O      4   3   2     2.298042720970   124.59939978     0.26674853
 C      4   3   2     2.861677458295   112.15167587   180.36492994
 C      6   4   3     2.889774954471   110.55695961   241.80894461
 H      7   6   4     2.068679068792   109.35491771   185.55985735
 C      7   6   4     2.868535025531   113.79692478    64.87905819
 O      9   7   6     2.297558548594   122.00823494   214.99016249
 O      9   7   6     2.464205970988   112.49853861    35.29779370
 C     11   9   7     2.728075581148   118.30742789   180.45874031
 C     12  11   9     2.871062000394   111.09175654   277.59838467
 S      7   6   4     3.451168456192   113.20118635   301.15814152
 P     14   7   6     4.030461202525   104.80589323    94.96006241
 S     15  14   7     3.704327963238   127.32692252   336.06923077
 O     15  14   7     2.993104428970   106.60884272   107.78954307
 C     17  15  14     2.717169200083   123.57500785    44.00255755
 O     15  14   7     3.038662324428    98.89257631   209.03971248
 C     19  15  14     2.696257770918   124.66572511    79.44649747
 H      1   2   3     2.052231074753   110.13900414   299.86055661
 H      1   2   3     2.051110298796   109.97501576    60.03965911
 H      1   2   3     2.049806930345   109.11118700   179.80661505
 H      2   1   3     2.069364532724   112.04106210   241.23198184
 H      2   1   3     2.068543657273   112.06331307   119.21194664
 H      6   4   3     2.061050249604   108.18984292   123.23269332
 H      6   4   3     2.058087280194   109.20741106     2.59972195
 H     12  11   9     2.067528231567   108.38225935    40.08949334
 H     12  11   9     2.059129611645   103.89965004   157.43217863
 H     13  12  11     2.055470277049   110.19339988    64.79664044
 H     13  12  11     2.050051487365   109.06005833   184.16758054
 H     13  12  11     2.053020190500   110.17621801   304.16022197
 H     18  17  15     2.060050968885   110.01737504   300.29469008
 H     18  17  15     2.053923960837   104.89484976   181.23341180
 H     18  17  15     2.057649687228   109.97528059    61.83789426
 H     20  19  15     2.054435704642   105.45401998   167.64208636
 H     20  19  15     2.060225323024   110.16313669    48.03799166
 H     20  19  15     2.058042534941   110.12179648   287.59112387

---------------------
BASIS SET INFORMATION
---------------------
There are 5 groups of distinct atoms

 Group   1 Type C   : 7s4p1d contracted to 3s2p1d pattern {511/31/1}
 Group   2 Type O   : 7s4p1d contracted to 3s2p1d pattern {511/31/1}
 Group   3 Type H   : 4s contracted to 2s pattern {31}
 Group   4 Type S   : 10s7p1d contracted to 4s3p1d pattern {5311/511/1}
 Group   5 Type P   : 10s7p1d contracted to 4s3p1d pattern {5311/511/1}

Atom   0C    basis set group =>   1
Atom   1C    basis set group =>   1
Atom   2O    basis set group =>   2
Atom   3C    basis set group =>   1
Atom   4O    basis set group =>   2
Atom   5C    basis set group =>   1
Atom   6C    basis set group =>   1
Atom   7H    basis set group =>   3
Atom   8C    basis set group =>   1
Atom   9O    basis set group =>   2
Atom  10O    basis set group =>   2
Atom  11C    basis set group =>   1
Atom  12C    basis set group =>   1
Atom  13S    basis set group =>   4
Atom  14P    basis set group =>   5
Atom  15S    basis set group =>   4
Atom  16O    basis set group =>   2
Atom  17C    basis set group =>   1
Atom  18O    basis set group =>   2
Atom  19C    basis set group =>   1
Atom  20H    basis set group =>   3
Atom  21H    basis set group =>   3
Atom  22H    basis set group =>   3
Atom  23H    basis set group =>   3
Atom  24H    basis set group =>   3
Atom  25H    basis set group =>   3
Atom  26H    basis set group =>   3
Atom  27H    basis set group =>   3
Atom  28H    basis set group =>   3
Atom  29H    basis set group =>   3
Atom  30H    basis set group =>   3
Atom  31H    basis set group =>   3
Atom  32H    basis set group =>   3
Atom  33H    basis set group =>   3
Atom  34H    basis set group =>   3
Atom  35H    basis set group =>   3
Atom  36H    basis set group =>   3
Atom  37H    basis set group =>   3
---------------------------------
AUXILIARY/J BASIS SET INFORMATION
---------------------------------
There are 5 groups of distinct atoms

 Group   1 Type C   : 12s5p4d2f1g contracted to 6s4p3d1f1g pattern {711111/2111/211/2/1}
 Group   2 Type O   : 12s5p4d2f1g contracted to 6s4p3d1f1g pattern {711111/2111/211/2/1}
 Group   3 Type H   : 5s2p1d contracted to 3s1p1d pattern {311/2/1}
 Group   4 Type S   : 14s5p5d2f1g contracted to 8s4p3d1f1g pattern {71111111/2111/311/2/1}
 Group   5 Type P   : 14s5p5d2f1g contracted to 8s4p3d1f1g pattern {71111111/2111/311/2/1}

Atom   0C    basis set group =>   1
Atom   1C    basis set group =>   1
Atom   2O    basis set group =>   2
Atom   3C    basis set group =>   1
Atom   4O    basis set group =>   2
Atom   5C    basis set group =>   1
Atom   6C    basis set group =>   1
Atom   7H    basis set group =>   3
Atom   8C    basis set group =>   1
Atom   9O    basis set group =>   2
Atom  10O    basis set group =>   2
Atom  11C    basis set group =>   1
Atom  12C    basis set group =>   1
Atom  13S    basis set group =>   4
Atom  14P    basis set group =>   5
Atom  15S    basis set group =>   4
Atom  16O    basis set group =>   2
Atom  17C    basis set group =>   1
Atom  18O    basis set group =>   2
Atom  19C    basis set group =>   1
Atom  20H    basis set group =>   3
Atom  21H    basis set group =>   3
Atom  22H    basis set group =>   3
Atom  23H    basis set group =>   3
Atom  24H    basis set group =>   3
Atom  25H    basis set group =>   3
Atom  26H    basis set group =>   3
Atom  27H    basis set group =>   3
Atom  28H    basis set group =>   3
Atom  29H    basis set group =>   3
Atom  30H    basis set group =>   3
Atom  31H    basis set group =>   3
Atom  32H    basis set group =>   3
Atom  33H    basis set group =>   3
Atom  34H    basis set group =>   3
Atom  35H    basis set group =>   3
Atom  36H    basis set group =>   3
Atom  37H    basis set group =>   3

Checking for AutoStart:
The File: sp.gbw exists
Trying to determine its content:
     ... Fine, the file contains calculation information
     ... Fine, the calculation information was read
     ... Fine, the file contains a basis set
     ... Fine, the basis set was read
     ... Fine, the file contains a geometry
     ... Fine, the geometry was read
     ... Fine, the file contains a set of orbitals
     ... Fine, the orbitals can be read
     => possible old guess file was deleted
     => GBW file was renamed to GES file
     => GES file is set as startup file
     => Guess is set to MORead
     ... now leaving AutoStart

------------------------------------------------------------------------------
                             ORCA STARTUP CALCULATIONS
                           -- RI-GTO INTEGRALS CHOSEN --
------------------------------------------------------------------------------
------------------------------------------------------------------------------
                   ___                                                        
                  /   \      - P O W E R E D   B Y -                         
                 /     \                                                     
                 |  |  |   _    _      __       _____    __    __             
                 |  |  |  | |  | |    /  \     |  _  \  |  |  /  |          
                  \  \/   | |  | |   /    \    | | | |  |  | /  /          
                 / \  \   | |__| |  /  /\  \   | |_| |  |  |/  /          
                |  |  |   |  __  | /  /__\  \  |    /   |      \           
                |  |  |   | |  | | |   __   |  |    \   |  |\   \          
                \     /   | |  | | |  |  |  |  | |\  \  |  | \   \       
                 \___/    |_|  |_| |__|  |__|  |_| \__\ |__|  \__/        
                                                                              
                      - O R C A' S   B I G   F R I E N D -                    
                                      &                                       
                       - I N T E G R A L  F E E D E R -                       
                                                                              
 v1 FN, 2020, v2 2021, v3 2022-2024                                           
------------------------------------------------------------------------------


----------------------
SHARK INTEGRAL PACKAGE
----------------------

Number of atoms                             ...     38
Number of basis functions                   ...    316
Number of shells                            ...    158
Maximum angular momentum                    ...      2
Integral batch strategy                     ... SHARK/LIBINT Hybrid
RI-J (if used) integral strategy            ... SPLIT-RIJ (Revised 2003 algorithm where possible)
Printlevel                                  ...      1
Contraction scheme used                     ... SEGMENTED contraction
Prescreening option                         ... SCHWARTZ
   Thresh                                   ... 1.000e-09
   Tcut                                     ... 1.000e-10
   Tpresel                                  ... 1.000e-10 
Coulomb Range Separation                    ... NOT USED
Exchange Range Separation                   ... NOT USED
Multipole approximations                    ... NOT USED
Finite Nucleus Model                        ... NOT USED
CABS basis                                  ... NOT available
Auxiliary Coulomb fitting basis             ... AVAILABLE
   # of basis functions in Aux-J            ...   1146
   # of shells in Aux-J                     ...    386
   Maximum angular momentum in Aux-J        ...      4
Auxiliary J/K fitting basis                 ... NOT available
Auxiliary Correlation fitting basis         ... NOT available
Auxiliary 'external' fitting basis          ... NOT available

Checking pre-screening integrals            ... done (  0.0 sec) Dimension = 158
Check shell pair data                       ... done (  0.0 sec)
Shell pair information
Shell pair cut-off parameter TPreSel        ...   1.0e-10
Total number of shell pairs                 ...     12561
Shell pairs after pre-screening             ...      9692
Total number of primitive shell pairs       ...     52337
Primitive shell pairs kept                  ...     23718
          la=0 lb=0:   3620 shell pairs
          la=1 lb=0:   3275 shell pairs
          la=1 lb=1:    769 shell pairs
          la=2 lb=0:   1291 shell pairs
          la=2 lb=1:    616 shell pairs
          la=2 lb=2:    121 shell pairs

Calculating one electron integrals          ... done (  0.1 sec)
Calculating RI/J V-Matrix + Cholesky decomp.... done (  0.1 sec)
Calculating Nuclear repulsion               ... done (  0.0 sec) ENN=   2243.913048255106 Eh

Diagonalization of the overlap matrix:
Smallest eigenvalue                        ... 1.384e-03
Time for diagonalization                   ...    0.011 sec
Threshold for overlap eigenvalues          ... 1.000e-07
Number of eigenvalues below threshold      ... 0
Time for construction of square roots      ...    0.006 sec
Total time needed                          ...    0.019 sec

-------------------
DFT GRID GENERATION
-------------------

General Integration Accuracy     IntAcc      ... 4.159
Radial Grid Type                 RadialGrid  ... OptM3 with GC (2021)
Angular Grid (max. ang.)         AngularGrid ... 3 (Lebedev-194)
Angular grid pruning method      GridPruning ... 4 (adaptive)
Weight generation scheme         WeightScheme... mBecke (2022)
Basis function cutoff            BFCut       ... 1.0000e-10
Integration weight cutoff        WCut        ... 1.0000e-14
Partially contracted basis set               ... off
Rotationally invariant grid construction     ... off
Angular grids for H and He will be reduced by one unit

Total number of grid points                  ...    90794
Total number of batches                      ...     1438
Average number of points per batch           ...       63
Average number of grid points per atom       ...     2389
Initializing property integral containers    ... done (  0.0 sec)

SHARK setup successfully completed in   1.3 seconds

Maximum memory used throughout the entire STARTUP-calculation: 50.0 MB
-------------------------------------------------------------------------------
                                 ORCA GUESS
                   Start orbitals & Density for SCF / CASSCF
-------------------------------------------------------------------------------

------------
SCF SETTINGS
------------
Hamiltonian:
 Density Functional     Method          .... DFT(GTOs)
 Exchange Functional    Exchange        .... PBE
   PBE kappa parameter   XKappa         ....  0.804000
   PBE mue parameter    XMuePBE         ....  0.219520
 Correlation Functional Correlation     .... PBE
   PBE beta parameter  CBetaPBE         ....  0.066725
 LDA part of GGA corr.  LDAOpt          .... PW91-LDA
 Gradients option       PostSCFGGA      .... off
   NL short-range parameter             ....  6.400000
 RI-approximation to the Coulomb term is turned on
   Number of AuxJ basis functions       .... 1146


General Settings:
 Integral files         IntName         .... sp
 Hartree-Fock type      HFTyp           .... RHF
 Total Charge           Charge          ....    0
 Multiplicity           Mult            ....    1
 Number of Electrons    NEL             ....  174
 Basis Dimension        Dim             ....  316
 Nuclear Repulsion      ENuc            ....   2243.9130482551 Eh

Convergence Acceleration:
 AO-DIIS                CNVDIIS         .... on
   Start iteration      DIISMaxIt       ....    12
   Startup error        DIISStart       ....  0.200000
   # of expansion vecs  DIISMaxEq       ....     5
   Bias factor          DIISBfac        ....   1.050
   Max. coefficient     DIISMaxC        ....  10.000
 MO-DIIS                CNVKDIIS        .... off
 Trust-Rad. Augm. Hess. CNVTRAH         .... auto
   Auto Start mean grad. ratio tolernc. ....  1.125000
   Auto Start start iteration           ....     1
   Auto Start num. interpolation iter.  ....    10
   Max. Number of Micro iterations      ....    24
   Max. Number of Macro iterations      .... Maxiter - #DIIS iter
   Number of Davidson start vectors     ....     2
   Converg. threshold    (grad. norm)   ....   1.000e-04
   Grad. Scal. Fac. for Micro threshold ....   0.100
   Minimum threshold for Micro iter.    ....   1.000e-02
   NR start threshold (gradient norm)   ....   1.000e-04
   Initial trust radius                 ....   0.400
   Minimum AH scaling param. (alpha)    ....   1.000
   Maximum AH scaling param. (alpha)    .... 1000.000
   Quad. conv. algorithm                .... NR
   White noise on init. David. guess    .... on
   Maximum white noise                  ....   0.010
   Pseudo random numbers                .... off
   Inactive MOs                         .... canonical
   Orbital update algorithm             .... Taylor
   Preconditioner                       .... Diag
   Full preconditioner red. dimension   ....   250
 SOSCF                  CNVSOSCF        .... on
   Start iteration      SOSCFMaxIt      ....   150
   Startup grad/error   SOSCFStart      ....  0.003300
   Hessian update       SOSCFHessUp     .... L-BFGS
 Level Shifting         CNVShift        .... on
   Level shift para.    LevelShift      ....    0.2500
   Turn off err/grad.   ShiftErr        ....    0.0010
 Zerner damping         CNVZerner       .... off
 Static damping         CNVDamp         .... on
   Fraction old density DampFac         ....    0.7000
   Max. Damping (<1)    DampMax         ....    0.9800
   Min. Damping (>=0)   DampMin         ....    0.0000
   Turn off err/grad.   DampErr         ....    0.1000

SCF Procedure:
 Maximum # iterations   MaxIter         ....   125
 SCF integral mode      SCFMode         .... Direct
   Integral package                     .... SHARK and LIBINT hybrid scheme
 Reset frequency        DirectResetFreq ....    20
 Integral Threshold     Thresh          ....  1.000e-09 Eh
 Primitive CutOff       TCut            ....  1.000e-10 Eh

Convergence Tolerance:
 Convergence Check Mode ConvCheckMode   .... Total+1el-Energy
 Convergence forced     ConvForced      .... 0
 Energy Change          TolE            ....  1.000e-05 Eh
 1-El. energy change                    ....  1.000e-02 Eh
 Orbital Gradient       TolG            ....  1.000e-04
 Orbital Rotation angle TolX            ....  1.000e-04
 DIIS Error             TolErr          ....  5.000e-04

---------------------
INITIAL GUESS: MOREAD
---------------------
Guess MOs are being read from file: sp.ges
Input Geometry matches current geometry (good)
Input basis set matches current basis set (good)
Occupation numbers will be reassigned to an Aufbau configuration
MOs were renormalized
MOs were reorthogonalized (Cholesky)
                      ------------------
                      INITIAL GUESS DONE (   0.0 sec)
                      ------------------
             **** ENERGY FILE WAS UPDATED (sp.en.tmp) ****
Finished Guess after   0.1 sec
Maximum memory used throughout the entire GUESS-calculation: 25.7 MB

-------------------------------------------------------------------------------------------
                                      ORCA LEAN-SCF
                              memory conserving SCF solver
-------------------------------------------------------------------------------------------

----------------------------------------D-I-I-S--------------------------------------------
Iteration    Energy (Eh)           Delta-E    RMSDP     MaxDP     DIISErr   Damp  Time(sec)
-------------------------------------------------------------------------------------------
               ***  Starting incremental Fock matrix formation  ***
                              *** Initializing SOSCF ***
---------------------------------------S-O-S-C-F--------------------------------------
Iteration    Energy (Eh)           Delta-E    RMSDP     MaxDP     MaxGrad    Time(sec)
--------------------------------------------------------------------------------------
    1    -1979.1314321321992793     0.00e+00  1.18e-05  5.32e-04  6.58e-05     2.0
               *** Restarting incremental Fock matrix formation ***
    2    -1979.1314323740330110    -2.42e-07  1.68e-05  8.08e-04  5.69e-05     1.9
    3    -1979.1314307271636608     1.65e-06  1.15e-05  4.35e-04  1.69e-04     1.4
                 **** Energy Check signals convergence ****

               *****************************************************
               *                     SUCCESS                       *
               *           SCF CONVERGED AFTER   3 CYCLES          *
               *****************************************************

             **** ENERGY FILE WAS UPDATED (sp.en.tmp) ****

----------------
TOTAL SCF ENERGY
----------------

Total Energy       :      -1979.13143072716366 Eh          -53854.90416 eV

Components:
Nuclear Repulsion  :       2243.91304825510588 Eh           61059.97827 eV
Electronic Energy  :      -4223.04447898226954 Eh         -114914.88243 eV
One Electron Energy:      -7192.90371323764703 Eh         -195728.86070 eV
Two Electron Energy:       2969.85923425537749 Eh           80813.97827 eV

Virial components:
Potential Energy   :      -3949.32525651885953 Eh         -107466.60373 eV
Kinetic Energy     :       1970.19382579169564 Eh           53611.69957 eV
Virial Ratio       :          2.00453640896569

DFT components:
N(Alpha)           :       86.999623513433 electrons
N(Beta)            :       86.999623513433 electrons
N(Total)           :      173.999247026866 electrons
E(X)               :     -180.021092281894 Eh       
E(C)               :       -6.130697527141 Eh       
E(XC)              :     -186.151789809035 Eh       

---------------
SCF CONVERGENCE
---------------

  Last Energy change         ...   -1.6469e-06  Tolerance :   1.0000e-05
  Last MAX-Density change    ...    4.3491e-04  Tolerance :   1.0000e-03
  Last RMS-Density change    ...    1.1497e-05  Tolerance :   1.0000e-04
  Last DIIS Error            ...    1.9186e-04  Tolerance :   5.0000e-04
  Last Orbital Gradient      ...    1.6900e-04  Tolerance :   1.0000e-04
  Last Orbital Rotation      ...    2.1813e-04  Tolerance :   1.0000e-04


----------------
ORBITAL ENERGIES
----------------

  NO   OCC          E(Eh)            E(eV) 
   0   2.0000     -88.030059     -2395.4197 
   1   2.0000     -87.964979     -2393.6488 
   2   2.0000     -76.413695     -2079.3224 
   3   2.0000     -18.816889      -512.0336 
   4   2.0000     -18.801743      -511.6214 
   5   2.0000     -18.772094      -510.8146 
   6   2.0000     -18.769704      -510.7496 
   7   2.0000     -18.746015      -510.1050 
   8   2.0000     -18.733846      -509.7739 
   9   2.0000     -10.021273      -272.6927 
  10   2.0000     -10.007546      -272.3192 
  11   2.0000      -9.953999      -270.8621 
  12   2.0000      -9.952113      -270.8108 
  13   2.0000      -9.940530      -270.4956 
  14   2.0000      -9.932073      -270.2654 
  15   2.0000      -9.922223      -269.9974 
  16   2.0000      -9.912079      -269.7214 
  17   2.0000      -9.890236      -269.1270 
  18   2.0000      -9.886348      -269.0212 
  19   2.0000      -7.674959      -208.8463 
  20   2.0000      -7.610247      -207.0854 
  21   2.0000      -6.409104      -174.4006 
  22   2.0000      -5.703227      -155.1927 
  23   2.0000      -5.699573      -155.0933 
  24   2.0000      -5.691397      -154.8708 
  25   2.0000      -5.639579      -153.4608 
  26   2.0000      -5.630760      -153.2208 
  27   2.0000      -5.629958      -153.1990 
  28   2.0000      -4.631892      -126.0402 
  29   2.0000      -4.631278      -126.0235 
  30   2.0000      -4.629475      -125.9744 
  31   2.0000      -1.025446       -27.9038 
  32   2.0000      -1.008437       -27.4410 
  33   2.0000      -0.965679       -26.2775 
  34   2.0000      -0.927653       -25.2427 
  35   2.0000      -0.919470       -25.0200 
  36   2.0000      -0.911564       -24.8049 
  37   2.0000      -0.764695       -20.8084 
  38   2.0000      -0.710183       -19.3251 
  39   2.0000      -0.707579       -19.2542 
  40   2.0000      -0.683822       -18.6077 
  41   2.0000      -0.653883       -17.7931 
  42   2.0000      -0.623788       -16.9741 
  43   2.0000      -0.616792       -16.7838 
  44   2.0000      -0.603449       -16.4207 
  45   2.0000      -0.589873       -16.0513 
  46   2.0000      -0.564469       -15.3600 
  47   2.0000      -0.510635       -13.8951 
  48   2.0000      -0.505360       -13.7515 
  49   2.0000      -0.496055       -13.4983 
  50   2.0000      -0.482150       -13.1200 
  51   2.0000      -0.458241       -12.4694 
  52   2.0000      -0.453131       -12.3303 
  53   2.0000      -0.447640       -12.1809 
  54   2.0000      -0.434717       -11.8292 
  55   2.0000      -0.425489       -11.5781 
  56   2.0000      -0.417183       -11.3521 
  57   2.0000      -0.414150       -11.2696 
  58   2.0000      -0.407989       -11.1019 
  59   2.0000      -0.403847       -10.9892 
  60   2.0000      -0.398006       -10.8303 
  61   2.0000      -0.394096       -10.7239 
  62   2.0000      -0.382240       -10.4013 
  63   2.0000      -0.378963       -10.3121 
  64   2.0000      -0.373267       -10.1571 
  65   2.0000      -0.366812        -9.9815 
  66   2.0000      -0.356600        -9.7036 
  67   2.0000      -0.353997        -9.6328 
  68   2.0000      -0.348338        -9.4787 
  69   2.0000      -0.342659        -9.3242 
  70   2.0000      -0.331513        -9.0209 
  71   2.0000      -0.329183        -8.9575 
  72   2.0000      -0.312622        -8.5069 
  73   2.0000      -0.306279        -8.3343 
  74   2.0000      -0.302124        -8.2212 
  75   2.0000      -0.295914        -8.0522 
  76   2.0000      -0.283513        -7.7148 
  77   2.0000      -0.279826        -7.6145 
  78   2.0000      -0.266847        -7.2613 
  79   2.0000      -0.262565        -7.1448 
  80   2.0000      -0.252558        -6.8725 
  81   2.0000      -0.244967        -6.6659 
  82   2.0000      -0.234332        -6.3765 
  83   2.0000      -0.228289        -6.2121 
  84   2.0000      -0.197482        -5.3738 
  85   2.0000      -0.182763        -4.9732 
  86   2.0000      -0.176054        -4.7907 
  87   0.0000      -0.043612        -1.1867 
  88   0.0000      -0.034511        -0.9391 
  89   0.0000      -0.024850        -0.6762 
  90   0.0000       0.005603         0.1525 
  91   0.0000       0.033943         0.9236 
  92   0.0000       0.040085         1.0908 
  93   0.0000       0.049502         1.3470 
  94   0.0000       0.056287         1.5317 
  95   0.0000       0.062167         1.6916 
  96   0.0000       0.064397         1.7523 
  97   0.0000       0.075657         2.0587 
*Only the first 10 virtual orbitals were printed.

                    ********************************
                    * MULLIKEN POPULATION ANALYSIS *
                    ********************************

-----------------------
MULLIKEN ATOMIC CHARGES
-----------------------
   0 C :   -0.273276
   1 C :   -0.039480
   2 O :   -0.221080
   3 C :    0.084583
   4 O :   -0.199641
   5 C :   -0.004876
   6 C :   -0.314400
   7 H :    0.155330
   8 C :    0.190275
   9 O :   -0.182891
  10 O :   -0.217127
  11 C :   -0.010764
  12 C :   -0.311440
  13 S :   -0.096542
  14 P :    0.642150
  15 S :   -0.336898
  16 O :   -0.358124
  17 C :   -0.102063
  18 O :   -0.398899
  19 C :   -0.088880
  20 H :    0.110309
  21 H :    0.111768
  22 H :    0.111994
  23 H :    0.127701
  24 H :    0.103562
  25 H :    0.116023
  26 H :    0.111270
  27 H :    0.128624
  28 H :    0.104279
  29 H :    0.132521
  30 H :    0.117694
  31 H :    0.111474
  32 H :    0.113908
  33 H :    0.124273
  34 H :    0.116107
  35 H :    0.110503
  36 H :    0.116456
  37 H :    0.115576
Sum of atomic charges:    0.0000000

--------------------------------
MULLIKEN REDUCED ORBITAL CHARGES
--------------------------------
  0 C s       :     3.081324  s :     3.081324
      pz      :     1.070155  p :     3.164047
      px      :     1.018577
      py      :     1.075315
      dz2     :     0.003500  d :     0.027905
      dxz     :     0.006607
      dyz     :     0.006730
      dx2y2   :     0.006513
      dxy     :     0.004555

  1 C s       :     3.095066  s :     3.095066
      pz      :     0.936807  p :     2.886134
      px      :     1.050916
      py      :     0.898411
      dz2     :     0.010102  d :     0.058281
      dxz     :     0.011563
      dyz     :     0.015716
      dx2y2   :     0.011347
      dxy     :     0.009553

  2 O s       :     3.727053  s :     3.727053
      pz      :     1.454010  p :     4.477541
      px      :     1.471832
      py      :     1.551699
      dz2     :     0.002581  d :     0.016486
      dxz     :     0.003509
      dyz     :     0.003036
      dx2y2   :     0.004712
      dxy     :     0.002648

  3 C s       :     3.070825  s :     3.070825
      pz      :     0.890817  p :     2.711983
      px      :     0.860157
      py      :     0.961008
      dz2     :     0.015436  d :     0.132609
      dxz     :     0.032186
      dyz     :     0.017059
      dx2y2   :     0.041041
      dxy     :     0.026887

  4 O s       :     3.756331  s :     3.756331
      pz      :     1.564821  p :     4.426045
      px      :     1.424105
      py      :     1.437119
      dz2     :     0.002059  d :     0.017265
      dxz     :     0.003134
      dyz     :     0.001877
      dx2y2   :     0.004530
      dxy     :     0.005665

  5 C s       :     2.941582  s :     2.941582
      pz      :     1.051608  p :     3.031085
      px      :     0.984289
      py      :     0.995188
      dz2     :     0.007459  d :     0.032209
      dxz     :     0.002904
      dyz     :     0.008181
      dx2y2   :     0.006065
      dxy     :     0.007599

  6 C s       :     3.163851  s :     3.163851
      pz      :     1.096927  p :     3.108480
      px      :     0.959911
      py      :     1.051643
      dz2     :     0.006710  d :     0.042068
      dxz     :     0.005020
      dyz     :     0.011229
      dx2y2   :     0.010388
      dxy     :     0.008722

  7 H s       :     0.844670  s :     0.844670

  8 C s       :     3.017854  s :     3.017854
      pz      :     0.954749  p :     2.658710
      px      :     0.833290
      py      :     0.870672
      dz2     :     0.029928  d :     0.133162
      dxz     :     0.030469
      dyz     :     0.012879
      dx2y2   :     0.030277
      dxy     :     0.029609

  9 O s       :     3.767563  s :     3.767563
      pz      :     1.482171  p :     4.397248
      px      :     1.469237
      py      :     1.445839
      dz2     :     0.003392  d :     0.018080
      dxz     :     0.005595
      dyz     :     0.002463
      dx2y2   :     0.003039
      dxy     :     0.003592

 10 O s       :     3.725110  s :     3.725110
      pz      :     1.477580  p :     4.475146
      px      :     1.371439
      py      :     1.626127
      dz2     :     0.003895  d :     0.016870
      dxz     :     0.003170
      dyz     :     0.002265
      dx2y2   :     0.004404
      dxy     :     0.003136

 11 C s       :     3.081628  s :     3.081628
      pz      :     0.842773  p :     2.870961
      px      :     1.046468
      py      :     0.981720
      dz2     :     0.013600  d :     0.058176
      dxz     :     0.009956
      dyz     :     0.015762
      dx2y2   :     0.010727
      dxy     :     0.008130

 12 C s       :     3.103163  s :     3.103163
      pz      :     1.067960  p :     3.180408
      px      :     1.100332
      py      :     1.012116
      dz2     :     0.005387  d :     0.027868
      dxz     :     0.004709
      dyz     :     0.005541
      dx2y2   :     0.006969
      dxy     :     0.005263

 13 S s       :     5.869281  s :     5.869281
      pz      :     3.273194  p :    10.156183
      px      :     3.197026
      py      :     3.685963
      dz2     :     0.024982  d :     0.071078
      dxz     :     0.010099
      dyz     :     0.009318
      dx2y2   :     0.012181
      dxy     :     0.014497

 14 P s       :     5.220194  s :     5.220194
      pz      :     2.893922  p :     8.559790
      px      :     2.870893
      py      :     2.794976
      dz2     :     0.124196  d :     0.577866
      dxz     :     0.106924
      dyz     :     0.097134
      dx2y2   :     0.101554
      dxy     :     0.148059

 15 S s       :     5.908125  s :     5.908125
      pz      :     3.281256  p :    10.387444
      px      :     3.416481
      py      :     3.689707
      dz2     :     0.007962  d :     0.041329
      dxz     :     0.016769
      dyz     :     0.005446
      dx2y2   :     0.006327
      dxy     :     0.004825

 16 O s       :     3.756788  s :     3.756788
      pz      :     1.625619  p :     4.587890
      px      :     1.339777
      py      :     1.622494
      dz2     :     0.002105  d :     0.013445
      dxz     :     0.004000
      dyz     :     0.002485
      dx2y2   :     0.002255
      dxy     :     0.002600

 17 C s       :     3.123869  s :     3.123869
      pz      :     1.023644  p :     2.926147
      px      :     0.833197
      py      :     1.069306
      dz2     :     0.008719  d :     0.052047
      dxz     :     0.012185
      dyz     :     0.008727
      dx2y2   :     0.008468
      dxy     :     0.013948

 18 O s       :     3.759223  s :     3.759223
      pz      :     1.766551  p :     4.626991
      px      :     1.614877
      py      :     1.245563
      dz2     :     0.001820  d :     0.012685
      dxz     :     0.001617
      dyz     :     0.002085
      dx2y2   :     0.002332
      dxy     :     0.004832

 19 C s       :     3.119691  s :     3.119691
      pz      :     1.088973  p :     2.916624
      px      :     1.068735
      py      :     0.758916
      dz2     :     0.011093  d :     0.052565
      dxz     :     0.006283
      dyz     :     0.009750
      dx2y2   :     0.010861
      dxy     :     0.014578

 20 H s       :     0.889691  s :     0.889691

 21 H s       :     0.888232  s :     0.888232

 22 H s       :     0.888006  s :     0.888006

 23 H s       :     0.872299  s :     0.872299

 24 H s       :     0.896438  s :     0.896438

 25 H s       :     0.883977  s :     0.883977

 26 H s       :     0.888730  s :     0.888730

 27 H s       :     0.871376  s :     0.871376

 28 H s       :     0.895721  s :     0.895721

 29 H s       :     0.867479  s :     0.867479

 30 H s       :     0.882306  s :     0.882306

 31 H s       :     0.888526  s :     0.888526

 32 H s       :     0.886092  s :     0.886092

 33 H s       :     0.875727  s :     0.875727

 34 H s       :     0.883893  s :     0.883893

 35 H s       :     0.889497  s :     0.889497

 36 H s       :     0.883544  s :     0.883544

 37 H s       :     0.884424  s :     0.884424


------------------------
MULLIKEN OVERLAP CHARGES
------------------------
B(  0-C ,  1-C ) :   0.8464 B(  0-C ,  2-O ) :  -0.1043 B(  0-C , 20-H ) :   0.7378 
B(  0-C , 21-H ) :   0.7276 B(  0-C , 22-H ) :   0.7203 B(  0-C , 23-H ) :  -0.0545 
B(  0-C , 24-H ) :  -0.0525 B(  1-C ,  2-O ) :   0.5230 B(  1-C ,  3-C ) :  -0.0676 
B(  1-C , 23-H ) :   0.7526 B(  1-C , 24-H ) :   0.7201 B(  2-O ,  3-C ) :   0.7556 
B(  2-O ,  4-O ) :  -0.1590 B(  2-O ,  5-C ) :  -0.2220 B(  2-O , 23-H ) :  -0.0542 
B(  2-O , 24-H ) :  -0.0666 B(  3-C ,  4-O ) :   1.2584 B(  3-C ,  5-C ) :   0.5774 
B(  3-C ,  6-C ) :  -0.0644 B(  4-O ,  5-C ) :  -0.1634 B(  5-C ,  6-C ) :   0.3490 
B(  5-C , 13-S ) :  -0.1418 B(  5-C , 25-H ) :   0.6304 B(  5-C , 26-H ) :   0.5344 
B(  6-C ,  7-H ) :   0.6203 B(  6-C ,  9-O ) :  -0.2507 B(  6-C , 10-O ) :  -0.2965 
B(  6-C , 13-S ) :   0.4638 B(  7-H , 13-S ) :  -0.0518 B(  8-C ,  9-O ) :   1.3132 
B(  8-C , 10-O ) :   0.7907 B(  8-C , 11-C ) :  -0.0753 B(  8-C , 13-S ) :  -0.0856 
B(  9-O , 10-O ) :  -0.1514 B( 10-O , 11-C ) :   0.5301 B( 10-O , 12-C ) :  -0.0778 
B( 10-O , 27-H ) :  -0.0566 B( 10-O , 28-H ) :  -0.0552 B( 11-C , 12-C ) :   0.9146 
B( 11-C , 27-H ) :   0.7096 B( 11-C , 28-H ) :   0.7331 B( 12-C , 28-H ) :  -0.0546 
B( 12-C , 29-H ) :   0.7460 B( 12-C , 30-H ) :   0.7183 B( 12-C , 31-H ) :   0.7319 
B( 13-S , 14-P ) :   0.5479 B( 13-S , 15-S ) :  -0.0565 B( 13-S , 16-O ) :  -0.0633 
B( 13-S , 18-O ) :  -0.0760 B( 13-S , 32-H ) :   0.0540 B( 14-P , 15-S ) :   0.8888 
B( 14-P , 16-O ) :   0.6609 B( 14-P , 17-C ) :  -0.0554 B( 14-P , 18-O ) :   0.6366 
B( 14-P , 19-C ) :  -0.0839 B( 15-S , 16-O ) :  -0.0650 B( 15-S , 18-O ) :  -0.0672 
B( 15-S , 36-H ) :   0.0532 B( 16-O , 17-C ) :   0.5605 B( 16-O , 18-O ) :  -0.0713 
B( 16-O , 32-H ) :  -0.0625 B( 16-O , 33-H ) :  -0.0547 B( 16-O , 34-H ) :  -0.0628 
B( 17-C , 32-H ) :   0.7336 B( 17-C , 33-H ) :   0.7643 B( 17-C , 34-H ) :   0.7505 
B( 18-O , 19-C ) :   0.5850 B( 18-O , 35-H ) :  -0.0581 B( 18-O , 36-H ) :  -0.0659 
B( 18-O , 37-H ) :  -0.0601 B( 19-C , 35-H ) :   0.7429 B( 19-C , 36-H ) :   0.7381 
B( 19-C , 37-H ) :   0.7586 B( 20-H , 21-H ) :  -0.0543 B( 23-H , 24-H ) :  -0.0710 
B( 27-H , 28-H ) :  -0.0586 B( 29-H , 31-H ) :  -0.0530 B( 32-H , 34-H ) :  -0.0670 
B( 33-H , 34-H ) :  -0.0516 B( 35-H , 36-H ) :  -0.0521 B( 35-H , 37-H ) :  -0.0567 
B( 36-H , 37-H ) :  -0.0586 


                     *******************************
                     * LOEWDIN POPULATION ANALYSIS *
                     *******************************

----------------------
LOEWDIN ATOMIC CHARGES
----------------------
   0 C :   -0.350811
   1 C :   -0.111602
   2 O :   -0.048835
   3 C :    0.020890
   4 O :   -0.169154
   5 C :   -0.250060
   6 C :   -0.259492
   7 H :    0.152574
   8 C :    0.005007
   9 O :   -0.154376
  10 O :   -0.036079
  11 C :   -0.106404
  12 C :   -0.357228
  13 S :    0.104558
  14 P :    0.594016
  15 S :   -0.313844
  16 O :   -0.237011
  17 C :   -0.212999
  18 O :   -0.262952
  19 C :   -0.213132
  20 H :    0.124022
  21 H :    0.125041
  22 H :    0.130931
  23 H :    0.117443
  24 H :    0.115959
  25 H :    0.144224
  26 H :    0.138637
  27 H :    0.128092
  28 H :    0.119270
  29 H :    0.132432
  30 H :    0.133511
  31 H :    0.123592
  32 H :    0.105327
  33 H :    0.122850
  34 H :    0.111509
  35 H :    0.113611
  36 H :    0.110643
  37 H :    0.109840

-------------------------------
LOEWDIN REDUCED ORBITAL CHARGES
-------------------------------
  0 C s       :     2.948591  s :     2.948591
      pz      :     1.126387  p :     3.332944
      px      :     1.077646
      py      :     1.128911
      dz2     :     0.009053  d :     0.069276
      dxz     :     0.015618
      dyz     :     0.016430
      dx2y2   :     0.017976
      dxy     :     0.010200

  1 C s       :     2.927027  s :     2.927027
      pz      :     0.990106  p :     3.054933
      px      :     1.098088
      py      :     0.966739
      dz2     :     0.022954  d :     0.129642
      dxz     :     0.024412
      dyz     :     0.034175
      dx2y2   :     0.029074
      dxy     :     0.019027

  2 O s       :     3.444454  s :     3.444454
      pz      :     1.481014  p :     4.570846
      px      :     1.521087
      py      :     1.568744
      dz2     :     0.004708  d :     0.033536
      dxz     :     0.008305
      dyz     :     0.006373
      dx2y2   :     0.009534
      dxy     :     0.004615

  3 C s       :     2.845263  s :     2.845263
      pz      :     0.913747  p :     2.831931
      px      :     0.948857
      py      :     0.969327
      dz2     :     0.033245  d :     0.301916
      dxz     :     0.072671
      dyz     :     0.038595
      dx2y2   :     0.095163
      dxy     :     0.062241

  4 O s       :     3.552883  s :     3.552883
      pz      :     1.572873  p :     4.585283
      px      :     1.514319
      py      :     1.498091
      dz2     :     0.004276  d :     0.030989
      dxz     :     0.004600
      dyz     :     0.002909
      dx2y2   :     0.006715
      dxy     :     0.012490

  5 C s       :     2.919521  s :     2.919521
      pz      :     1.092955  p :     3.246177
      px      :     1.089869
      py      :     1.063353
      dz2     :     0.018919  d :     0.084362
      dxz     :     0.006878
      dyz     :     0.022623
      dx2y2   :     0.014911
      dxy     :     0.021030

  6 C s       :     2.948685  s :     2.948685
      pz      :     1.102534  p :     3.209007
      px      :     1.032740
      py      :     1.073733
      dz2     :     0.018589  d :     0.101801
      dxz     :     0.011139
      dyz     :     0.028098
      dx2y2   :     0.020968
      dxy     :     0.023007

  7 H s       :     0.847426  s :     0.847426

  8 C s       :     2.844241  s :     2.844241
      pz      :     0.998274  p :     2.844263
      px      :     0.959903
      py      :     0.886085
      dz2     :     0.068867  d :     0.306489
      dxz     :     0.072718
      dyz     :     0.029542
      dx2y2   :     0.074967
      dxy     :     0.060396

  9 O s       :     3.555525  s :     3.555525
      pz      :     1.549869  p :     4.566660
      px      :     1.557413
      py      :     1.459377
      dz2     :     0.004954  d :     0.032191
      dxz     :     0.012053
      dyz     :     0.003884
      dx2y2   :     0.005740
      dxy     :     0.005561

 10 O s       :     3.435804  s :     3.435804
      pz      :     1.506133  p :     4.566036
      px      :     1.453250
      py      :     1.606653
      dz2     :     0.008008  d :     0.034239
      dxz     :     0.006675
      dyz     :     0.004362
      dx2y2   :     0.009684
      dxy     :     0.005510

 11 C s       :     2.927666  s :     2.927666
      pz      :     0.906212  p :     3.049588
      px      :     1.103437
      py      :     1.039939
      dz2     :     0.032121  d :     0.129150
      dxz     :     0.021356
      dyz     :     0.032607
      dx2y2   :     0.027609
      dxy     :     0.015457

 12 C s       :     2.950988  s :     2.950988
      pz      :     1.126819  p :     3.337540
      px      :     1.141451
      py      :     1.069269
      dz2     :     0.013858  d :     0.068700
      dxz     :     0.011344
      dyz     :     0.013235
      dx2y2   :     0.019185
      dxy     :     0.011078

 13 S s       :     5.627720  s :     5.627720
      pz      :     3.286259  p :    10.176755
      px      :     3.228004
      py      :     3.662491
      dz2     :     0.032624  d :     0.090967
      dxz     :     0.012188
      dyz     :     0.011242
      dx2y2   :     0.016235
      dxy     :     0.018679

 14 P s       :     5.078558  s :     5.078558
      pz      :     2.906889  p :     8.532940
      px      :     2.859170
      py      :     2.766882
      dz2     :     0.173113  d :     0.794486
      dxz     :     0.150929
      dyz     :     0.130040
      dx2y2   :     0.128491
      dxy     :     0.211912

 15 S s       :     5.759752  s :     5.759752
      pz      :     3.353887  p :    10.498384
      px      :     3.456616
      py      :     3.687881
      dz2     :     0.009501  d :     0.055708
      dxz     :     0.025923
      dyz     :     0.006251
      dx2y2   :     0.008340
      dxy     :     0.005692

 16 O s       :     3.498548  s :     3.498548
      pz      :     1.659280  p :     4.714137
      px      :     1.406612
      py      :     1.648244
      dz2     :     0.002951  d :     0.024326
      dxz     :     0.007636
      dyz     :     0.003834
      dx2y2   :     0.004215
      dxy     :     0.005690

 17 C s       :     2.971885  s :     2.971885
      pz      :     1.088463  p :     3.126906
      px      :     0.912951
      py      :     1.125492
      dz2     :     0.019323  d :     0.114208
      dxz     :     0.026175
      dyz     :     0.020547
      dx2y2   :     0.016848
      dxy     :     0.031315

 18 O s       :     3.496905  s :     3.496905
      pz      :     1.766557  p :     4.742469
      px      :     1.652803
      py      :     1.323109
      dz2     :     0.003164  d :     0.023578
      dxz     :     0.001914
      dyz     :     0.004001
      dx2y2   :     0.004476
      dxy     :     0.010023

 19 C s       :     2.968994  s :     2.968994
      pz      :     1.141364  p :     3.127319
      px      :     1.135070
      py      :     0.850884
      dz2     :     0.026010  d :     0.116819
      dxz     :     0.014888
      dyz     :     0.020040
      dx2y2   :     0.023119
      dxy     :     0.032762

 20 H s       :     0.875978  s :     0.875978

 21 H s       :     0.874959  s :     0.874959

 22 H s       :     0.869069  s :     0.869069

 23 H s       :     0.882557  s :     0.882557

 24 H s       :     0.884041  s :     0.884041

 25 H s       :     0.855776  s :     0.855776

 26 H s       :     0.861363  s :     0.861363

 27 H s       :     0.871908  s :     0.871908

 28 H s       :     0.880730  s :     0.880730

 29 H s       :     0.867568  s :     0.867568

 30 H s       :     0.866489  s :     0.866489

 31 H s       :     0.876408  s :     0.876408

 32 H s       :     0.894673  s :     0.894673

 33 H s       :     0.877150  s :     0.877150

 34 H s       :     0.888491  s :     0.888491

 35 H s       :     0.886389  s :     0.886389

 36 H s       :     0.889357  s :     0.889357

 37 H s       :     0.890160  s :     0.890160


---------------------------------
LOEWDIN BOND ORDERS (THRESH 0.050000)
---------------------------------
B(  0-C ,  1-C ) :   1.1574 B(  0-C ,  2-O ) :   0.0554 B(  0-C , 20-H ) :   0.9379 
B(  0-C , 21-H ) :   0.9372 B(  0-C , 22-H ) :   0.9303 B(  1-C ,  2-O ) :   1.0524 
B(  1-C ,  3-C ) :   0.0769 B(  1-C , 23-H ) :   0.9059 B(  1-C , 24-H ) :   0.9089 
B(  2-O ,  3-C ) :   1.4432 B(  2-O ,  4-O ) :   0.2088 B(  2-O ,  5-C ) :   0.0722 
B(  3-C ,  4-O ) :   2.1617 B(  3-C ,  5-C ) :   1.0421 B(  3-C ,  6-C ) :   0.0609 
B(  4-O ,  5-C ) :   0.0952 B(  5-C ,  6-C ) :   1.0590 B(  5-C ,  8-C ) :   0.0555 
B(  5-C , 13-S ) :   0.0629 B(  5-C , 25-H ) :   0.8814 B(  5-C , 26-H ) :   0.8834 
B(  6-C ,  7-H ) :   0.8606 B(  6-C ,  8-C ) :   1.0217 B(  6-C ,  9-O ) :   0.0984 
B(  6-C , 10-O ) :   0.0668 B(  6-C , 13-S ) :   1.1159 B(  8-C ,  9-O ) :   2.1430 
B(  8-C , 10-O ) :   1.4546 B(  8-C , 11-C ) :   0.0766 B(  8-C , 13-S ) :   0.0676 
B(  9-O , 10-O ) :   0.2003 B(  9-O , 14-P ) :   0.0787 B( 10-O , 11-C ) :   1.0503 
B( 10-O , 12-C ) :   0.0512 B( 11-C , 12-C ) :   1.1517 B( 11-C , 27-H ) :   0.9048 
B( 11-C , 28-H ) :   0.9199 B( 12-C , 29-H ) :   0.9336 B( 12-C , 30-H ) :   0.9284 
B( 12-C , 31-H ) :   0.9381 B( 13-S , 14-P ) :   1.0154 B( 13-S , 15-S ) :   0.1225 
B( 13-S , 16-O ) :   0.0641 B( 13-S , 18-O ) :   0.0677 B( 14-P , 15-S ) :   1.6989 
B( 14-P , 16-O ) :   1.2805 B( 14-P , 17-C ) :   0.0637 B( 14-P , 18-O ) :   1.2277 
B( 14-P , 19-C ) :   0.0597 B( 15-S , 16-O ) :   0.0656 B( 15-S , 18-O ) :   0.0837 
B( 16-O , 17-C ) :   1.1234 B( 16-O , 18-O ) :   0.0542 B( 17-C , 32-H ) :   0.9416 
B( 17-C , 33-H ) :   0.9507 B( 17-C , 34-H ) :   0.9487 B( 18-O , 19-C ) :   1.1353 
B( 19-C , 35-H ) :   0.9502 B( 19-C , 36-H ) :   0.9410 B( 19-C , 37-H ) :   0.9474 


------------------------------------------
LOEWDIN REDUCED ORBITAL POPULATIONS PER MO
-------------------------------------------
THRESHOLD FOR PRINTING IS 0.1%%
                      0         1         2         3         4         5   
                 -88.03006 -87.96498 -76.41370 -18.81689 -18.80174 -18.77209
                   2.00000   2.00000   2.00000   2.00000   2.00000   2.00000
                  --------  --------  --------  --------  --------  --------
 2 O  s               0.0       0.0       0.0       0.0      99.9       0.0
10 O  s               0.0       0.0       0.0      99.9       0.0       0.0
13 S  s             100.0       0.0       0.0       0.0       0.0       0.0
14 P  s               0.0       0.0     100.0       0.0       0.0       0.0
15 S  s               0.0     100.0       0.0       0.0       0.0       0.0
18 O  s               0.0       0.0       0.0       0.0       0.0      99.9

                      6         7         8         9        10        11   
                 -18.76970 -18.74602 -18.73385 -10.02127 -10.00755  -9.95400
                   2.00000   2.00000   2.00000   2.00000   2.00000   2.00000
                  --------  --------  --------  --------  --------  --------
 2 O  px              0.0       0.0       0.0       0.0       0.1       0.0
 3 C  s               0.0       0.0       0.0       0.0      99.3       0.0
 4 O  s               0.0       0.0      99.9       0.0       0.0       0.0
 4 O  px              0.0       0.0       0.0       0.0       0.2       0.0
 4 O  py              0.0       0.0       0.0       0.0       0.1       0.0
 6 C  s               0.0       0.0       0.0       0.0       0.0      99.6
 8 C  s               0.0       0.0       0.0      99.3       0.0       0.0
 9 O  s               0.0      99.9       0.0       0.0       0.0       0.0
 9 O  pz              0.0       0.0       0.0       0.1       0.0       0.0
 9 O  px              0.0       0.0       0.0       0.2       0.0       0.0
10 O  px              0.0       0.0       0.0       0.2       0.0       0.0
16 O  s              99.9       0.0       0.0       0.0       0.0       0.0

                     12        13        14        15        16        17   
                  -9.95211  -9.94053  -9.93207  -9.92222  -9.91208  -9.89024
                   2.00000   2.00000   2.00000   2.00000   2.00000   2.00000
                  --------  --------  --------  --------  --------  --------
 0 C  px              0.0       0.1       0.0       0.0       0.0       0.0
 1 C  s               0.0      99.7       0.0       0.0       0.0       0.0
 5 C  s               0.0       0.0       0.0       0.0      99.6       0.0
11 C  s              99.7       0.0       0.0       0.0       0.0       0.0
11 C  py              0.0       0.0       0.0       0.0       0.0       0.1
12 C  s               0.0       0.0       0.0       0.0       0.0      99.7
12 C  py              0.1       0.0       0.0       0.0       0.0       0.0
17 C  s               0.0       0.0      99.7       0.0       0.0       0.0
19 C  s               0.0       0.0       0.0      99.7       0.0       0.0

                     18        19        20        21        22        23   
                  -9.88635  -7.67496  -7.61025  -6.40910  -5.70323  -5.69957
                   2.00000   2.00000   2.00000   2.00000   2.00000   2.00000
                  --------  --------  --------  --------  --------  --------
 0 C  s              99.7       0.0       0.0       0.0       0.0       0.0
 1 C  px              0.1       0.0       0.0       0.0       0.0       0.0
 6 C  px              0.0       0.1       0.0       0.0       0.0       0.0
13 S  s               0.0      99.8       0.0       0.0       0.0       0.0
13 S  pz              0.0       0.0       0.0       0.0      34.2      61.8
13 S  px              0.0       0.0       0.0       0.0      48.1      37.5
13 S  py              0.0       0.0       0.0       0.0      17.7       0.7
14 P  s               0.0       0.0       0.0      99.4       0.0       0.0
15 S  s               0.0       0.0      99.9       0.0       0.0       0.0
16 O  px              0.0       0.0       0.0       0.1       0.0       0.0
18 O  py              0.0       0.0       0.0       0.1       0.0       0.0

                     24        25        26        27        28        29   
                  -5.69140  -5.63958  -5.63076  -5.62996  -4.63189  -4.63128
                   2.00000   2.00000   2.00000   2.00000   2.00000   2.00000
                  --------  --------  --------  --------  --------  --------
13 S  pz              4.0       0.0       0.0       0.0       0.0       0.0
13 S  px             14.4       0.0       0.0       0.0       0.0       0.0
13 S  py             81.6       0.0       0.0       0.0       0.0       0.0
14 P  pz              0.0       0.0       0.0       0.0      20.7      26.6
14 P  px              0.0       0.0       0.0       0.0       0.1      68.0
14 P  py              0.0       0.0       0.0       0.0      79.1       5.3
15 S  pz              0.0      60.3      32.8       6.9       0.0       0.0
15 S  px              0.0      35.1      64.9       0.0       0.0       0.0
15 S  py              0.0       4.6       2.4      93.1       0.0       0.0

                     30        31        32        33        34        35   
                  -4.62948  -1.02545  -1.00844  -0.96568  -0.92765  -0.91947
                   2.00000   2.00000   2.00000   2.00000   2.00000   2.00000
                  --------  --------  --------  --------  --------  --------
 0 C  s               0.0       0.0       0.2       0.0       0.0       0.0
 0 C  px              0.0       0.0       0.4       0.0       0.0       0.0
 1 C  s               0.0       0.0       4.4       0.0       0.0       0.0
 1 C  pz              0.0       0.0       2.6       0.0       0.0       0.0
 1 C  px              0.0       0.0       0.3       0.0       0.0       0.0
 1 C  py              0.0       0.0       2.5       0.0       0.0       0.0
 1 C  dyz             0.0       0.0       0.3       0.0       0.0       0.0
 2 O  s               0.0       0.3      42.0       0.0       0.0       0.2
 2 O  px              0.0       0.0       2.7       0.0       0.0       0.0
 2 O  py              0.0       0.0       0.6       0.0       0.0       0.0
 3 C  s               0.0       0.2      18.6       0.0       0.0       0.1
 3 C  pz              0.0       0.0       2.4       0.0       0.0       0.0
 3 C  px              0.0       0.0       1.7       0.0       0.0       0.3
 3 C  py              0.0       0.0       1.2       0.0       0.0       0.0
 3 C  dz2             0.0       0.0       0.1       0.0       0.0       0.0
 3 C  dxz             0.0       0.0       0.4       0.0       0.0       0.0
 3 C  dx2y2           0.0       0.0       0.5       0.0       0.0       0.0
 3 C  dxy             0.0       0.0       0.1       0.0       0.0       0.0
 4 O  s               0.0       0.1      10.2       0.0       0.0       0.6
 4 O  px              0.0       0.0       1.8       0.0       0.0       0.0
 4 O  py              0.0       0.0       0.8       0.0       0.0       0.0
 5 C  s               0.0       0.1       1.0       0.0       0.0       0.0
 5 C  pz              0.0       0.1       0.9       0.0       0.0       0.0
 5 C  py              0.0       0.1       1.0       0.0       0.0       0.0
 6 C  s               0.0       1.1       0.0       0.0       0.4       0.0
 6 C  pz              0.0       1.4       0.0       0.0       0.4       0.0
 6 C  px              0.0       0.1       0.0       0.0       0.2       0.0
 6 C  py              0.0       0.3       0.1       0.0       0.1       0.0
 7 H  s               0.0       0.2       0.0       0.0       0.1       0.0
 8 C  s               0.0      18.8       0.1       0.0       5.0       0.3
 8 C  pz              0.0       1.7       0.0       0.0       3.0       0.2
 8 C  px              0.0       2.7       0.0       0.2      20.2       1.1
 8 C  py              0.0       0.7       0.0       0.0       0.2       0.0
 8 C  dz2             0.0       0.1       0.0       0.0       0.1       0.0
 8 C  dxz             0.0       0.0       0.0       0.0       1.2       0.1
 8 C  dx2y2           0.0       1.0       0.0       0.0       0.0       0.0
 8 C  dxy             0.0       0.0       0.0       0.0       0.3       0.0
 9 O  s               0.0       9.8       0.1       0.2      39.7       2.2
 9 O  pz              0.0       0.7       0.0       0.0       1.9       0.1
 9 O  px              0.0       1.7       0.0       0.0       2.0       0.1
 9 O  py              0.0       0.1       0.0       0.0       0.4       0.0
 9 O  dxz             0.0       0.0       0.0       0.0       0.1       0.0
10 O  s               0.0      42.1       0.3       0.2      12.9       0.6
10 O  pz              0.0       0.4       0.0       0.0       0.2       0.0
10 O  px              0.0       3.0       0.0       0.0       0.3       0.0
11 C  s               0.0       4.3       0.0       0.0       1.7       0.1
11 C  pz              0.0       3.7       0.0       0.0       1.1       0.1
11 C  px              0.0       0.8       0.0       0.0       0.0       0.0
11 C  py              0.0       1.0       0.0       0.0       0.2       0.0
11 C  dz2             0.0       0.1       0.0       0.0       0.1       0.0
11 C  dyz             0.0       0.2       0.0       0.0       0.1       0.0
12 C  s               0.0       0.2       0.0       0.0       0.1       0.0
12 C  py              0.0       0.5       0.0       0.0       0.2       0.0
13 S  s               0.0       0.1       0.0       0.3       0.1       0.0
13 S  pz              0.0       0.0       0.0       0.4       0.0       0.0
14 P  s               0.0       0.1       0.0      13.9       0.0       0.0
14 P  pz             52.6       0.0       0.0       0.1       0.0       1.0
14 P  px             31.8       0.0       0.0       5.1       0.2       0.1
14 P  py             15.5       0.1       0.0       0.0       1.2       8.1
14 P  dz2             0.0       0.0       0.0       0.5       0.0       0.0
14 P  dxz             0.0       0.0       0.0       0.1       0.0       0.3
14 P  dyz             0.0       0.0       0.0       0.3       0.0       0.0
14 P  dxy             0.0       0.0       0.0       0.0       0.1       2.7
15 S  s               0.0       0.0       0.0       0.3       0.0       0.0
15 S  pz              0.0       0.0       0.0       0.2       0.0       0.0
15 S  px              0.0       0.0       0.0       0.2       0.0       0.0
16 O  s               0.0       0.0       0.0      30.2       0.5      28.1
16 O  pz              0.0       0.0       0.0       1.2       0.0       0.8
16 O  px              0.0       0.0       0.0       0.0       0.0       0.2
16 O  py              0.0       0.0       0.0       0.7       0.0       0.0
17 C  s               0.0       0.0       0.0       3.8       0.1       4.2
17 C  pz              0.0       0.0       0.0       0.7       0.0       0.8
17 C  px              0.0       0.0       0.0       3.0       0.0       2.6
17 C  py              0.0       0.0       0.0       0.5       0.0       0.2
17 C  dxz             0.0       0.0       0.0       0.1       0.0       0.2
17 C  dx2y2           0.0       0.0       0.0       0.1       0.0       0.1
18 O  s               0.0       0.0       0.0      26.4       3.1      29.9
18 O  pz              0.0       0.0       0.0       0.0       0.0       0.1
18 O  px              0.0       0.0       0.0       1.1       0.1       0.9
18 O  py              0.0       0.0       0.0       0.2       0.0       0.4
19 C  s               0.0       0.0       0.0       3.0       0.5       4.8
19 C  pz              0.0       0.0       0.0       0.2       0.0       0.3
19 C  px              0.0       0.0       0.0       0.2       0.0       0.3
19 C  py              0.0       0.0       0.0       3.0       0.4       3.7
19 C  dx2y2           0.0       0.0       0.0       0.1       0.0       0.2
[...]
                   3.49293   3.51598   3.57968   3.59475
                   0.00000   0.00000   0.00000   0.00000
                  --------  --------  --------  --------
 1 C  s               0.1       0.2       0.0       0.0
 1 C  px              0.1       0.1       0.0       0.0
 1 C  dz2             0.1       0.1       0.0       0.0
 1 C  dxz             0.1       0.3       0.0       0.1
 1 C  dyz             0.1       0.2       0.0       0.2
 1 C  dx2y2           0.0       0.0       0.0       0.2
 1 C  dxy             0.2       0.4       0.0       0.2
 2 O  s               0.3       0.7       0.0       0.5
 2 O  pz              0.4       1.1       0.0       0.1
 2 O  px              0.5       1.4       0.0       0.1
 2 O  py              0.1       0.4       0.0       0.2
 2 O  dz2             0.1       0.4       0.0       0.6
 2 O  dxz             4.5      12.4       0.6       5.4
 2 O  dyz             0.4       0.9       0.2       2.1
 2 O  dx2y2           5.0      12.2       0.0       0.2
 2 O  dxy             0.4       1.0       0.3       4.3
 3 C  s               0.0       0.1       0.6       6.6
 3 C  pz              0.1       0.2       0.0       0.2
 3 C  px              1.3       2.8       0.1       1.5
 3 C  py              0.2       0.2       0.1       1.7
 3 C  dz2             0.0       0.1       0.2       2.6
 3 C  dxz             1.7       4.6       0.0       0.1
 3 C  dyz             0.6       1.4       0.0       0.4
 3 C  dx2y2           2.3       6.4       0.4       3.9
 3 C  dxy             0.3       0.7       0.4       4.9
 4 O  s               0.4       0.8       0.3       4.2
 4 O  pz              0.0       0.1       0.0       0.3
 4 O  px              0.5       0.9       0.1       1.4
 4 O  py              0.0       0.0       0.1       1.8
 4 O  dz2             1.6       3.0       0.6       7.4
 4 O  dxz             0.2       0.7       0.4       4.7
 4 O  dyz             0.6       2.1       0.4       3.9
 4 O  dx2y2           4.0       8.7       0.0       0.2
 4 O  dxy             2.5       4.1       2.4      31.2
 5 C  pz              0.0       0.1       0.0       0.0
 5 C  dz2             0.1       0.0       0.0       0.0
 5 C  dxz             0.1       0.2       0.0       0.1
 5 C  dyz             0.1       0.5       0.0       0.2
 5 C  dxy             0.0       0.5       0.0       0.0
 6 C  s               0.0       0.1       0.0       0.0
 6 C  dz2             0.1       0.0       0.3       0.0
 6 C  dxz             0.7       0.5       0.0       0.0
 6 C  dyz             0.1       0.0       0.2       0.0
 6 C  dxy             0.3       0.1       0.0       0.0
 8 C  s               0.1       0.0       6.6       0.6
 8 C  pz              0.2       0.1       1.6       0.1
 8 C  px              3.6       1.4       1.1       0.0
 8 C  py              0.0       0.0       0.3       0.0
 8 C  dz2             4.5       1.8       1.8       0.2
 8 C  dxz             1.5       0.7       4.8       0.3
 8 C  dyz             1.1       0.4       0.0       0.0
 8 C  dx2y2           4.2       1.6       6.3       0.7
 8 C  dxy             1.1       0.5       0.5       0.0
 9 O  s               1.0       0.4       3.8       0.3
 9 O  pz              0.0       0.0       1.7       0.1
 9 O  px              1.1       0.4       1.0       0.1
 9 O  py              0.0       0.0       0.3       0.0
 9 O  dz2             3.6       1.5       4.0       0.3
 9 O  dxz             5.3       2.0      27.2       1.9
 9 O  dyz             0.5       0.2       6.6       0.6
 9 O  dx2y2          10.4       3.9       1.7       0.1
 9 O  dxy             0.4       0.1       5.9       0.5
10 O  s               0.6       0.2       0.6       0.1
10 O  pz              0.7       0.3       0.2       0.0
10 O  px              1.9       0.8       0.2       0.0
10 O  py              0.3       0.2       0.1       0.0
10 O  dz2             8.7       4.1       0.1       0.1
10 O  dxz             1.6       0.5       8.5       0.7
10 O  dyz             0.9       0.4       0.9       0.0
10 O  dx2y2          13.0       5.1       1.1       0.3
10 O  dxy             1.7       0.5       3.5       0.4
11 C  s               0.3       0.1       0.0       0.0
11 C  pz              0.2       0.1       0.0       0.0
11 C  px              0.1       0.1       0.0       0.0
11 C  dz2             0.1       0.0       0.3       0.0
11 C  dxz             0.5       0.2       0.1       0.0
11 C  dyz             0.1       0.1       0.2       0.0
11 C  dxy             0.1       0.1       0.0       0.0
13 S  s               0.0       0.1       0.0       0.0


                      *****************************
                      * MAYER POPULATION ANALYSIS *
                      *****************************

  NA   - Mulliken gross atomic population
  ZA   - Total nuclear charge
  QA   - Mulliken gross atomic charge
  VA   - Mayer's total valence
  BVA  - Mayer's bonded valence
  FA   - Mayer's free valence

  ATOM       NA         ZA         QA         VA         BVA        FA
  0 C      6.2733     6.0000    -0.2733     3.9985     3.9985    -0.0000
  1 C      6.0395     6.0000    -0.0395     3.9999     3.9999     0.0000
  2 O      8.2211     8.0000    -0.2211     2.2922     2.2922    -0.0000
  3 C      5.9154     6.0000     0.0846     4.4399     4.4399    -0.0000
  4 O      8.1996     8.0000    -0.1996     2.2771     2.2771     0.0000
  5 C      6.0049     6.0000    -0.0049     3.8067     3.8067     0.0000
  6 C      6.3144     6.0000    -0.3144     3.9201     3.9201     0.0000
  7 H      0.8447     1.0000     0.1553     0.9370     0.9370     0.0000
  8 C      5.8097     6.0000     0.1903     4.2798     4.2798    -0.0000
  9 O      8.1829     8.0000    -0.1829     2.3031     2.3031    -0.0000
 10 O      8.2171     8.0000    -0.2171     2.3142     2.3142    -0.0000
 11 C      6.0108     6.0000    -0.0108     4.0210     4.0210     0.0000
 12 C      6.3114     6.0000    -0.3114     4.0115     4.0115    -0.0000
 13 S     16.0965    16.0000    -0.0965     2.2969     2.2969     0.0000
 14 P     14.3579    15.0000     0.6421     4.9370     4.9370     0.0000
 15 S     16.3369    16.0000    -0.3369     2.0116     2.0116    -0.0000
 16 O      8.3581     8.0000    -0.3581     2.1802     2.1802     0.0000
 17 C      6.1021     6.0000    -0.1021     3.8342     3.8342     0.0000
 18 O      8.3989     8.0000    -0.3989     2.1676     2.1676    -0.0000
 19 C      6.0889     6.0000    -0.0889     3.8247     3.8247     0.0000
 20 H      0.8897     1.0000     0.1103     0.9589     0.9589     0.0000
 21 H      0.8882     1.0000     0.1118     0.9580     0.9580     0.0000
 22 H      0.8880     1.0000     0.1120     0.9555     0.9555     0.0000
 23 H      0.8723     1.0000     0.1277     0.9728     0.9728     0.0000
 24 H      0.8964     1.0000     0.1036     0.9715     0.9715     0.0000
 25 H      0.8840     1.0000     0.1160     0.9627     0.9627     0.0000
 26 H      0.8887     1.0000     0.1113     0.9863     0.9863     0.0000
 27 H      0.8714     1.0000     0.1286     0.9844     0.9844     0.0000
 28 H      0.8957     1.0000     0.1043     0.9518     0.9518     0.0000
 29 H      0.8675     1.0000     0.1325     0.9687     0.9687    -0.0000
 30 H      0.8823     1.0000     0.1177     0.9548     0.9548    -0.0000
 31 H      0.8885     1.0000     0.1115     0.9559     0.9559    -0.0000
 32 H      0.8861     1.0000     0.1139     0.9793     0.9793    -0.0000
 33 H      0.8757     1.0000     0.1243     0.9556     0.9556     0.0000
 34 H      0.8839     1.0000     0.1161     0.9676     0.9676     0.0000
 35 H      0.8895     1.0000     0.1105     0.9502     0.9502     0.0000
 36 H      0.8835     1.0000     0.1165     0.9967     0.9967    -0.0000
 37 H      0.8844     1.0000     0.1156     0.9753     0.9753    -0.0000

  Mayer bond orders larger than 0.100000
B(  0-C ,  1-C ) :   1.1515 B(  0-C , 20-H ) :   0.9512 B(  0-C , 21-H ) :   0.9490 
B(  0-C , 22-H ) :   0.9447 B(  1-C ,  2-O ) :   0.8986 B(  1-C , 23-H ) :   0.9214 
B(  1-C , 24-H ) :   0.9245 B(  2-O ,  3-C ) :   1.2553 B(  3-C ,  4-O ) :   1.9846 
B(  3-C ,  5-C ) :   1.0104 B(  5-C ,  6-C ) :   1.0329 B(  5-C , 25-H ) :   0.8858 
B(  5-C , 26-H ) :   0.8813 B(  6-C ,  7-H ) :   0.8713 B(  6-C ,  8-C ) :   0.8946 
B(  6-C , 13-S ) :   1.0388 B(  8-C ,  9-O ) :   1.9883 B(  8-C , 10-O ) :   1.2754 
B( 10-O , 11-C ) :   0.8989 B( 11-C , 12-C ) :   1.1718 B( 11-C , 27-H ) :   0.9119 
B( 11-C , 28-H ) :   0.9370 B( 12-C , 29-H ) :   0.9441 B( 12-C , 30-H ) :   0.9439 
B( 12-C , 31-H ) :   0.9477 B( 13-S , 14-P ) :   0.9285 B( 13-S , 15-S ) :   0.1188 
B( 14-P , 15-S ) :   1.5721 B( 14-P , 16-O ) :   1.1237 B( 14-P , 18-O ) :   1.0667 
B( 16-O , 17-C ) :   0.9310 B( 17-C , 32-H ) :   0.9367 B( 17-C , 33-H ) :   0.9603 
B( 17-C , 34-H ) :   0.9464 B( 18-O , 19-C ) :   0.9348 B( 19-C , 35-H ) :   0.9562 
B( 19-C , 36-H ) :   0.9393 B( 19-C , 37-H ) :   0.9486 

-------
TIMINGS
-------

Total SCF time: 0 days 0 hours 0 min 18 sec 

Total time                  ....      18.157 sec
Sum of individual times     ....      18.123 sec  ( 99.8%)

SCF preparation             ....       4.302 sec  ( 23.7%)
Fock matrix formation       ....       5.258 sec  ( 29.0%)
  Startup                   ....       0.010 sec  (  0.2% of F)
  Split-RI-J                ....       3.258 sec  ( 62.0% of F)
  XC integration            ....       1.949 sec  ( 37.1% of F)
    Basis function eval.    ....       0.764 sec  ( 39.2% of XC)
    Density eval.           ....       0.510 sec  ( 26.2% of XC)
    XC-Functional eval.     ....       0.101 sec  (  5.2% of XC)
    XC-Potential eval.      ....       0.467 sec  ( 23.9% of XC)
Diagonalization             ....       0.000 sec  (  0.0%)
Density matrix formation    ....       0.014 sec  (  0.1%)
Total Energy calculation    ....       0.001 sec  (  0.0%)
Population analysis         ....       8.452 sec  ( 46.6%)
Orbital Transformation      ....       0.020 sec  (  0.1%)
Orbital Orthonormalization  ....       0.000 sec  (  0.0%)
DIIS solution               ....       0.026 sec  (  0.1%)
  MO trafo                  ....       0.000 sec  (  0.0 % of DIIS)
  Orb grad                  ....       0.000 sec  (  0.0 % of DIIS)
  Energy W gradient         ....       0.000 sec  (  0.0 % of DIIS)
  DIIS error                ....       0.004 sec  ( 16.5 % of DIIS)
  DIIS work                 ....       0.021 sec  ( 82.5 % of DIIS)
  Form Q                    ....       0.000 sec  (  0.0 % of DIIS)
  Form QpQm                 ....       0.000 sec  (  0.0 % of DIIS)
  Exp/Cayley                ....       0.000 sec  (  0.0 % of DIIS)
  Orb update                ....       0.000 sec  (  0.0 % of DIIS)
  Wake-sleep                ....       0.000 sec  (  1.1 % of DIIS)
SOSCF solution              ....       0.049 sec  (  0.3%)
  MO trafo                  ....       0.032 sec  ( 64.0 % of SOSCF)
  Orb grad                  ....       0.000 sec  (  0.7 % of SOSCF)
  Rot update                ....       0.002 sec  (  4.1 % of SOSCF)
  Step                      ....       0.015 sec  ( 30.5 % of SOSCF)
Finished LeanSCF after  24.7 sec

Maximum memory used throughout the entire LEANSCF-calculation: 34.6 MB


-------------------------------------------------------------------------------
                          DFT DISPERSION CORRECTION                            
                                                                               
                                DFTD4 V3.4.0                                   
-------------------------------------------------------------------------------
The PBE functional is recognized
Active option DFTDOPT                   ...         5   

-------------------------   ----------------
Dispersion correction           -0.055102690
-------------------------   ----------------

------------------   -----------------
gCP correction             0.183584568
------------------   -----------------

-------------------------   --------------------
FINAL SINGLE POINT ENERGY     -1979.002948849502
-------------------------   --------------------


------------------------------------------------------------------------------
                              ORCA PROPERTY CALCULATIONS
------------------------------------------------------------------------------

GBWName                                 ... sp.gbw
Number of atoms                         ...     38
Number of basis functions               ...    316
Max core memory                         ...   1024 MB

Electric properties:
Dipole moment                           ... YES
Quadrupole moment                       ...  NO
Static polarizability (Dipole/Dipole)   ...  NO
Static polarizability (Dipole/Quad.)    ...  NO
Static polarizability (Quad./Quad.)     ...  NO
Static polarizability (Velocity)        ...  NO

Atomic electric properties:
Dipole moment                           ...  NO
Quadrupole moment                       ...  NO
Static polarizability                   ...  NO

Choice of electric origin               ... Center of mass
Position of electric origin             ...     0.000008     0.000000     0.000002

General magnetic properties:
Magnetizability                         ...  NO

EPR properties:
g-Tensor (aka g-matrix)                 ...  NO
Zero-Field splitting spin-orbit         ...  NO
Zero-field splitting spin-spin          ...  NO
Hyperfine couplings                     ...  NO (   0 nuclei)
Quadrupole couplings                    ...  NO (   0 nuclei)
Contact density                         ...  NO (   0 nuclei)

NMR properties:
Chemical shifts                         ...  NO (   0 nuclei)
Spin-rotation constants                 ...  NO (   0 nuclei)
Spin-spin couplings                     ...  NO (   0 nuclei,    0 pairs)

Choice of magnetic origin               ... GIAO
Position of magnetic origin             ...     0.000000     0.000000     0.000000

Properties with geometric perturbations:
SCF Hessian                             ...  NO
IR spectrum                             ...  NO
VCD spectrum                            ...  NO
X-ray spectroscopy properties:
SCF XES/XAS/RIXS spectra                ...  NO


-------------
DIPOLE MOMENT
-------------

Method             : SCF
Type of density    : Electron Density
Multiplicity       :   1
Irrep              :   0
Energy             : -1979.1314307271636608 Eh
Relativity type    : 
Basis              : AO
                                X                 Y                 Z
Electronic contribution:    -13.449546378      -0.960753387      -2.573156545
Nuclear contribution   :     14.463828092       1.428773290       1.657474550
                        -----------------------------------------
Total Dipole Moment    :      1.014281714       0.468019903      -0.915681995
                        -----------------------------------------
Magnitude (a.u.)       :      1.444397293
Magnitude (Debye)      :      3.671366151



--------------------
Rotational spectrum 
--------------------
 
Rotational constants in cm-1:             0.012021             0.009202             0.006922 
Rotational constants in MHz :           360.383486           275.874667           207.525809 

Dipole components along the rotational axes: 
x,y,z [a.u.] :     1.015052     0.388860    -0.951179 
x,y,z [Debye]:     2.580056     0.988403    -2.417705 

 

Dipole moment calculation done in   2.4 sec 

Maximum memory used throughout the entire PROP-calculation: 24.3 MB

--------------------------------
SUGGESTED CITATIONS FOR THIS RUN
--------------------------------

Below you find a list of papers that are relevant to this ORCA run
We neither can nor want to force you to cite these papers, but we appreciate if you do
You receive ORCA, which is the product of decades of hard work by many enthusiastic individuals, for free
The only thing we kindly ask in return is that you cite our papers,
We deeply appreciate it, if you show your appreciation for ORCA by not just citing the generic ORCA reference.

Please note that relegating all ORCA citations to the supporting information does *not* help us.
SI sections are not indexed - citations you put there will not count into any citation statistics
But we need these citations in order to attract the funding resources that allow us to do what we are doing

Therefore, if you are a happy ORCA user, please consider citing a few of the papers listed below in the main body of your paper

In addition to the list printed below, the program has created the file sp.bibtex that contains the list in bibtex format
You can import this file easily into all common literature databanks and citation aid programs


List of essential papers. We consider these as the minimum necessary citations

  1. Neese,F.
     Software update: the ORCA program system, version 5.0
     WIRES Comput. Molec. Sci., 2022 12(1)e1606
     doi.org/10.1002/wcms.1606

List of papers to cite with high priority. The work reported in these papers was absolutely
necessary for this run to complete.
Our perspective: the developers of density functionals and basis sets usually get cited in chemistry papers
Good! But without the algorithms to do something with them, the functionals or basis sets would not do anything.
Hence, in our opinion, the algorithm design and method developments papers are equally worthy of getting cited

  1. Neese,F.
     An improvement of the resolution of the identity approximation for the formation of the Coulomb matrix
     J. Comp. Chem., 2003 24(14)1740-1747
     doi.org/10.1002/jcc.10318
  2. Neese,F.
     The SHARK Integral Generation and Digestion System
     J. Comp. Chem., 2022  1-16
     doi.org/10.1002/jcc.26942
  3. Caldeweyher,E.; Bannwarth,C.; Grimme,S.
     Extension of the D3 dispersion coefficient model
     J. Chem. Phys., 2017 147 034112
     doi.org/10.1063/1.4993215
  4. Caldeweyher,E.; Ehlert,S.; Hansen,A.; Neugebauer,H.; Spicher,S.; Bannwarth,C.; Grimme,S.
     A generally applicable atomic-charge dependent London dispersion correction
     J. Chem. Phys., 2019 150 154122
     doi.org/10.1063/1.5090222
  5. Caldeweyher,E.; Mewes,J.; Ehlert,S.; Grimme,S.
     Extension and evaluation of the D4 London-dispersion model for periodic systems
     Phys. Chem. Chem. Phys., 2020 22(16)8499-8512
     doi.org/10.1039/D0CP00502A
  6. Wittmann,L.; Gordiy,I.; Friede,M.; Helmich-Paris,B.; Grimme,S.; Hansen,A.; Bursch,M.
     Extension of the D3 and D4 London Dispersion Corrections to the full Actinides Series
     Phys. Chem. Chem. Phys., 2024 26(32)21379-21394
     doi.org/https://doi.org/10.1039/D4CP01514B 

List of suggested additional citations. These are papers that are important in the 'surrounding' of 
of this run, or papers that preceded the highly important papers. If you like your results we are grateful for a citation.

  1. Neese,F.
     The ORCA program system
     WIRES Comput. Molec. Sci., 2012 2(1)73-78
     doi.org/10.1002/wcms.81
  2. Neese,F.
     Software update: the ORCA program system, version 4.0
     WIRES Comput. Molec. Sci., 2018 8(1)1-6
     doi.org/10.1002/wcms.1327
  3. Neese,F.; Wennmohs,F.; Becker,U.; Riplinger,C.
     The ORCA quantum chemistry program package
     J. Chem. Phys., 2020 152 Art. No. L224108
     doi.org/10.1063/5.0004608

List of optional additional citations

  1. Neese,F.
     Approximate second-order SCF convergence for spin unrestricted wavefunctions
     Chem. Phys. Lett., 2000 325(1-3)93-98
     doi.org/10.1016/s0009-2614(00)00662-x

Timings for individual modules:

Sum of individual times          ...       28.721 sec (=   0.479 min)
Startup calculation              ...        1.358 sec (=   0.023 min)   4.7 %
SCF iterations                   ...       24.867 sec (=   0.414 min)  86.6 %
Property calculations            ...        2.495 sec (=   0.042 min)   8.7 %
                             ****ORCA TERMINATED NORMALLY****
TOTAL RUN TIME: 0 days 0 hours 1 minutes 33 seconds 304 msec
