41
 energy: -2932.483485325714 gnorm: 0.002006803173 xtb: 6.7.1 (edcfbbe)
C            4.49055568672702       -1.06789245370118       -2.44709675027929
C            4.58520247797264       -1.35348677691646       -0.96894868022789
O            3.26212987593155       -1.49026844914803       -0.34665960477557
P            2.34602791136231       -0.22650953871194        0.05425933874088
S            3.25724579393739        1.43892083351444        0.49068391597758
O            1.41759856066286       -0.87080805780836        1.19624058650393
C            1.75818308605816       -0.76504477378822        2.62305507843955
C            2.91910969738091       -1.65569019155402        2.99276259992107
S            1.00496481348285       -0.17011245292286       -1.58144694675575
C            0.21381418064290        1.47016896560552       -1.33328294104170
S           -0.78878934244705        1.72553506479237        0.18564831624062
P           -2.35053284962969        0.33288575100898       -0.13918444325935
S           -3.04102677486622        0.21117847173187       -1.95646665057174
O           -3.38477043835770        0.76307396479673        1.01927675898750
C           -4.55341345481931        1.61892103334911        0.77419643274833
C           -4.18417420115292        3.08010124947080        0.71603407185796
O           -1.72330146484717       -1.00414894905001        0.49250920038924
C           -2.21662059789877       -2.33993560386984        0.12776463414263
C           -3.54977307654247       -2.64025203111500        0.76795512495562
H            5.49885889378578       -1.09688317192484       -2.87247211026346
H            3.88143581225259       -1.82174665813108       -2.95416189897992
H            4.06786686989626       -0.07816990432493       -2.64121848410622
H            5.13676459161229       -0.57353234227383       -0.43546790361353
H            5.05786232411636       -2.31862816135336       -0.77595072794034
H            1.95755192070466        0.28668441365011        2.85068538645316
H            0.83814750059860       -1.06974108861447        3.12608371885946
H            3.84684316935458       -1.32829611342305        2.51445221221401
H            3.06251897722811       -1.61147556170834        4.07716378332026
H            2.72064351619553       -2.69405582592770        2.71298579924272
H           -0.41717789055232        1.62074471526465       -2.21408794336041
H            0.98674569660399        2.24327586782402       -1.29976039122005
H           -5.03893846410143        1.28077855609081       -0.14613083887424
H           -5.20769354278620        1.40380293483750        1.62143940006822
H           -3.56826482866073        3.30640001502212       -0.15851668147395
H           -5.10488728250063        3.66796309255048        0.64645359130816
H           -3.64833828981313        3.38565838340015        1.61933625489718
H           -2.26042547466196       -2.40322159689293       -0.96383288909226
H           -1.43349621373789       -3.00816517706388        0.49183866591413
H           -4.33932541051655       -1.99060038453472        0.37869379573295
H           -3.82067414344539       -3.67689340412587        0.54275566023201
H           -3.49657537923296       -2.52588516744725        1.85432111933479
41
 energy: -2932.483489264282 gnorm: 0.001657280117 xtb: 6.7.1 (edcfbbe)
C            4.49082993956452       -1.06704210291172       -2.44705740524341
C            4.58577100069018       -1.35269075531410       -0.96895124012641
O            3.26225140216900       -1.48909515327821       -0.34622862805525
P            2.34514798012401       -0.22590169744392        0.05469652605817
S            3.25859823139699        1.43791860118114        0.49175045428290
O            1.41667536401545       -0.87065619037163        1.19641862769942
C            1.75881425543080       -0.76562370064240        2.62275723789674
C            2.91974279337876       -1.65637242599427        2.99175342095335
S            1.00944004702142       -0.16982066121887       -1.58720683374454
C            0.21846933390712        1.46891733517606       -1.33340793498714
S           -0.78804241578186        1.72082763002823        0.18253179369503
P           -2.35374492454773        0.33254332552891       -0.13771890450439
S           -3.04100907237416        0.21312158974095       -1.95642447656828
O           -3.38862989951033        0.76179921979318        1.02054553157691
C           -4.55633843505432        1.61903433463430        0.77442293585326
C           -4.18519170819957        3.07978532201790        0.71578056100848
O           -1.72448869079369       -1.00377587551956        0.49330702486178
C           -2.21728274066427       -2.33987992913583        0.12893087255620
C           -3.55036245102518       -2.63942865828519        0.76916986832293
H            5.49950064246720       -1.09579550332119       -2.87195499174006
H            3.88205713257484       -1.82120499253957       -2.95436168162603
H            4.06820762217202       -0.07711718491391       -2.64090142416229
H            5.13768614964570       -0.57312760166047       -0.43538759807032
H            5.05789395258572       -2.31821274150542       -0.77632766362517
H            1.95806760018277        0.28607960012944        2.85061044062338
H            0.83927635329618       -1.07069004691194        3.12640567671504
H            3.84789212270387       -1.32849779681854        2.51387833947881
H            3.06265898632411       -1.61260542899729        4.07642869202145
H            2.72138131499178       -2.69473066405498        2.71128965808764
H           -0.41274553635269        1.61964495918259       -2.21417504282418
H            0.98963143228854        2.24396996739519       -1.29970841979561
H           -5.04160591674365        1.28118934161059       -0.14610636376807
H           -5.21105932658535        1.40463046104219        1.62147416354802
H           -3.56928435343191        3.30546990787715       -0.15916720008378
H           -5.10547942775731        3.66879988248761        0.64600482402841
H           -3.64895300386594        3.38538988133567        1.61901676308038
H           -2.26113192901830       -2.40394033966730       -0.96266047437943
H           -1.43406953624199       -3.00774356404351        0.49340794258565
H           -4.33986195744469       -1.98995375932551        0.37895727560157
H           -3.82139878016117       -3.67622119112386        0.54428807398477
H           -3.49744084455034       -2.52431816545069        1.85552226637686
41
 energy: -2932.483498363297 gnorm: 0.000713883792 xtb: 6.7.1 (edcfbbe)
C            4.49190689901412       -1.06641987409756       -2.44692164193065
C            4.58826883252184       -1.35308120700629       -0.96909972932794
O            3.26507975312594       -1.49008817327186       -0.34513462163509
P            2.34759543908758       -0.22705201249720        0.05556366407557
S            3.25940103881262        1.43756603156153        0.49276178343909
O            1.41724160061276       -0.87147616305206        1.19584683918942
C            1.75951679959262       -0.76670125243240        2.62212890298190
C            2.92053169355877       -1.65737803750053        2.99063797273313
S            1.00874790396990       -0.16796625499672       -1.58340307877528
C            0.21462940211345        1.46875877062098       -1.33180782974534
S           -0.78925030957645        1.72326884694989        0.18480847503907
P           -2.35325953326239        0.33294302215290       -0.13979190706919
S           -3.04396595173228        0.21188473440378       -1.95717548044584
O           -3.38829455382401        0.76146929237208        1.01866717951163
C           -4.55663849666219        1.61888654678937        0.77313527923546
C           -4.18562285522374        3.07963502964357        0.71467886485766
O           -1.72386063856506       -1.00329506510797        0.49141234873561
C           -2.21821839003524       -2.33961725944483        0.12959944110950
C           -3.55112178262566       -2.63784385857299        0.77052242517176
H            5.50058455128938       -1.09436570258869       -2.87208841064819
H            3.88335344093582       -1.82068080002681       -2.95447558357915
H            4.06882894388442       -0.07644228706702       -2.63987472727642
H            5.14017189575473       -0.57365452437266       -0.43542076842456
H            5.06027000438882       -2.31881381333019       -0.77734810951799
H            1.95857670722898        0.28499135851477        2.85023452928762
H            0.84023099197274       -1.07213611424461        3.12598395319001
H            3.84910875700860       -1.32890805256666        2.51356138018149
H            3.06267767381697       -1.61423568829795        4.07555309677561
H            2.72254704041256       -2.69566746946459        2.70930835865138
H           -0.41507990392830        1.61935819221251       -2.21382911933043
H            0.98584992354890        2.24401431856062       -1.29839725876358
H           -5.04253020104976        1.28124816331266       -0.14708534742425
H           -5.21102449223344        1.40446403570160        1.62047042297003
H           -3.57029660750446        3.30547173929384       -0.16074660424060
H           -5.10602581666001        3.66889115115903        0.64539487958892
H           -3.64901614153922        3.38524816069674        1.61779253761612
H           -2.26243500252311       -2.40532539254418       -0.96189572381390
H           -1.43518818571171       -3.00732826682713        0.49474368261063
H           -4.34055003277965       -1.98862268528156        0.37941219957453
H           -3.82270405232675       -3.67481951782682        0.54671353642342
H           -3.49815122045417       -2.52149657783586        1.85676192814544
41
 energy: -2932.483502572394 gnorm: 0.000510555198 xtb: 6.7.1 (edcfbbe)
C            4.49317837297191       -1.06495682551387       -2.44679853874984
C            4.58951574920916       -1.35248551554945       -0.96920894188360
O            3.26616736545559       -1.48930503729300       -0.34482813119735
P            2.34887957177348       -0.22621458457179        0.05575613039986
S            3.26107355941203        1.43768972323062        0.49567111542877
O            1.41761267247245       -0.87088727789211        1.19517048046517
C            1.76059924204785       -0.76789841137893        2.62152218704272
C            2.92179110439026       -1.65871136053316        2.98908830872423
S            1.00885605027284       -0.16888876836127       -1.58202880544361
C            0.21568091246657        1.46816038896636       -1.33123712460150
S           -0.79026445632049        1.72304243900270        0.18341678626321
P           -2.35445529454218        0.33250811559101       -0.14019889659808
S           -3.04387019045391        0.21249720159898       -1.95798689871729
O           -3.38997434994239        0.76072460456935        1.01805429878227
C           -4.55812861722841        1.61882384147166        0.77223743012546
C           -4.18647420722954        3.07931805561121        0.71335234250224
O           -1.72447829548306       -1.00364396226763        0.49074375556065
C           -2.22000474293670       -2.34007246616620        0.13088443554957
C           -3.55294829884620       -2.63627139412856        0.77246197656751
H            5.50186139249662       -1.09232624946587       -2.87201322535635
H            3.88493257368902       -1.81909281324182       -2.95478401258981
H            4.06986290757402       -0.07502568424676       -2.63915574122942
H            5.14194523460026       -0.57368116768986       -0.43520307310829
H            5.06105058240158       -2.31857580062558       -0.77819201542760
H            1.95955094261662        0.28357943586204        2.85065128703364
H            0.84157663670784       -1.07394579119126        3.12551709155915
H            3.85052803597204       -1.32942238414342        2.51298824000039
H            3.06346272048029       -1.61710567215863        4.07411461514838
H            2.72424601522201       -2.69665561446608        2.70626476634964
H           -0.41348572490303        1.61875272406583       -2.21370546315380
H            0.98615871463505        2.24417438732478       -1.29758510550306
H           -5.04400002319234        1.28089264980913       -0.14787134006113
H           -5.21238228008786        1.40473942238284        1.61974989609831
H           -3.57149041808022        3.30477978369689       -0.16237898932156
H           -5.10665126315780        3.66894304279872        0.64436112338667
H           -3.64942218584276        3.38486845968460        1.61617906370790
H           -2.26430944726606       -2.40713858427090       -0.96053351911221
H           -1.43724353271413       -3.00763225767993        0.49690678531633
H           -4.34203594850206       -1.98719046159028        0.38045393397693
H           -3.82520109595724       -3.67340406302042        0.55025881311934
H           -3.49981597867610       -2.51824761806898        1.85850565958231
41
 energy: -2932.483502572394 gnorm: 0.000510555198 xtb: 6.7.1 (edcfbbe)
C            4.49317837297191       -1.06495682551387       -2.44679853874984
C            4.58951574920916       -1.35248551554945       -0.96920894188360
O            3.26616736545559       -1.48930503729300       -0.34482813119735
P            2.34887957177348       -0.22621458457179        0.05575613039986
S            3.26107355941203        1.43768972323062        0.49567111542877
O            1.41761267247245       -0.87088727789211        1.19517048046517
C            1.76059924204785       -0.76789841137893        2.62152218704272
C            2.92179110439026       -1.65871136053316        2.98908830872423
S            1.00885605027284       -0.16888876836127       -1.58202880544361
C            0.21568091246657        1.46816038896636       -1.33123712460150
S           -0.79026445632049        1.72304243900270        0.18341678626321
P           -2.35445529454218        0.33250811559101       -0.14019889659808
S           -3.04387019045391        0.21249720159898       -1.95798689871729
O           -3.38997434994239        0.76072460456935        1.01805429878227
C           -4.55812861722841        1.61882384147166        0.77223743012546
C           -4.18647420722954        3.07931805561121        0.71335234250224
O           -1.72447829548306       -1.00364396226763        0.49074375556065
C           -2.22000474293670       -2.34007246616620        0.13088443554957
C           -3.55294829884620       -2.63627139412856        0.77246197656751
H            5.50186139249662       -1.09232624946587       -2.87201322535635
H            3.88493257368902       -1.81909281324182       -2.95478401258981
H            4.06986290757402       -0.07502568424676       -2.63915574122942
H            5.14194523460026       -0.57368116768986       -0.43520307310829
H            5.06105058240158       -2.31857580062558       -0.77819201542760
H            1.95955094261662        0.28357943586204        2.85065128703364
H            0.84157663670784       -1.07394579119126        3.12551709155915
H            3.85052803597204       -1.32942238414342        2.51298824000039
H            3.06346272048029       -1.61710567215863        4.07411461514838
H            2.72424601522201       -2.69665561446608        2.70626476634964
H           -0.41348572490303        1.61875272406583       -2.21370546315380
H            0.98615871463505        2.24417438732478       -1.29758510550306
H           -5.04400002319234        1.28089264980913       -0.14787134006113
H           -5.21238228008786        1.40473942238284        1.61974989609831
H           -3.57149041808022        3.30477978369689       -0.16237898932156
H           -5.10665126315780        3.66894304279872        0.64436112338667
H           -3.64942218584276        3.38486845968460        1.61617906370790
H           -2.26430944726606       -2.40713858427090       -0.96053351911221
H           -1.43724353271413       -3.00763225767993        0.49690678531633
H           -4.34203594850206       -1.98719046159028        0.38045393397693
H           -3.82520109595724       -3.67340406302042        0.55025881311934
H           -3.49981597867610       -2.51824761806898        1.85850565958231
