
                                 *****************
                                 * O   R   C   A *
                                 *****************

                                            #,                                       
                                            ###                                      
                                            ####                                     
                                            #####                                    
                                            ######                                   
                                           ########,                                 
                                     ,,################,,,,,                         
                               ,,#################################,,                 
                          ,,##########################################,,             
                       ,#########################################, ''#####,          
                    ,#############################################,,   '####,        
                  ,##################################################,,,,####,       
                ,###########''''           ''''###############################       
              ,#####''   ,,,,##########,,,,          '''####'''          '####       
            ,##' ,,,,###########################,,,                        '##       
           ' ,,###''''                  '''############,,,                           
         ,,##''                                '''############,,,,        ,,,,,,###''
      ,#''                                            '''#######################'''  
     '                                                          ''''####''''         
             ,#######,   #######,   ,#######,      ##                                
            ,#'     '#,  ##    ##  ,#'     '#,    #''#        ,####,   ,####,        
            ##       ##  ##   ,#'  ##            #'  '#       #'       #'  '#        
            ##       ##  #######   ##           ,######,      #####,   #    #        
            '#,     ,#'  ##    ##  '#,     ,#' ,#      #,     #,   #   #,  ,#        
             '#######'   ##     ##  '#######'  #'      '#     '####' # '####'        



                #########################################################
                #                        -***-                          #
                #          Department of theory and spectroscopy        #
                #                                                       #
                #                      Frank Neese                      #
                #                                                       #
                #     Directorship, Architecture, Infrastructure        #
                #                    SHARK, DRIVERS                     #
                #        Core code/Algorithms in most modules           #
                #                                                       #
                #        Max Planck Institute fuer Kohlenforschung      #
                #                Kaiser Wilhelm Platz 1                 #
                #                 D-45470 Muelheim/Ruhr                 #
                #                      Germany                          #
                #                                                       #
                #                  All rights reserved                  #
                #                        -***-                          #
                #########################################################


                         Program Version 6.0.0  -   RELEASE  -


 With contributions from (in alphabetic order):
   Daniel Aravena         : Magnetic Suceptibility
   Michael Atanasov       : Ab Initio Ligand Field Theory (pilot matlab implementation)
   Alexander A. Auer      : GIAO ZORA, VPT2 properties, NMR spectrum
   Ute Becker             : All parallelization in ORCA, NUMFREQ, NUMCALC
   Giovanni Bistoni       : ED, misc. LED, open-shell LED, HFLD
   Martin Brehm           : Molecular dynamics
   Dmytro Bykov           : pre 5.0 version of the SCF Hessian
   Marcos Casanova-Páez   : Triplet and SCS-CIS(D). UHF-(DLPNO)-IP/EA/STEOM-CCSD. UHF-CVS-IP/STEOM-CCSD
   Vijay G. Chilkuri      : MRCI spin determinant printing, contributions to CSF-ICE
   Pauline Colinet        : FMM embedding
   Dipayan Datta          : RHF DLPNO-CCSD density
   Achintya Kumar Dutta   : EOM-CC, STEOM-CC
   Nicolas Foglia         : Exact transition moments, OPA infrastructure, MCD improvements
   Dmitry Ganyushin       : Spin-Orbit,Spin-Spin,Magnetic field MRCI
   Miquel Garcia          : C-PCM and meta-GGA Hessian, CCSD/C-PCM, Gaussian charge scheme
   Tiago L. C. Gouveia    : GS-ROHF, GS-ROCIS
   Yang Guo               : DLPNO-NEVPT2, F12-NEVPT2, CIM, IAO-localization
   Andreas Hansen         : Spin unrestricted coupled pair/coupled cluster methods
   Ingolf Harden          : AUTO-CI MPn and infrastructure 
   Benjamin Helmich-Paris : MC-RPA, TRAH-(SCF,CASSCF), AVAS, COSX integrals, SCF dyn. polar.
   Lee Huntington         : MR-EOM, pCC
   Robert Izsak           : Overlap fitted RIJCOSX, COSX-SCS-MP3, EOM
   Riya Kayal             : Wick's Theorem for AUTO-CI, AUTO-CI UHF-CCSDT
   Emily Kempfer          : AUTO-CI, RHF CISDT and CCSDT
   Christian Kollmar      : KDIIS, OOCD, Brueckner-CCSD(T), CCSD density, CASPT2, CASPT2-K, improved NEVPT2
   Axel Koslowski         : Symmetry handling
   Simone Kossmann        : Meta GGA functionals, TD-DFT gradient, OOMP2, (MP2 Hessian; deprecated post 5.0)
   Lucas Lang             : DCDCAS
   Marvin Lechner         : AUTO-CI (C++ implementation), FIC-MRCC
   Spencer Leger          : CASSCF response
   Dagmar Lenk            : GEPOL surface, SMD, ORCA-2-JSON
   Dimitrios Liakos       : Extrapolation schemes; Compound Job, initial MDCI parallelization
   Dimitrios Manganas     : Further ROCIS development; embedding schemes. LFT, Crystal Embedding
   Dimitrios Pantazis     : SARC Basis sets
   Anastasios Papadopoulos: AUTO-CI, single reference methods and gradients
   Taras Petrenko         : pre 6.0 DFT Hessian and TD-DFT gradient, (ASA, deprecated), ECA, 1-Electron XAS/XES, NRVS
   Peter Pinski           : DLPNO-MP2, DLPNO-MP2 Gradient
   Christoph Reimann      : Effective Core Potentials
   Marius Retegan         : Local ZFS, SOC
   Christoph Riplinger    : Optimizer, TS searches, QM/MM, DLPNO-CCSD(T), (RO)-DLPNO pert. Triples
   Michael Roemelt        : Original ROCIS implementation
   Masaaki Saitow         : Open-shell DLPNO-CCSD energy and density
   Barbara Sandhoefer     : DKH picture change effects
   Kantharuban Sivalingam : CASSCF convergence/infrastructure, NEVPT2 and variants, FIC-MRCI
   Bernardo de Souza      : ESD, SOC TD-DFT
   Georgi Stoychev        : AutoAux, RI-MP2 NMR, DLPNO-MP2 response, X2C
   Van Anh Tran           : RI-MP2 g-tensors
   Willem Van den Heuvel  : Paramagnetic NMR
   Zikuan Wang            : NOTCH, Electric field optimization 
   Frank Wennmohs         : Technical directorship and infrastructure
   Hang Xu                : AUTO-CI-Response properties 


 We gratefully acknowledge several colleagues who have allowed us to
 interface, adapt or use parts of their codes:
   Stefan Grimme, W. Hujo, H. Kruse, P. Pracht,  : VdW corrections, initial TS optimization,
                  C. Bannwarth, S. Ehlert,         DFT functionals, gCP, sTDA/sTD-DF
                  L. Wittmann, M. Mueller
   Ed Valeev, F. Pavosevic, A. Kumar             : LibInt (2-el integral package), F12 methods
   Garnet Chan, S. Sharma, J. Yang, R. Olivares  : DMRG
   Ulf Ekstrom                                   : XCFun DFT Library
   Mihaly Kallay                                 : mrcc  (arbitrary order and MRCC methods)
   Frank Weinhold                                : gennbo (NPA and NBO analysis)
   Simon Mueller                                 : openCOSMO-RS
   Christopher J. Cramer and Donald G. Truhlar   : smd solvation model
   Lars Goerigk                                  : TD-DFT with DH, B97 family of functionals
   V. Asgeirsson, H. Jonsson                     : NEB implementation
   FAccTs GmbH                                   : IRC, NEB, NEB-TS, DLPNO-Multilevel, CI-OPT
                                                   MM, QMMM, 2- and 3-layer-ONIOM, Crystal-QMMM,
                                                   LR-CPCM, SF, NACMEs, symmetry and pop. for TD-DFT,
                                                   nearIR, NL-DFT gradient (VV10), updates on ESD,
                                                   ML-optimized integration grids, MBIS, APM,
                                                   GOAT, DOCKER, SOLVATOR, interface openCOSMO-RS
   S Lehtola, MJT Oliveira, MAL Marques          : LibXC Library
   Liviu Ungur et al                             : ANISO software


 Your calculation uses the libint2 library for the computation of 2-el integrals
 For citations please refer to: http://libint.valeyev.net

 Your ORCA version has been built with support for libXC version: 6.2.2
 For citations please refer to: https://libxc.gitlab.io

 This ORCA versions uses:
   CBLAS   interface :  Fast vector & matrix operations
   LAPACKE interface :  Fast linear algebra routines
   SCALAPACK package :  Parallel linear algebra routines
   Shared memory     :  Shared parallel matrices
   BLAS/LAPACK       :  OpenBLAS 0.3.27  USE64BITINT DYNAMIC_ARCH NO_AFFINITY SkylakeX SINGLE_THREADED
        Core in use  :  SkylakeX
   Copyright (c) 2011-2014, The OpenBLAS Project


Your calculation utilizes the geometrical counterpoise correction gCP
Please cite in your paper:
H.Kruse, S. Grimme J.Chem.Phys., 136, (2012), 154101 
   

Your calculation utilizes the atom-pairwise dispersion correction
based on EEQ partial charges (D4)


Your calculation utilizes the SMD solvation module
Please cite in your paper:
A.V. Marenich, C.J. Cramer, D.G. Truhlar J. Phys. Chem. B, 113, (2009), 6378 

================================================================================

----- Orbital basis set information -----
Your calculation utilizes the basis: def2-mTZVPP
   Stefan Grimme, Andreas Hansen, Sebastian Ehlert, and Jan-Michael Mewes 
   J. Chem. Phys. 154, 064103 (2021). DOI: 10.1063/5.0040021

----- AuxJ basis set information -----
Your calculation utilizes the auxiliary basis: def2/J
   F. Weigend, Phys. Chem. Chem. Phys. 8, 1057 (2006).

================================================================================
                                        WARNINGS
                       Please study these warnings very carefully!
================================================================================

Using LibXC functional ID 497 : Re-regularized SCAN exchange by Furness et al
[ 1]  J. W. Furness, A. D. Kaplan, J. Ning, J. P. Perdew, and J. Sun.,  J. Phys. Chem. Lett. 11, 8208-8215 (2020)
[ 2]  J. W. Furness, A. D. Kaplan, J. Ning, J. P. Perdew, and J. Sun.,  J. Phys. Chem. Lett. 11, 9248-9248 (2020)
Using LibXC functional ID 498 : Re-regularized SCAN correlation by Furness et al
[ 1]  J. W. Furness, A. D. Kaplan, J. Ning, J. P. Perdew, and J. Sun.,  J. Phys. Chem. Lett. 11, 8208-8215 (2020)
[ 2]  J. W. Furness, A. D. Kaplan, J. Ning, J. P. Perdew, and J. Sun.,  J. Phys. Chem. Lett. 11, 9248-9248 (2020)
Using LibXC functional ID 497 : Re-regularized SCAN exchange by Furness et al
[ 1]  J. W. Furness, A. D. Kaplan, J. Ning, J. P. Perdew, and J. Sun.,  J. Phys. Chem. Lett. 11, 8208-8215 (2020)
[ 2]  J. W. Furness, A. D. Kaplan, J. Ning, J. P. Perdew, and J. Sun.,  J. Phys. Chem. Lett. 11, 9248-9248 (2020)
Using LibXC functional ID 498 : Re-regularized SCAN correlation by Furness et al
[ 1]  J. W. Furness, A. D. Kaplan, J. Ning, J. P. Perdew, and J. Sun.,  J. Phys. Chem. Lett. 11, 8208-8215 (2020)
[ 2]  J. W. Furness, A. D. Kaplan, J. Ning, J. P. Perdew, and J. Sun.,  J. Phys. Chem. Lett. 11, 9248-9248 (2020)

================================================================================
                                       INPUT FILE
================================================================================
NAME = sp_solv.inp
|  1> ! r2scan-3c def2/J RI DEFGRID2 scfconv6 printgap
|  2> %output
|  3>     printlevel normal
|  4> end
|  5> %cpcm
|  6>     smd true
|  7>     smdsolvent "water"
|  8> end
|  9> * xyz 0 1
| 10> C -3.0652789961 -0.3928264648 -6.44561e-05
| 11> C -1.6074526625 -0.0423741252 0.0001478052
| 12> C -1.1781055836 1.2755838998 4.85988e-05
| 13> C 0.1740117745 1.5711828477 -9.42371e-05
| 14> C 1.1318564337 0.5685114897 -0.0001128621
| 15> C 0.710450696 -0.7655186407 -3.99739e-05
| 16> C -0.6466714341 -1.0464986965 9.92972e-05
| 17> C 1.712176662 -1.8800322645 -3.87948e-05
| 18> C 2.590695969 0.9103999083 6.96805e-05
| 19> H -3.3129153323 -0.9810108329 -0.8824997482
| 20> H -3.3114319676 -0.9888446472 0.8774683904
| 21> H -3.679278535 0.5039253213 0.0043323054
| 22> H -1.9018711592 2.0782785956 9.22336e-05
| 23> H 0.4901242372 2.6051769912 -1.5219e-05
| 24> H -0.9707019884 -2.0785342515 9.10515e-05
| 25> H 2.3516013399 -1.8188587129 0.8795560291
| 26> H 1.2131201647 -2.8453190368 -0.0003455151
| 27> H 2.3520350379 -1.8185494111 -0.8792958264
| 28> H 2.7316584388 1.9880325787 -0.0008037304
| 29> H 3.0809919377 0.4962998877 0.880189997
| 30> H 3.081647667 0.4947660003 -0.8789494077
| 31> *
| 32> 
| 33>                          ****END OF INPUT****
================================================================================

                       ****************************
                       * Single Point Calculation *
                       ****************************

---------------------------------
CARTESIAN COORDINATES (ANGSTROEM)
---------------------------------
  C     -3.065279   -0.392826   -0.000064
  C     -1.607453   -0.042374    0.000148
  C     -1.178106    1.275584    0.000049
  C      0.174012    1.571183   -0.000094
  C      1.131856    0.568511   -0.000113
  C      0.710451   -0.765519   -0.000040
  C     -0.646671   -1.046499    0.000099
  C      1.712177   -1.880032   -0.000039
  C      2.590696    0.910400    0.000070
  H     -3.312915   -0.981011   -0.882500
  H     -3.311432   -0.988845    0.877468
  H     -3.679279    0.503925    0.004332
  H     -1.901871    2.078279    0.000092
  H      0.490124    2.605177   -0.000015
  H     -0.970702   -2.078534    0.000091
  H      2.351601   -1.818859    0.879556
  H      1.213120   -2.845319   -0.000346
  H      2.352035   -1.818549   -0.879296
  H      2.731658    1.988033   -0.000804
  H      3.080992    0.496300    0.880190
  H      3.081648    0.494766   -0.878949

----------------------------
CARTESIAN COORDINATES (A.U.)
----------------------------
  NO LB      ZA    FRAG     MASS         X           Y           Z
   0 C     6.0000    0    12.011   -5.792538   -0.742334   -0.000122
   1 C     6.0000    0    12.011   -3.037645   -0.080075    0.000279
   2 C     6.0000    0    12.011   -2.226297    2.410504    0.000092
   3 C     6.0000    0    12.011    0.328835    2.969105   -0.000178
   4 C     6.0000    0    12.011    2.138899    1.074331   -0.000213
   5 C     6.0000    0    12.011    1.342557   -1.446621   -0.000076
   6 C     6.0000    0    12.011   -1.222032   -1.977596    0.000188
   7 C     6.0000    0    12.011    3.235545   -3.552746   -0.000073
   8 C     6.0000    0    12.011    4.895706    1.720406    0.000132
   9 H     1.0000    0     1.008   -6.260503   -1.853842   -1.667683
  10 H     1.0000    0     1.008   -6.257700   -1.868646    1.658175
  11 H     1.0000    0     1.008   -6.952829    0.952281    0.008187
  12 H     1.0000    0     1.008   -3.594016    3.927377    0.000174
  13 H     1.0000    0     1.008    0.926201    4.923071   -0.000029
  14 H     1.0000    0     1.008   -1.834361   -3.927860    0.000172
  15 H     1.0000    0     1.008    4.443883   -3.437145    1.662120
  16 H     1.0000    0     1.008    2.292465   -5.376874   -0.000653
  17 H     1.0000    0     1.008    4.444702   -3.436560   -1.661628
  18 H     1.0000    0     1.008    5.162086    3.756837   -0.001519
  19 H     1.0000    0     1.008    5.822231    0.937871    1.663318
  20 H     1.0000    0     1.008    5.823470    0.934972   -1.660974

--------------------------------
INTERNAL COORDINATES (ANGSTROEM)
--------------------------------
 C      0   0   0     0.000000000000     0.00000000     0.00000000
 C      1   0   0     1.499358031400     0.00000000     0.00000000
 C      2   1   0     1.386128522058   121.56095594     0.00000000
 C      3   2   1     1.384052061332   120.37583478   180.01648854
 C      4   3   2     1.386656498077   121.35823434     0.00000000
 C      5   4   3     1.399006501019   118.77906003     0.00000000
 C      6   5   4     1.385904140683   119.22807605     0.00000000
 C      6   5   4     1.498531123666   120.51999937   180.00081025
 C      5   4   3     1.498365947908   120.50057260   180.01501002
 H      1   2   3     1.089025550952   110.33137559   120.21213206
 H      1   2   3     1.088987077892   110.33995902   239.24671147
 H      1   2   3     1.086820376674   110.88188665   359.73902305
 H      3   2   1     1.080812372705   119.91607880     0.00000000
 H      4   3   2     1.081235859612   119.33136846   180.00941287
 H      7   6   5     1.081708457475   119.12815345   179.99609257
 H      8   6   5     1.089170866464   110.52838639    59.58397184
 H      8   6   5     1.086662796985   110.71164823   180.02074531
 H      8   6   5     1.089170239260   110.53168437   300.45813619
 H      9   5   4     1.086813393850   110.64199540   359.94316129
 H      9   5   4     1.089256964862   110.58519047   120.33261926
 H      9   5   4     1.089247296379   110.58954660   239.54908392

---------------------------
INTERNAL COORDINATES (A.U.)
---------------------------
 C      0   0   0     0.000000000000     0.00000000     0.00000000
 C      1   0   0     2.833376056041     0.00000000     0.00000000
 C      2   1   0     2.619403293107   121.56095594     0.00000000
 C      3   2   1     2.615479351006   120.37583478   180.01648854
 C      4   3   2     2.620401023187   121.35823434     0.00000000
 C      5   4   3     2.643739146502   118.77906003     0.00000000
 C      6   5   4     2.618979273757   119.22807605     0.00000000
 C      6   5   4     2.831813426886   120.51999937   180.00081025
 C      5   4   3     2.831501289939   120.50057260   180.01501002
 H      1   2   3     2.057960044143   110.33137559   120.21213206
 H      1   2   3     2.057887340595   110.33995902   239.24671147
 H      1   2   3     2.053792868680   110.88188665   359.73902305
 H      3   2   1     2.042439386567   119.91607880     0.00000000
 H      4   3   2     2.043239660841   119.33136846   180.00941287
 H      7   6   5     2.044132741373   119.12815345   179.99609257
 H      8   6   5     2.058234650663   110.52838639    59.58397184
 H      8   6   5     2.053495086223   110.71164823   180.02074531
 H      8   6   5     2.058233465419   110.53168437   300.45813619
 H      9   5   4     2.053779673054   110.64199540   359.94316129
 H      9   5   4     2.058397353056   110.58519047   120.33261926
 H      9   5   4     2.058379082270   110.58954660   239.54908392

---------------------
BASIS SET INFORMATION
---------------------
There are 2 groups of distinct atoms

 Group   1 Type C   : 11s6p1d contracted to 5s3p1d pattern {62111/411/1}
 Group   2 Type H   : 4s1p contracted to 2s1p pattern {31/1}

Atom   0C    basis set group =>   1
Atom   1C    basis set group =>   1
Atom   2C    basis set group =>   1
Atom   3C    basis set group =>   1
Atom   4C    basis set group =>   1
Atom   5C    basis set group =>   1
Atom   6C    basis set group =>   1
Atom   7C    basis set group =>   1
Atom   8C    basis set group =>   1
Atom   9H    basis set group =>   2
Atom  10H    basis set group =>   2
Atom  11H    basis set group =>   2
Atom  12H    basis set group =>   2
Atom  13H    basis set group =>   2
Atom  14H    basis set group =>   2
Atom  15H    basis set group =>   2
Atom  16H    basis set group =>   2
Atom  17H    basis set group =>   2
Atom  18H    basis set group =>   2
Atom  19H    basis set group =>   2
Atom  20H    basis set group =>   2
---------------------------------
AUXILIARY/J BASIS SET INFORMATION
---------------------------------
There are 2 groups of distinct atoms

 Group   1 Type C   : 12s5p4d2f1g contracted to 6s4p3d1f1g pattern {711111/2111/211/2/1}
 Group   2 Type H   : 5s2p1d contracted to 3s1p1d pattern {311/2/1}

Atom   0C    basis set group =>   1
Atom   1C    basis set group =>   1
Atom   2C    basis set group =>   1
Atom   3C    basis set group =>   1
Atom   4C    basis set group =>   1
Atom   5C    basis set group =>   1
Atom   6C    basis set group =>   1
Atom   7C    basis set group =>   1
Atom   8C    basis set group =>   1
Atom   9H    basis set group =>   2
Atom  10H    basis set group =>   2
Atom  11H    basis set group =>   2
Atom  12H    basis set group =>   2
Atom  13H    basis set group =>   2
Atom  14H    basis set group =>   2
Atom  15H    basis set group =>   2
Atom  16H    basis set group =>   2
Atom  17H    basis set group =>   2
Atom  18H    basis set group =>   2
Atom  19H    basis set group =>   2
Atom  20H    basis set group =>   2

Checking for AutoStart:
The File: sp_solv.gbw exists
Trying to determine its content:
     ... Fine, the file contains calculation information
     ... Fine, the calculation information was read
     ... Fine, the file contains a basis set
     ... Fine, the basis set was read
     ... Fine, the file contains a geometry
     ... Fine, the geometry was read
     ... Fine, the file contains a set of orbitals
     ... Fine, the orbitals can be read
     => possible old guess file was deleted
     => GBW file was renamed to GES file
     => GES file is set as startup file
     => Guess is set to MORead
     ... now leaving AutoStart

------------------------------------------------------------------------------
                             ORCA STARTUP CALCULATIONS
                           -- RI-GTO INTEGRALS CHOSEN --
------------------------------------------------------------------------------
------------------------------------------------------------------------------
                   ___                                                        
                  /   \      - P O W E R E D   B Y -                         
                 /     \                                                     
                 |  |  |   _    _      __       _____    __    __             
                 |  |  |  | |  | |    /  \     |  _  \  |  |  /  |          
                  \  \/   | |  | |   /    \    | | | |  |  | /  /          
                 / \  \   | |__| |  /  /\  \   | |_| |  |  |/  /          
                |  |  |   |  __  | /  /__\  \  |    /   |      \           
                |  |  |   | |  | | |   __   |  |    \   |  |\   \          
                \     /   | |  | | |  |  |  |  | |\  \  |  | \   \       
                 \___/    |_|  |_| |__|  |__|  |_| \__\ |__|  \__/        
                                                                              
                      - O R C A' S   B I G   F R I E N D -                    
                                      &                                       
                       - I N T E G R A L  F E E D E R -                       
                                                                              
 v1 FN, 2020, v2 2021, v3 2022-2024                                           
------------------------------------------------------------------------------


----------------------
SHARK INTEGRAL PACKAGE
----------------------

Number of atoms                             ...     21
Number of basis functions                   ...    231
Number of shells                            ...    117
Maximum angular momentum                    ...      2
Integral batch strategy                     ... SHARK/LIBINT Hybrid
RI-J (if used) integral strategy            ... SPLIT-RIJ (Revised 2003 algorithm where possible)
Printlevel                                  ...      1
Contraction scheme used                     ... SEGMENTED contraction
Prescreening option                         ... SCHWARTZ
   Thresh                                   ... 1.000e-10
   Tcut                                     ... 1.000e-11
   Tpresel                                  ... 1.000e-11 
Coulomb Range Separation                    ... NOT USED
Exchange Range Separation                   ... NOT USED
Multipole approximations                    ... NOT USED
Finite Nucleus Model                        ... NOT USED
CABS basis                                  ... NOT available
Auxiliary Coulomb fitting basis             ... AVAILABLE
   # of basis functions in Aux-J            ...    573
   # of shells in Aux-J                     ...    195
   Maximum angular momentum in Aux-J        ...      4
Auxiliary J/K fitting basis                 ... NOT available
Auxiliary Correlation fitting basis         ... NOT available
Auxiliary 'external' fitting basis          ... NOT available

Checking pre-screening integrals            ... done (  0.0 sec) Dimension = 117
Check shell pair data                       ... done (  0.0 sec)
Shell pair information
Shell pair cut-off parameter TPreSel        ...   1.0e-11
Total number of shell pairs                 ...      6903
Shell pairs after pre-screening             ...      6074
Total number of primitive shell pairs       ...     24987
Primitive shell pairs kept                  ...     15410
          la=0 lb=0:   2095 shell pairs
          la=1 lb=0:   2372 shell pairs
          la=1 lb=1:    701 shell pairs
          la=2 lb=0:    551 shell pairs
          la=2 lb=1:    312 shell pairs
          la=2 lb=2:     43 shell pairs

Calculating one electron integrals          ... done (  0.0 sec)
Calculating RI/J V-Matrix + Cholesky decomp.... done (  0.9 sec)
Calculating Nuclear repulsion               ... done (  0.0 sec) ENN=    425.496300287651 Eh

Diagonalization of the overlap matrix:
Smallest eigenvalue                        ... 1.947e-05
Time for diagonalization                   ...    0.006 sec
Threshold for overlap eigenvalues          ... 1.000e-07
Number of eigenvalues below threshold      ... 0
Time for construction of square roots      ...    0.014 sec
Total time needed                          ...    0.034 sec

-------------------
DFT GRID GENERATION
-------------------

General Integration Accuracy     IntAcc      ... 4.388
Radial Grid Type                 RadialGrid  ... OptM3 with GC (2021)
Angular Grid (max. ang.)         AngularGrid ... 4 (Lebedev-302)
Angular grid pruning method      GridPruning ... 4 (adaptive)
Weight generation scheme         WeightScheme... mBecke (2022)
Basis function cutoff            BFCut       ... 1.0000e-10
Integration weight cutoff        WCut        ... 1.0000e-14
Partially contracted basis set               ... off
Rotationally invariant grid construction     ... off
Angular grids for H and He will be reduced by one unit

Total number of grid points                  ...    92377
Total number of batches                      ...     1454
Average number of points per batch           ...       63
Average number of grid points per atom       ...     4399
Initializing property integral containers    ... done (  0.0 sec)

SHARK setup successfully completed in   3.9 seconds

Maximum memory used throughout the entire STARTUP-calculation: 40.5 MB
-------------------------------------------------------------------------------
                                 ORCA GUESS
                   Start orbitals & Density for SCF / CASSCF
-------------------------------------------------------------------------------

------------
SCF SETTINGS
------------
Hamiltonian:
 Density Functional     Method          .... DFT(GTOs)
  Functional kind                       .... Exchange
  Functional name                       .... Re-regularized SCAN exchange by Furness et al
  Functional family                     .... MGGA
  Functional refs                              
    [ 0] J. W. Furness, A. D. Kaplan, J. Ning, J. P. Perdew, and J. Sun.,  J. Phys. Chem. Lett. 11, 8208-8215 (2020), doi: 10.1021/acs.jpclett.0c02405
    [ 1] J. W. Furness, A. D. Kaplan, J. Ning, J. P. Perdew, and J. Sun.,  J. Phys. Chem. Lett. 11, 9248-9248 (2020), doi: 10.1021/acs.jpclett.0c03077
  Functional external parameters        .... 6
    Parameter  0 _c1        =  6.670000e-01 : c1 parameter        
    Parameter  1 _c2        =  8.000000e-01 : c2 parameter        
    Parameter  2 _d         =  1.240000e+00 : d parameter         
    Parameter  3 _k1        =  6.500000e-02 : k1 parameter        
    Parameter  4 _eta       =  1.000000e-03 : eta parameter       
    Parameter  5 _dp2       =  3.610000e-01 : dp2 parameter       
  Functional kind                       .... Correlation
  Functional name                       .... Re-regularized SCAN correlation by Furness et al
  Functional family                     .... MGGA
  Functional refs                              
    [ 0] J. W. Furness, A. D. Kaplan, J. Ning, J. P. Perdew, and J. Sun.,  J. Phys. Chem. Lett. 11, 8208-8215 (2020), doi: 10.1021/acs.jpclett.0c02405
    [ 1] J. W. Furness, A. D. Kaplan, J. Ning, J. P. Perdew, and J. Sun.,  J. Phys. Chem. Lett. 11, 9248-9248 (2020), doi: 10.1021/acs.jpclett.0c03077
  Functional external parameters        .... 1
    Parameter  0 _eta       =  1.000000e-03 : Regularization parameter
 Gradients option       PostSCFGGA      .... off
 RI-approximation to the Coulomb term is turned on
   Number of AuxJ basis functions       .... 573


General Settings:
 Integral files         IntName         .... sp_solv
 Hartree-Fock type      HFTyp           .... RHF
 Total Charge           Charge          ....    0
 Multiplicity           Mult            ....    1
 Number of Electrons    NEL             ....   66
 Basis Dimension        Dim             ....  231
 Nuclear Repulsion      ENuc            ....    425.4963002877 Eh

Convergence Acceleration:
 AO-DIIS                CNVDIIS         .... on
   Start iteration      DIISMaxIt       ....    12
   Startup error        DIISStart       ....  0.200000
   # of expansion vecs  DIISMaxEq       ....     5
   Bias factor          DIISBfac        ....   1.050
   Max. coefficient     DIISMaxC        ....  10.000
 MO-DIIS                CNVKDIIS        .... off
 Trust-Rad. Augm. Hess. CNVTRAH         .... auto
   Auto Start mean grad. ratio tolernc. ....  1.125000
   Auto Start start iteration           ....     1
   Auto Start num. interpolation iter.  ....    10
   Max. Number of Micro iterations      ....    24
   Max. Number of Macro iterations      .... Maxiter - #DIIS iter
   Number of Davidson start vectors     ....     2
   Converg. threshold    (grad. norm)   ....   3.330e-04
   Grad. Scal. Fac. for Micro threshold ....   0.100
   Minimum threshold for Micro iter.    ....   1.000e-02
   NR start threshold (gradient norm)   ....   1.000e-04
   Initial trust radius                 ....   0.400
   Minimum AH scaling param. (alpha)    ....   1.000
   Maximum AH scaling param. (alpha)    .... 1000.000
   Quad. conv. algorithm                .... NR
   White noise on init. David. guess    .... on
   Maximum white noise                  ....   0.010
   Pseudo random numbers                .... off
   Inactive MOs                         .... canonical
   Orbital update algorithm             .... Taylor
   Preconditioner                       .... Diag
   Full preconditioner red. dimension   ....   250
   COSX micro iterations for RIJONX calc.... off
 SOSCF                  CNVSOSCF        .... on
   Start iteration      SOSCFMaxIt      ....   150
   Startup grad/error   SOSCFStart      ....  0.003300
   Hessian update       SOSCFHessUp     .... L-BFGS
 Level Shifting         CNVShift        .... on
   Level shift para.    LevelShift      ....    0.2500
   Turn off err/grad.   ShiftErr        ....    0.0010
 Zerner damping         CNVZerner       .... off
 Static damping         CNVDamp         .... on
   Fraction old density DampFac         ....    0.7000
   Max. Damping (<1)    DampMax         ....    0.9800
   Min. Damping (>=0)   DampMin         ....    0.0000
   Turn off err/grad.   DampErr         ....    0.1000

SCF Procedure:
 Maximum # iterations   MaxIter         ....   125
 SCF integral mode      SCFMode         .... Direct
   Integral package                     .... SHARK and LIBINT hybrid scheme
 Reset frequency        DirectResetFreq ....    20
 Integral Threshold     Thresh          ....  1.000e-10 Eh
 Primitive CutOff       TCut            ....  1.000e-11 Eh

Convergence Tolerance:
 Convergence Check Mode ConvCheckMode   .... Total+1el-Energy
 Convergence forced     ConvForced      .... 0
 Energy Change          TolE            ....  1.000e-06 Eh
 1-El. energy change                    ....  1.000e-03 Eh
 Orbital Gradient       TolG            ....  3.330e-04
 Orbital Rotation angle TolX            ....  3.330e-04
 DIIS Error             TolErr          ....  1.000e-06

---------------------
INITIAL GUESS: MOREAD
---------------------
Guess MOs are being read from file: sp_solv.ges
Input Geometry matches current geometry (good)
Atom 0: N(Shells)= 9 and 6 - projection required
Input basis set needs projection
NBasis(read)= 150
NBasis(calc)= 231
Basis set overlap was calculated
Using GuessMode=FMatrix for the initial guess
C*T matrix was formed
Effective Fockian was calculated
Effective Fockian was diagonalized
Initial density was built
                      ------------------
                      INITIAL GUESS DONE (   0.2 sec)
                      ------------------
             **** ENERGY FILE WAS UPDATED (sp_solv.en.tmp) ****
Finished Guess after   1.2 sec
Maximum memory used throughout the entire GUESS-calculation: 16.5 MB

-------------------------------------------------------------------------------------------
                                      ORCA LEAN-SCF
                              memory conserving SCF solver
-------------------------------------------------------------------------------------------

--------------------
CPCM SOLVATION MODEL
--------------------
CPCM parameters:
  Epsilon                                         ...      78.3550
  Refrac                                          ...       1.3328
  Rsolv                                           ...       1.3000
  Surface type                                    ... GAUSSIAN VDW
  Discretization scheme                           ... Constant charge density
    Threshold for H atoms                         ...       5.0000 (charges/Ang^2)
    Threshold for non-H atoms                     ...       5.0000 (charges/Ang^2)
  Epsilon function type                           ...         CPCM
Solvent:                                          ... WATER
SMD-CDS solvent descriptors:
  Soln                                            ...       1.3328
  Soln25                                          ...       1.3323
  Sola                                            ...       0.0000
  Solb                                            ...       0.0000
  Solg                                            ...       0.0000
  Solc                                            ...       0.0000
  Solh                                            ...       0.0000
Radii:
  Scheme                                          ... Element-dependent radii
  Radius for C  used is    3.4960 Bohr (=   1.8500 Ang.)
  Radius for H  used is    2.2677 Bohr (=   1.2000 Ang.)
Calculating surface                               ...        done! (  0.0s)
Cavity surface points                             ...         1605
Cavity Volume                                     ...     976.3495
Cavity Surface-area                               ...     606.9174
Calculating surface distance matrix               ...        done! (  0.0s)
Performing Cholesky decomposition & store         ...        done! (  0.4s)
Overall time for CPCM initialization              ...                 0.4s

----------------------------------------D-I-I-S--------------------------------------------
Iteration    Energy (Eh)           Delta-E    RMSDP     MaxDP     DIISErr   Damp  Time(sec)
-------------------------------------------------------------------------------------------
               ***  Starting incremental Fock matrix formation  ***
    1    -349.9273517432580434     0.00e+00  2.06e-02  8.87e-01  2.84e-01  0.700   5.0
    2    -349.9770301816482174    -4.97e-02  1.53e-02  6.60e-01  2.00e-01  0.700   4.9
                               ***Turning on AO-DIIS***
    3    -350.0121958895899184    -3.52e-02  1.09e-02  4.67e-01  1.40e-01  0.700   4.7
    4    -350.0368962059019964    -2.47e-02  7.64e-03  3.27e-01  9.80e-02  0.700   5.2
    5    -350.0542291200687828    -1.73e-02  1.78e-02  7.62e-01  6.86e-02  0.000   4.5
                              *** Initializing SOSCF ***
---------------------------------------S-O-S-C-F--------------------------------------
Iteration    Energy (Eh)           Delta-E    RMSDP     MaxDP     MaxGrad    Time(sec)
--------------------------------------------------------------------------------------
    6    -350.0948247458371156    -4.06e-02  1.12e-04  2.68e-03  3.33e-04     6.0
               *** Restarting incremental Fock matrix formation ***
    7    -350.0948264650216402    -1.72e-06  5.03e-05  1.12e-03  9.49e-05     5.5
    8    -350.0948263683901018     9.66e-08  1.51e-05  3.37e-04  1.52e-04     4.3
                 **** Energy Check signals convergence ****

               *****************************************************
               *                     SUCCESS                       *
               *           SCF CONVERGED AFTER   8 CYCLES          *
               *****************************************************


SMD CDS free energy correction energy :                 3.98795     Kcal/mol
Total Energy after SMD CDS correction =              -350.088471174 Eh
             **** ENERGY FILE WAS UPDATED (sp_solv.en.tmp) ****

----------------
TOTAL SCF ENERGY
----------------

Total Energy       :       -350.08847117360438 Eh           -9526.39161 eV

Components:
Nuclear Repulsion  :        425.49630028765085 Eh           11578.34296 eV
Electronic Energy  :       -775.58236281306245 Eh          -21104.66903 eV
One Electron Energy:      -1314.33709303669502 Eh          -35764.93056 eV
Two Electron Energy:        538.75473022363258 Eh           14660.26152 eV
CPCM Dielectric    :         -0.00876384297851 Eh              -0.23848 eV
SMD CDS (Gcds)     :          0.00635519478573 Eh               0.17293 eV

Virial components:
Potential Energy   :       -698.73306595933423 Eh          -19013.49335 eV
Kinetic Energy     :        348.64459478572985 Eh            9487.10174 eV
Virial Ratio       :          2.00414139903348

DFT components:
N(Alpha)           :       33.000099081747 electrons
N(Beta)            :       33.000099081747 electrons
N(Total)           :       66.000198163495 electrons
E(X)               :      -51.168524758484 Eh       
E(C)               :       -2.088512441891 Eh       
E(XC)              :      -53.257037200374 Eh       

CPCM Solvation Model Properties:
Surface-charge          :         -0.04958541792107
Corrected charge        :          0.00000000000000
Outlying charge corr.   :          0.00018223912597 Eh               0.00496 eV
Free-energy (cav+disp)  :          0.00635519478573 Eh               0.17293 eV

---------------
SCF CONVERGENCE
---------------

  Last Energy change         ...   -9.6632e-08  Tolerance :   1.0000e-06
  Last MAX-Density change    ...    3.3740e-04  Tolerance :   1.0000e-05
  Last RMS-Density change    ...    1.5121e-05  Tolerance :   1.0000e-06
  Last DIIS Error            ...    3.3301e-04  Tolerance :   1.0000e-06
  Last Orbital Gradient      ...    1.5181e-04  Tolerance :   3.3300e-04
  Last Orbital Rotation      ...    2.8709e-04  Tolerance :   3.3300e-04


----------------
ORBITAL ENERGIES
----------------

  NO   OCC          E(Eh)            E(eV) 
   0   2.0000     -10.035988      -273.0931 
   1   2.0000     -10.034514      -273.0530 
   2   2.0000     -10.033120      -273.0151 
   3   2.0000     -10.023182      -272.7446 
   4   2.0000     -10.020825      -272.6805 
   5   2.0000     -10.020404      -272.6691 
   6   2.0000     -10.016417      -272.5606 
   7   2.0000     -10.016204      -272.5548 
   8   2.0000     -10.015981      -272.5487 
   9   2.0000      -0.828973       -22.5575 
  10   2.0000      -0.755522       -20.5588 
  11   2.0000      -0.728076       -19.8120 
  12   2.0000      -0.681462       -18.5435 
  13   2.0000      -0.650222       -17.6934 
  14   2.0000      -0.612617       -16.6702 
  15   2.0000      -0.560903       -15.2629 
  16   2.0000      -0.523522       -14.2457 
  17   2.0000      -0.448953       -12.2166 
  18   2.0000      -0.444329       -12.0908 
  19   2.0000      -0.403585       -10.9821 
  20   2.0000      -0.402102       -10.9417 
  21   2.0000      -0.381049       -10.3689 
  22   2.0000      -0.370788       -10.0897 
  23   2.0000      -0.362355        -9.8602 
  24   2.0000      -0.361867        -9.8469 
  25   2.0000      -0.356680        -9.7058 
  26   2.0000      -0.346127        -9.4186 
  27   2.0000      -0.329930        -8.9779 
  28   2.0000      -0.311853        -8.4859 
  29   2.0000      -0.295174        -8.0321 
  30   2.0000      -0.293181        -7.9779 
  31   2.0000      -0.226340        -6.1590 
  32   2.0000      -0.210383        -5.7248 
  33   0.0000      -0.025690        -0.6991 
  34   0.0000      -0.018908        -0.5145 
  35   0.0000       0.088730         2.4145 
  36   0.0000       0.102623         2.7925 
  37   0.0000       0.105172         2.8619 
  38   0.0000       0.117483         3.1969 
  39   0.0000       0.118140         3.2148 
  40   0.0000       0.140647         3.8272 
  41   0.0000       0.153261         4.1704 
  42   0.0000       0.154722         4.2102 
  43   0.0000       0.160496         4.3673 
*Only the first 10 virtual orbitals were printed.

                    ********************************
                    * MULLIKEN POPULATION ANALYSIS *
                    ********************************

-----------------------
MULLIKEN ATOMIC CHARGES
-----------------------
   0 C :   -0.570926
   1 C :    0.185138
   2 C :   -0.270680
   3 C :   -0.274558
   4 C :    0.164152
   5 C :    0.159468
   6 C :   -0.293286
   7 C :   -0.603776
   8 C :   -0.589791
   9 H :    0.174871
  10 H :    0.174640
  11 H :    0.169122
  12 H :    0.173422
  13 H :    0.172977
  14 H :    0.172858
  15 H :    0.180010
  16 H :    0.169180
  17 H :    0.180036
  18 H :    0.168654
  19 H :    0.179307
  20 H :    0.179184
Sum of atomic charges:   -0.0000000

--------------------------------
MULLIKEN REDUCED ORBITAL CHARGES
--------------------------------
  0 C s       :     3.393313  s :     3.393313
      pz      :     1.101406  p :     3.150563
      px      :     0.931071
      py      :     1.118086
      dz2     :     0.004828  d :     0.027050
      dxz     :     0.004165
      dyz     :     0.005659
      dx2y2   :     0.005633
      dxy     :     0.006766

  1 C s       :     3.088034  s :     3.088034
      pz      :     0.972710  p :     2.678402
      px      :     0.824951
      py      :     0.880741
      dz2     :     0.003465  d :     0.048426
      dxz     :     0.006521
      dyz     :     0.007218
      dx2y2   :     0.015168
      dxy     :     0.016053

  2 C s       :     3.236605  s :     3.236605
      pz      :     1.023105  p :     2.996390
      px      :     1.003555
      py      :     0.969730
      dz2     :     0.003172  d :     0.037685
      dxz     :     0.004874
      dyz     :     0.004304
      dx2y2   :     0.011674
      dxy     :     0.013660

  3 C s       :     3.239466  s :     3.239466
      pz      :     1.010902  p :     2.997064
      px      :     0.957303
      py      :     1.028859
      dz2     :     0.003177  d :     0.038028
      dxz     :     0.006990
      dyz     :     0.002600
      dx2y2   :     0.012968
      dxy     :     0.012293

  4 C s       :     3.108223  s :     3.108223
      pz      :     0.985407  p :     2.680169
      px      :     0.816716
      py      :     0.878046
      dz2     :     0.003454  d :     0.047455
      dxz     :     0.006740
      dyz     :     0.006144
      dx2y2   :     0.015422
      dxy     :     0.015696

  5 C s       :     3.137111  s :     3.137111
      pz      :     0.968841  p :     2.655517
      px      :     0.858827
      py      :     0.827848
      dz2     :     0.003454  d :     0.047904
      dxz     :     0.007195
      dyz     :     0.006156
      dx2y2   :     0.015822
      dxy     :     0.015277

  6 C s       :     3.243059  s :     3.243059
      pz      :     1.025559  p :     3.012909
      px      :     0.934718
      py      :     1.052632
      dz2     :     0.003181  d :     0.037319
      dxz     :     0.006331
      dyz     :     0.002537
      dx2y2   :     0.013047
      dxy     :     0.012222

  7 C s       :     3.426730  s :     3.426730
      pz      :     1.098261  p :     3.149970
      px      :     1.038542
      py      :     1.013167
      dz2     :     0.004868  d :     0.027077
      dxz     :     0.008009
      dyz     :     0.001731
      dx2y2   :     0.004876
      dxy     :     0.007593

  8 C s       :     3.416481  s :     3.416481
      pz      :     1.097817  p :     3.146082
      px      :     0.932341
      py      :     1.115923
      dz2     :     0.004861  d :     0.027228
      dxz     :     0.007198
      dyz     :     0.002721
      dx2y2   :     0.008044
      dxy     :     0.004404

  9 H s       :     0.806714  s :     0.806714
      pz      :     0.008543  p :     0.018415
      px      :     0.003973
      py      :     0.005899

 10 H s       :     0.806945  s :     0.806945
      pz      :     0.008492  p :     0.018415
      px      :     0.003966
      py      :     0.005956

 11 H s       :     0.812669  s :     0.812669
      pz      :     0.003663  p :     0.018209
      px      :     0.005929
      py      :     0.008616

 12 H s       :     0.806959  s :     0.806959
      pz      :     0.004219  p :     0.019620
      px      :     0.007252
      py      :     0.008149

 13 H s       :     0.807482  s :     0.807482
      pz      :     0.004104  p :     0.019542
      px      :     0.003877
      py      :     0.011560

 14 H s       :     0.807605  s :     0.807605
      pz      :     0.004147  p :     0.019537
      px      :     0.003877
      py      :     0.011513

 15 H s       :     0.801546  s :     0.801546
      pz      :     0.008507  p :     0.018444
      px      :     0.006375
      py      :     0.003562

 16 H s       :     0.812597  s :     0.812597
      pz      :     0.003649  p :     0.018224
      px      :     0.004961
      py      :     0.009614

 17 H s       :     0.801520  s :     0.801520
      pz      :     0.008503  p :     0.018444
      px      :     0.006379
      py      :     0.003562

 18 H s       :     0.813117  s :     0.813117
      pz      :     0.003654  p :     0.018229
      px      :     0.003520
      py      :     0.011055

 19 H s       :     0.802260  s :     0.802260
      pz      :     0.008507  p :     0.018434
      px      :     0.005201
      py      :     0.004725

 20 H s       :     0.802382  s :     0.802382
      pz      :     0.008496  p :     0.018435
      px      :     0.005205
      py      :     0.004734


------------------------
MULLIKEN OVERLAP CHARGES
------------------------
B(  0-C ,  1-C ) :   0.3325 B(  0-C ,  2-C ) :  -0.0977 B(  0-C ,  6-C ) :  -0.0883 
B(  0-C ,  9-H ) :   0.8406 B(  0-C , 10-H ) :   0.8408 B(  0-C , 11-H ) :   0.8648 
B(  1-C ,  2-C ) :   0.9094 B(  1-C ,  3-C ) :  -0.1381 B(  1-C ,  4-C ) :  -0.0583 
B(  1-C ,  5-C ) :  -0.1584 B(  1-C ,  6-C ) :   0.8311 B(  1-C ,  9-H ) :  -0.0901 
B(  1-C , 10-H ) :  -0.0908 B(  1-C , 11-H ) :  -0.1391 B(  1-C , 12-H ) :  -0.1019 
B(  1-C , 14-H ) :  -0.0828 B(  2-C ,  3-C ) :   0.8208 B(  2-C ,  4-C ) :  -0.2465 
B(  2-C ,  5-C ) :  -0.1339 B(  2-C , 12-H ) :   0.8349 B(  2-C , 13-H ) :  -0.0529 
B(  3-C ,  4-C ) :   0.9716 B(  3-C ,  6-C ) :  -0.3053 B(  3-C ,  8-C ) :  -0.1340 
B(  3-C , 12-H ) :  -0.0545 B(  3-C , 13-H ) :   0.8196 B(  4-C ,  5-C ) :   0.9432 
B(  4-C ,  6-C ) :  -0.1504 B(  4-C ,  7-C ) :  -0.1317 B(  4-C ,  8-C ) :   0.3524 
B(  4-C , 13-H ) :  -0.0946 B(  4-C , 18-H ) :  -0.1029 B(  4-C , 19-H ) :  -0.1082 
B(  4-C , 20-H ) :  -0.1082 B(  5-C ,  6-C ) :   0.9325 B(  5-C ,  7-C ) :   0.3340 
B(  5-C ,  8-C ) :  -0.1185 B(  5-C , 14-H ) :  -0.0653 B(  5-C , 15-H ) :  -0.1070 
B(  5-C , 16-H ) :  -0.1050 B(  5-C , 17-H ) :  -0.1073 B(  6-C ,  7-C ) :  -0.1027 
B(  6-C , 14-H ) :   0.8217 B(  7-C ,  8-C ) :  -0.1051 B(  7-C , 15-H ) :   0.8562 
B(  7-C , 16-H ) :   0.8291 B(  7-C , 17-H ) :   0.8565 B(  8-C , 18-H ) :   0.8318 
B(  8-C , 19-H ) :   0.8577 B(  8-C , 20-H ) :   0.8574 B( 15-H , 17-H ) :  -0.0537 
B( 19-H , 20-H ) :  -0.0547 


                     *******************************
                     * LOEWDIN POPULATION ANALYSIS *
                     *******************************

----------------------
LOEWDIN ATOMIC CHARGES
----------------------
   0 C :   -0.396816
   1 C :   -0.112886
   2 C :   -0.189521
   3 C :   -0.174802
   4 C :   -0.110889
   5 C :   -0.097055
   6 C :   -0.173026
   7 C :   -0.393029
   8 C :   -0.393840
   9 H :    0.168830
  10 H :    0.168784
  11 H :    0.163887
  12 H :    0.176398
  13 H :    0.176665
  14 H :    0.179052
  15 H :    0.170369
  16 H :    0.164635
  17 H :    0.170363
  18 H :    0.164487
  19 H :    0.169205
  20 H :    0.169190

-------------------------------
LOEWDIN REDUCED ORBITAL CHARGES
-------------------------------
  0 C s       :     2.955687  s :     2.955687
      pz      :     1.160035  p :     3.378346
      px      :     1.062948
      py      :     1.155363
      dz2     :     0.011787  d :     0.062783
      dxz     :     0.008305
      dyz     :     0.014298
      dx2y2   :     0.012505
      dxy     :     0.015888

  1 C s       :     2.868700  s :     2.868700
      pz      :     0.958307  p :     3.144165
      px      :     1.069878
      py      :     1.115981
      dz2     :     0.006333  d :     0.100021
      dxz     :     0.010651
      dyz     :     0.013036
      dx2y2   :     0.034430
      dxy     :     0.035571

  2 C s       :     2.899283  s :     2.899283
      pz      :     1.014274  p :     3.207643
      px      :     1.100610
      py      :     1.092759
      dz2     :     0.005533  d :     0.082594
      dxz     :     0.008653
      dyz     :     0.007568
      dx2y2   :     0.027837
      dxy     :     0.033002

  3 C s       :     2.899553  s :     2.899553
      pz      :     0.997070  p :     3.192035
      px      :     1.094380
      py      :     1.100585
      dz2     :     0.005504  d :     0.083214
      dxz     :     0.012997
      dyz     :     0.004093
      dx2y2   :     0.031228
      dxy     :     0.029393

  4 C s       :     2.863859  s :     2.863859
      pz      :     0.979172  p :     3.148644
      px      :     1.070889
      py      :     1.098583
      dz2     :     0.006406  d :     0.098387
      dxz     :     0.010828
      dyz     :     0.011231
      dx2y2   :     0.034840
      dxy     :     0.035081

  5 C s       :     2.864416  s :     2.864416
      pz      :     0.961649  p :     3.133494
      px      :     1.091240
      py      :     1.080604
      dz2     :     0.006391  d :     0.099146
      dxz     :     0.012269
      dyz     :     0.010741
      dx2y2   :     0.034950
      dxy     :     0.034794

  6 C s       :     2.893643  s :     2.893643
      pz      :     1.017280  p :     3.197256
      px      :     1.076225
      py      :     1.103752
      dz2     :     0.005601  d :     0.082127
      dxz     :     0.011761
      dyz     :     0.003962
      dx2y2   :     0.031422
      dxy     :     0.029381

  7 C s       :     2.952238  s :     2.952238
      pz      :     1.157731  p :     3.377970
      px      :     1.118222
      py      :     1.102017
      dz2     :     0.011772  d :     0.062821
      dxz     :     0.019731
      dyz     :     0.002821
      dx2y2   :     0.010647
      dxy     :     0.017850

  8 C s       :     2.952187  s :     2.952187
      pz      :     1.157615  p :     3.378480
      px      :     1.067045
      py      :     1.153821
      dz2     :     0.011758  d :     0.063173
      dxz     :     0.016428
      dyz     :     0.006554
      dx2y2   :     0.019123
      dxy     :     0.009310

  9 H s       :     0.787125  s :     0.787125
      pz      :     0.021262  p :     0.044045
      px      :     0.008762
      py      :     0.014022

 10 H s       :     0.787172  s :     0.787172
      pz      :     0.021123  p :     0.044043
      px      :     0.008744
      py      :     0.014176

 11 H s       :     0.792375  s :     0.792375
      pz      :     0.008192  p :     0.043738
      px      :     0.013855
      py      :     0.021692

 12 H s       :     0.778040  s :     0.778040
      pz      :     0.009497  p :     0.045563
      px      :     0.016880
      py      :     0.019186

 13 H s       :     0.778014  s :     0.778014
      pz      :     0.009193  p :     0.045321
      px      :     0.008739
      py      :     0.027389

 14 H s       :     0.775600  s :     0.775600
      pz      :     0.009379  p :     0.045348
      px      :     0.008625
      py      :     0.027344

 15 H s       :     0.785440  s :     0.785440
      pz      :     0.021278  p :     0.044191
      px      :     0.015025
      py      :     0.007888

 16 H s       :     0.791585  s :     0.791585
      pz      :     0.008108  p :     0.043780
      px      :     0.011946
      py      :     0.023725

 17 H s       :     0.785446  s :     0.785446
      pz      :     0.021268  p :     0.044191
      px      :     0.015034
      py      :     0.007889

 18 H s       :     0.791786  s :     0.791786
      pz      :     0.008111  p :     0.043726
      px      :     0.007704
      py      :     0.027911

 19 H s       :     0.786639  s :     0.786639
      pz      :     0.021266  p :     0.044157
      px      :     0.011900
      py      :     0.010991

 20 H s       :     0.786653  s :     0.786653
      pz      :     0.021235  p :     0.044157
      px      :     0.011910
      py      :     0.011013


---------------------------------
LOEWDIN BOND ORDERS (THRESH 0.050000)
---------------------------------
B(  0-C ,  1-C ) :   1.1135 B(  0-C ,  2-C ) :   0.0895 B(  0-C ,  6-C ) :   0.0889 
B(  0-C ,  9-H ) :   0.9111 B(  0-C , 10-H ) :   0.9112 B(  0-C , 11-H ) :   0.9182 
B(  1-C ,  2-C ) :   1.4566 B(  1-C ,  3-C ) :   0.0917 B(  1-C ,  4-C ) :   0.1205 
B(  1-C ,  5-C ) :   0.0923 B(  1-C ,  6-C ) :   1.4333 B(  1-C , 12-H ) :   0.0525 
B(  1-C , 14-H ) :   0.0518 B(  2-C ,  3-C ) :   1.4970 B(  2-C ,  4-C ) :   0.0916 
B(  2-C ,  5-C ) :   0.1213 B(  2-C ,  6-C ) :   0.0869 B(  2-C , 12-H ) :   0.8648 
B(  2-C , 13-H ) :   0.0545 B(  3-C ,  4-C ) :   1.4629 B(  3-C ,  5-C ) :   0.0889 
B(  3-C ,  6-C ) :   0.1250 B(  3-C ,  8-C ) :   0.0913 B(  3-C , 12-H ) :   0.0547 
B(  3-C , 13-H ) :   0.8629 B(  4-C ,  5-C ) :   1.3704 B(  4-C ,  6-C ) :   0.0886 
B(  4-C ,  7-C ) :   0.0785 B(  4-C ,  8-C ) :   1.1102 B(  4-C , 13-H ) :   0.0531 
B(  5-C ,  6-C ) :   1.4693 B(  5-C ,  7-C ) :   1.1091 B(  5-C ,  8-C ) :   0.0786 
B(  5-C , 14-H ) :   0.0527 B(  6-C ,  7-C ) :   0.0927 B(  6-C , 14-H ) :   0.8567 
B(  7-C , 15-H ) :   0.9060 B(  7-C , 16-H ) :   0.9158 B(  7-C , 17-H ) :   0.9061 
B(  8-C , 18-H ) :   0.9159 B(  8-C , 19-H ) :   0.9067 B(  8-C , 20-H ) :   0.9067 


------------------------------------------
LOEWDIN REDUCED ORBITAL POPULATIONS PER MO
-------------------------------------------
THRESHOLD FOR PRINTING IS 0.1%%
                      0         1         2         3         4         5   
                 -10.03599 -10.03451 -10.03312 -10.02318 -10.02083 -10.02040
                   2.00000   2.00000   2.00000   2.00000   2.00000   2.00000
                  --------  --------  --------  --------  --------  --------
 1 C  s               0.0      99.5       0.0       0.0       0.0       0.0
 1 C  py              0.0       0.0       0.0       0.0       0.1       0.1
 2 C  s               0.0       0.0       0.0       1.0      98.5       0.0
 2 C  px              0.0       0.0       0.0       0.1       0.0       0.0
 2 C  py              0.0       0.1       0.0       0.0       0.0       0.0
 3 C  s               0.0       0.0       0.1      98.5       1.0       0.0
 3 C  px              0.0       0.0       0.1       0.0       0.1       0.0
 4 C  s               0.5       0.0      99.0       0.1       0.0       0.0
 4 C  py              0.1       0.0       0.0       0.1       0.0       0.0
 5 C  s              99.0       0.0       0.5       0.0       0.0       0.0
 5 C  px              0.0       0.0       0.0       0.0       0.0       0.1
 5 C  py              0.0       0.0       0.1       0.0       0.0       0.0
 6 C  s               0.0       0.0       0.0       0.0       0.0      99.5
 6 C  px              0.1       0.1       0.0       0.0       0.0       0.0

                      6         7         8         9        10        11   
                 -10.01642 -10.01620 -10.01598  -0.82897  -0.75552  -0.72808
                   2.00000   2.00000   2.00000   2.00000   2.00000   2.00000
                  --------  --------  --------  --------  --------  --------
 0 C  s               0.0      99.7       0.0       2.0       9.6       0.7
 0 C  px              0.0       0.0       0.0       1.2       1.7       0.1
 0 C  py              0.0       0.0       0.0       0.1       0.1       0.1
 1 C  s               0.0       0.0       0.0      11.5      16.2       0.5
 1 C  px              0.0       0.1       0.0       1.5       0.8       0.0
 1 C  py              0.0       0.0       0.0       0.0       0.1       5.3
 1 C  dz2             0.0       0.0       0.0       0.1       0.1       0.0
 2 C  s               0.0       0.0       0.0       9.8       6.2       6.6
 2 C  px              0.0       0.0       0.0       1.0       1.4       2.5
 2 C  py              0.0       0.0       0.0       1.5       2.1       1.1
 2 C  dz2             0.0       0.0       0.0       0.1       0.1       0.0
 3 C  s               0.0       0.0       0.0      10.3       0.2      15.1
 3 C  px              0.0       0.0       0.0       0.1       4.9       0.1
 3 C  py              0.0       0.0       0.0       2.4       0.3       0.2
 3 C  dz2             0.0       0.0       0.0       0.1       0.0       0.1
 4 C  s               0.0       0.0       0.0      13.3      10.2       3.4
 4 C  px              0.0       0.0       0.1       1.3       1.4       0.1
 4 C  py              0.0       0.0       0.0       0.2       0.4       8.9
 4 C  dz2             0.0       0.0       0.0       0.2       0.1       0.0
 4 C  dxy             0.0       0.0       0.0       0.0       0.0       0.1
 5 C  s               0.0       0.0       0.0      13.8       6.0       9.2
 5 C  px              0.0       0.0       0.0       0.5       3.7       0.3
 5 C  py              0.1       0.0       0.0       1.0       0.3       6.2
 5 C  dz2             0.0       0.0       0.0       0.2       0.1       0.1
 6 C  s               0.0       0.0       0.0      11.4       1.4       9.5
 6 C  px              0.0       0.0       0.0       0.3       6.4       1.0
 6 C  py              0.0       0.0       0.0       2.2       1.0       0.4
 6 C  dz2             0.0       0.0       0.0       0.1       0.0       0.1
 6 C  dxy             0.0       0.0       0.0       0.0       0.1       0.0
 7 C  s              99.7       0.0       0.0       2.6       4.6      10.5
 7 C  px              0.0       0.0       0.0       0.6       0.1       0.8
 7 C  py              0.0       0.0       0.0       0.9       0.8       0.3
 8 C  s               0.0       0.0      99.7       2.5       7.1       2.7
 8 C  px              0.0       0.0       0.0       1.4       1.1       0.4
 8 C  py              0.0       0.0       0.0       0.1       0.2       0.2
 9 H  s               0.0       0.0       0.0       0.2       1.3       0.1
10 H  s               0.0       0.0       0.0       0.2       1.3       0.1
11 H  s               0.0       0.0       0.0       0.2       1.3       0.1
12 H  s               0.0       0.0       0.0       0.9       0.9       1.0
13 H  s               0.0       0.0       0.0       0.9       0.0       2.4
13 H  py              0.0       0.0       0.0       0.1       0.0       0.2
14 H  s               0.0       0.0       0.0       1.0       0.2       1.7
14 H  py              0.0       0.0       0.0       0.1       0.0       0.1
15 H  s               0.0       0.0       0.0       0.3       0.7       1.5
16 H  s               0.0       0.0       0.0       0.3       0.6       1.9
16 H  py              0.0       0.0       0.0       0.0       0.0       0.1
17 H  s               0.0       0.0       0.0       0.3       0.7       1.5
18 H  s               0.0       0.0       0.0       0.3       0.9       0.6
19 H  s               0.0       0.0       0.0       0.2       1.0       0.4
20 H  s               0.0       0.0       0.0       0.2       1.0       0.4

                     12        13        14        15        16        17   
                  -0.68146  -0.65022  -0.61262  -0.56090  -0.52352  -0.44895
                   2.00000   2.00000   2.00000   2.00000   2.00000   2.00000
                  --------  --------  --------  --------  --------  --------
 0 C  s              17.0       3.9      11.1       0.1       1.9       0.9
 0 C  px              0.1       0.2       1.9       0.0       4.5       6.3
 0 C  py              0.0       0.2       0.3       1.2       0.0       1.1
 1 C  s               1.5       0.1       2.9       0.4       6.6       0.6
 1 C  px              7.6       4.6       4.6       0.1       0.6       5.5
 1 C  py              1.5       5.3       1.8       9.6       1.2       0.0
 1 C  dx2y2           0.1       0.0       0.2       0.0       0.0       0.1
 1 C  dxy             0.0       0.2       0.0       0.1       0.0       0.1
 2 C  s               3.3       5.0       5.2       1.8       3.4       0.5
 2 C  px              2.2       0.1       1.7       5.4       0.2      12.2
 2 C  py              0.6       0.8       0.7       2.3       9.6       4.2
 2 C  dx2y2           0.0       0.0       0.1       0.1       0.1       0.0
 3 C  s               2.8       1.4       2.8       8.8       0.0       0.2
 3 C  px              3.2       1.9       3.7       1.0       7.0       3.8
 3 C  py              0.0       0.6       0.5       4.2       2.8       5.7
 3 C  dxy             0.0       0.0       0.1       0.0       0.0       0.1
 4 C  s               1.7       0.6       4.2       1.5       2.7       2.2
 4 C  px              9.5       0.0       7.5       0.0       0.3       5.2
 4 C  py              0.1       0.1       0.0      14.2       1.9       0.1
 4 C  dx2y2           0.1       0.0       0.2       0.0       0.0       0.1
 4 C  dxy             0.0       0.1       0.0       0.2       0.1       0.0
 5 C  s               0.7       0.2       1.5       3.3       4.5       0.1
 5 C  px              1.0      10.9       0.0       2.6       2.9       3.2
 5 C  py              0.6       3.5       2.9       7.3       2.2       0.4
 5 C  dx2y2           0.0       0.1       0.1       0.1       0.1       0.0
 5 C  dxy             0.0       0.2       0.0       0.0       0.1       0.1
 6 C  s               0.4      10.4       0.8       5.9       0.6       0.4
 6 C  px              1.9       0.0       1.1       1.7      11.7       1.7
 6 C  py              0.0       0.2       0.1       4.0       4.0       7.8
 6 C  dx2y2           0.0       0.0       0.0       0.0       0.1       0.0
 6 C  dxy             0.0       0.0       0.1       0.0       0.2       0.0
 7 C  s               0.4      22.7       1.1       1.8       2.8       0.3
 7 C  px              0.2       0.6       0.2       0.0       4.3       1.3
 7 C  py              0.1       0.2       0.2       2.5       1.4       1.6
 8 C  s              18.8       0.5      12.5       0.5       1.5       0.9
 8 C  px              0.1       0.0       2.6       0.2       2.5      10.1
 8 C  py              0.0       0.1       0.0       1.5       0.0       0.2
 8 C  dx2y2           0.0       0.0       0.0       0.0       0.0       0.1
 9 H  s               3.4       0.8       3.4       0.2       1.0       1.4
 9 H  pz              0.2       0.0       0.2       0.0       0.0       0.1
10 H  s               3.4       0.8       3.4       0.2       1.0       1.4
10 H  pz              0.2       0.0       0.2       0.0       0.0       0.1
11 H  s               3.3       1.2       3.0       0.0       1.9       0.6
11 H  py              0.2       0.1       0.2       0.0       0.1       0.1
12 H  s               0.4       1.6       1.4       0.8       4.4       6.1
12 H  px              0.0       0.1       0.0       0.0       0.2       0.1
12 H  py              0.0       0.1       0.1       0.1       0.1       0.2
13 H  s               0.4       0.4       0.6       6.1       0.2       2.1
13 H  py              0.0       0.0       0.1       0.4       0.0       0.1
14 H  s               0.0       1.8       0.2       5.0       0.7       4.1
14 H  py              0.0       0.2       0.0       0.3       0.0       0.2
15 H  s               0.0       5.5       0.4       0.5       2.1       0.4
15 H  pz              0.0       0.3       0.0       0.0       0.1       0.0
15 H  px              0.0       0.2       0.0       0.0       0.0       0.0
16 H  s               0.1       5.1       0.4       1.7       0.8       0.4
16 H  px              0.0       0.1       0.0       0.0       0.1       0.0
16 H  py              0.0       0.3       0.0       0.1       0.0       0.0
17 H  s               0.0       5.5       0.4       0.5       2.1       0.4
17 H  pz              0.0       0.3       0.0       0.0       0.1       0.0
17 H  px              0.0       0.2       0.0       0.0       0.0       0.0
18 H  s               3.7       0.1       3.5       0.9       0.7       1.0
18 H  py              0.3       0.0       0.3       0.0       0.0       0.1
19 H  s               3.7       0.1       3.9       0.1       1.0       1.6
19 H  pz              0.2       0.0       0.2       0.0       0.1       0.1
20 H  s               3.7       0.1       3.9       0.1       1.0       1.6
20 H  pz              0.2       0.0       0.2       0.0       0.1       0.1

                     18        19        20        21        22        23   
                  -0.44433  -0.40358  -0.40210  -0.38105  -0.37079  -0.36236
                   2.00000   2.00000   2.00000   2.00000   2.00000   2.00000
                  --------  --------  --------  --------  --------  --------
 0 C  pz              0.0       0.0       4.1      43.0       0.0       0.0
 0 C  px              0.3       4.0       0.0       0.0       4.0       1.0
 0 C  py              6.1       0.7       0.0       0.0       2.1      23.2
 0 C  dz2             0.0       0.0       0.0       0.0       0.0       0.1
 0 C  dyz             0.0       0.0       0.0       0.3       0.0       0.0
 1 C  s               0.0       3.0       0.0       0.0       0.3       0.0
 1 C  pz              0.0       0.0       3.8      11.9       0.0       0.0
 1 C  px              0.5       0.7       0.0       0.0       2.3       0.3
 1 C  py             11.2       0.1       0.0       0.0       1.2       1.7
 1 C  dx2y2           0.0       0.2       0.0       0.0       0.0       0.0
 1 C  dxy             0.0       0.0       0.0       0.0       0.6       0.0
 2 C  s               0.1       2.1       0.0       0.0       0.3       0.5
 2 C  pz              0.0       0.0       2.0       2.2       0.0       0.0
 2 C  px              6.0       0.5       0.0       0.0       7.3       0.8
 2 C  py              6.2       1.4       0.0       0.0       5.9       3.1
 2 C  dx2y2           0.1       0.1       0.0       0.0       0.1       0.0
 2 C  dxy             0.0       0.4       0.0       0.0       0.2       0.1
 3 C  s               0.1       1.4       0.0       0.0       0.6       1.0
 3 C  pz              0.0       0.0       3.0       0.1       0.0       0.0
 3 C  px             10.2       1.0       0.0       0.0       2.2       0.1
 3 C  py              1.8      17.6       0.0       0.0       5.9       0.0
 3 C  dx2y2           0.0       0.3       0.0       0.0       0.1       0.0
 3 C  dxy             0.1       0.2       0.0       0.0       0.0       0.0
 4 C  s               0.1       3.2       0.0       0.0       0.0       0.1
 4 C  pz              0.0       0.0      11.2       0.8       0.0       0.0
 4 C  px              0.8       0.0       0.0       0.0       0.0       0.2
 4 C  py             10.3       0.5       0.0       0.0       0.3       0.1
 4 C  dx2y2           0.0       0.3       0.0       0.0       0.0       0.0
 4 C  dxy             0.0       0.0       0.0       0.0       0.3       0.2
 5 C  s               0.0       3.4       0.0       0.0       0.1       0.4
 5 C  pz              0.0       0.0      11.9       0.3       0.0       0.0
 5 C  px              6.8       0.6       0.0       0.0       7.1       0.0
 5 C  py              3.9       1.7       0.0       0.0       6.6       0.1
 5 C  dx2y2           0.0       0.1       0.0       0.0       0.3       0.0
 5 C  dxy             0.0       0.2       0.0       0.0       0.0       0.0
 6 C  s               0.1       1.1       0.0       0.0       1.7       0.5
 6 C  pz              0.0       0.0       4.1       1.9       0.0       0.0
 6 C  px             10.1       1.2       0.0       0.0       0.5       0.0
 6 C  py              0.1      10.3       0.0       0.0       8.3       4.9
 6 C  dx2y2           0.0       0.3       0.0       0.0       0.0       0.1
 6 C  dxy             0.0       0.2       0.0       0.0       0.0       0.0
 7 C  s               0.0       0.1       0.0       0.0       0.2       0.1
 7 C  pz              0.0       0.0      18.9       3.2       0.0       0.0
 7 C  px              3.3       1.5       0.0       0.0      17.5       3.3
 7 C  py              4.0       7.0       0.0       0.0       1.8       2.2
 7 C  dz2             0.0       0.0       0.0       0.0       0.2       0.0
 7 C  dxy             0.0       0.2       0.0       0.0       0.1       0.0
 8 C  pz              0.0       0.0      17.7       5.3       0.0       0.0
 8 C  px              0.4       2.5       0.0       0.0       0.2       2.2
 8 C  py              7.3       0.9       0.0       0.0       0.1      14.7
 8 C  dz2             0.0       0.0       0.0       0.0       0.0       0.1
 8 C  dyz             0.0       0.0       0.1       0.0       0.0       0.0
 9 H  s               0.4       0.4       1.1      12.2       0.0       2.7
 9 H  pz              0.0       0.0       0.0       0.1       0.0       0.1
 9 H  py              0.0       0.0       0.0       0.3       0.0       0.0
10 H  s               0.4       0.4       1.0      12.1       0.0       2.8
10 H  pz              0.0       0.0       0.0       0.0       0.0       0.1
10 H  py              0.0       0.0       0.0       0.3       0.0       0.0
11 H  s               1.7       0.2       0.0       0.0       2.8      10.0
11 H  pz              0.0       0.0       0.0       0.3       0.0       0.0
11 H  px              0.0       0.0       0.0       0.0       0.0       0.1
12 H  s               0.1       3.2       0.0       0.0       6.5       3.2
13 H  s               0.1      13.1       0.0       0.0       2.6       0.5
13 H  px              0.1       0.0       0.0       0.0       0.0       0.0
13 H  py              0.0       0.3       0.0       0.0       0.0       0.0
14 H  s               0.3       9.1       0.0       0.0       1.8       3.8
14 H  py              0.0       0.2       0.0       0.0       0.0       0.1
15 H  s               0.3       0.3       5.1       1.0       3.1       0.5
15 H  pz              0.0       0.0       0.0       0.0       0.1       0.0
15 H  px              0.0       0.0       0.1       0.0       0.0       0.0
16 H  s               2.3       2.0       0.0       0.0       0.2       2.2
16 H  pz              0.0       0.0       0.1       0.0       0.0       0.0
16 H  px              0.0       0.0       0.0       0.0       0.1       0.0
17 H  s               0.3       0.2       5.1       1.0       3.1       0.5
17 H  pz              0.0       0.0       0.0       0.0       0.1       0.0
17 H  px              0.0       0.0       0.1       0.0       0.0       0.0
18 H  s               2.2       0.8       0.0       0.0       0.0       6.4
18 H  py              0.1       0.0       0.0       0.0       0.0       0.1
19 H  s               0.4       0.1       4.8       1.6       0.1       2.1
20 H  s               0.4       0.1       4.8       1.6       0.1       2.1

                     24        25        26        27        28        29   
                  -0.36187  -0.35668  -0.34613  -0.32993  -0.31185  -0.29517
                   2.00000   2.00000   2.00000   2.00000   2.00000   2.00000
                  --------  --------  --------  --------  --------  --------
 0 C  s               0.0       0.2       0.0       0.0       0.0       0.5
 0 C  pz              0.2       0.0       0.0       0.0       8.5       0.0
 0 C  px              0.0      16.7       0.3       0.6       0.0       8.5
 0 C  py              0.0       0.7       0.0      19.2       0.0       1.6
 0 C  dz2             0.0       0.1       0.0       0.2       0.0       0.0
 0 C  dxz             0.0       0.0       0.0       0.0       0.1       0.0
 0 C  dyz             0.0       0.0       0.0       0.0       0.2       0.0
 0 C  dx2y2           0.0       0.1       0.0       0.0       0.0       0.1
 0 C  dxy             0.0       0.0       0.0       0.3       0.0       0.0
 1 C  s               0.0       0.0       0.2       0.0       0.0       0.0
 1 C  pz              0.0       0.0       0.0       0.0       7.5       0.0
 1 C  px              0.0      15.6       0.0       0.1       0.0       5.9
 1 C  py              0.0       1.7       0.2       3.9       0.0       2.6
 1 C  dxz             0.0       0.0       0.0       0.0       0.3       0.0
 1 C  dx2y2           0.0       0.1       0.1       0.1       0.0       0.7
 1 C  dxy             0.0       0.0       0.0       0.2       0.0       0.0
 2 C  s               0.0       0.4       0.1       0.1       0.0       0.0
 2 C  pz              0.2       0.0       0.0       0.0      16.8       0.0
 2 C  px              0.0       0.8       0.1       4.9       0.0       6.1
 2 C  py              0.0       4.5       0.1       1.5       0.0       3.2
 2 C  dx2y2           0.0       0.2       0.0       0.0       0.0       0.3
 3 C  s               0.0       0.2       0.0       0.1       0.0       0.1
 3 C  pz              0.9       0.0       0.0       0.0      16.8       0.0
 3 C  px              0.0       0.2       0.1       6.1       0.0       5.5
 3 C  py              0.0       2.1       2.4       0.0       0.0       2.6
 3 C  dx2y2           0.0       0.1       0.0       0.0       0.0       0.7
 3 C  dxy             0.0       0.2       0.0       0.0       0.0       0.0
 4 C  s               0.0       0.0       0.2       0.1       0.0       0.0
 4 C  pz              2.8       0.0       0.0       0.0       6.9       0.0
 4 C  px              0.0      16.7       2.2       0.4       0.0       5.5
 4 C  py              0.0       1.1       0.5       3.9       0.0       4.3
 4 C  dxz             0.1       0.0       0.0       0.0       0.3       0.0
 4 C  dx2y2           0.0       0.1       0.1       0.0       0.0       0.7
 4 C  dxy             0.0       0.0       0.0       0.2       0.0       0.0
 5 C  s               0.0       0.2       0.1       0.0       0.0       0.0
 5 C  pz              2.6       0.0       0.0       0.0       6.0       0.0
 5 C  px              0.0       0.8       1.7       2.9       0.0       7.3
 5 C  py              0.0       4.0       0.3       1.7       0.0       3.9
 5 C  dxz             0.0       0.0       0.0       0.0       0.1       0.0
 5 C  dyz             0.1       0.0       0.0       0.0       0.1       0.0
 5 C  dx2y2           0.0       0.3       0.1       0.1       0.0       0.5
 6 C  s               0.0       0.3       0.1       0.0       0.0       0.2
 6 C  pz              0.5       0.0       0.0       0.0       9.8       0.0
 6 C  px              0.0       0.1       0.5       4.9       0.0       6.9
 6 C  py              0.0       0.9       2.4       0.3       0.0       1.9
 6 C  dx2y2           0.0       0.1       0.0       0.0       0.0       0.6
 6 C  dxy             0.0       0.2       0.0       0.0       0.0       0.0
 7 C  pz             29.5       0.0       0.0       0.0       3.9       0.0
 7 C  px              0.0       0.4       8.6       3.6       0.0       2.6
 7 C  py              0.0       2.7      21.5       2.4       0.0       0.5
 7 C  dz2             0.0       0.0       0.1       0.0       0.0       0.0
 7 C  dxz             0.2       0.0       0.0       0.0       0.2       0.0
 7 C  dx2y2           0.0       0.0       0.1       0.1       0.0       0.2
 7 C  dxy             0.0       0.0       0.2       0.0       0.0       0.0
 8 C  s               0.0       0.2       0.1       0.0       0.0       0.4
 8 C  pz             27.7       0.0       0.0       0.0       5.1       0.0
 8 C  px              0.0      16.6       0.3       1.0       0.0       9.7
 8 C  py              0.0       0.4      19.7      10.0       0.0       0.5
 8 C  dxz             0.1       0.0       0.0       0.0       0.2       0.0
 8 C  dyz             0.1       0.0       0.0       0.0       0.0       0.0
 8 C  dx2y2           0.0       0.1       0.2       0.1       0.0       0.1
 8 C  dxy             0.0       0.0       0.0       0.1       0.0       0.0
 9 H  s               0.0       1.1       0.0       2.8       3.7       0.7
 9 H  pz              0.0       0.0       0.0       0.1       0.0       0.0
 9 H  px              0.0       0.1       0.0       0.0       0.0       0.1
10 H  s               0.0       1.1       0.0       2.9       3.7       0.7
10 H  pz              0.0       0.0       0.0       0.1       0.0       0.0
10 H  px              0.0       0.1       0.0       0.0       0.0       0.1
11 H  s               0.0       1.3       0.0      10.0       0.0       0.1
11 H  py              0.0       0.1       0.0       0.1       0.0       0.0
12 H  s               0.0       1.5       0.0       0.3       0.0       0.2
12 H  pz              0.0       0.0       0.0       0.0       0.1       0.0
13 H  s               0.0       0.4       1.1       0.2       0.0       4.8
13 H  pz              0.0       0.0       0.0       0.0       0.1       0.0
14 H  s               0.0       0.1       1.9       0.0       0.0       3.9
15 H  s               8.7       0.0       2.2       0.8       1.9       0.7
15 H  pz              0.0       0.0       0.1       0.0       0.0       0.0
15 H  px              0.2       0.0       0.0       0.0       0.0       0.0
15 H  py              0.0       0.0       0.1       0.0       0.0       0.0
16 H  s               0.0       0.7      15.6       3.2       0.0       1.9
[...]
 8 C  s               0.0       0.1       0.1       0.1       0.1       0.1
 8 C  pz              6.8       0.0       0.0       0.0       0.0       0.0
 8 C  px              0.0       0.1       0.2       0.0       0.2       0.4
 8 C  py              0.0       0.8       2.9       1.1       4.7       0.5
 8 C  dz2             0.0       0.1       2.3       0.4       3.3       0.0
 8 C  dxz             8.1       0.0       0.0       0.0       0.0       0.0
 8 C  dyz             6.1       0.0       0.0       0.0       0.0       0.0
 8 C  dx2y2           0.0       1.1       2.1       1.9       2.2       1.7
 8 C  dxy             0.0       0.0       0.5       1.0       0.8       0.1
 9 H  s               0.0       1.3       0.7       0.1       0.1       0.0
 9 H  pz              0.0       2.6       1.5       0.2       0.1       0.0
 9 H  px              0.0       0.2       0.1       0.3       0.0       0.0
 9 H  py              0.0       0.1       0.1       0.1       0.1       0.0
10 H  s               0.0       1.3       0.7       0.1       0.1       0.0
10 H  pz              0.0       2.6       1.5       0.2       0.1       0.0
10 H  px              0.0       0.2       0.1       0.3       0.0       0.0
10 H  py              0.0       0.1       0.1       0.1       0.1       0.0
11 H  s               0.0       7.8       2.3       0.5       0.0       0.3
11 H  px              0.0       5.6       1.9       0.8       0.1       0.2
11 H  py              0.0      13.7       3.7       0.5       0.0       0.3
12 H  s               0.0       0.1       0.5       0.3       0.5       3.4
12 H  px              0.0       0.1       0.3       0.6       0.5       3.2
12 H  py              0.0       0.3       1.2       0.3       0.9       3.8
13 H  s               0.0       1.8       1.2       0.1       0.3       3.0
13 H  px              0.0       0.7       0.1       0.2       0.0       0.5
13 H  py              0.0       5.5       3.7       0.4       0.8       5.7
14 H  s               0.0       1.0       4.1       0.0       0.0       2.1
14 H  px              0.0       0.5       0.9       0.0       0.0       0.5
14 H  py              0.0       2.8      12.1       0.0       0.0       4.0
15 H  s               4.0       0.0       0.0       0.2       1.1       0.0
15 H  pz              5.7       0.0       0.0       0.6       2.1       0.0
15 H  px              4.2       0.0       0.0       0.0       0.5       0.0
15 H  py              0.0       0.0       0.0       0.0       0.2       0.0
16 H  s               0.0       0.1       0.8       2.1       3.9       0.3
16 H  pz              0.2       0.0       0.0       0.0       0.0       0.0
16 H  px              0.0       0.0       0.3       1.9       1.3       0.1
16 H  py              0.0       0.2       1.7       3.2       7.5       0.4
17 H  s               4.0       0.0       0.0       0.2       1.1       0.0
17 H  pz              5.7       0.0       0.0       0.6       2.1       0.0
17 H  px              4.2       0.0       0.0       0.0       0.5       0.0
17 H  py              0.0       0.0       0.0       0.0       0.2       0.0
18 H  s               0.0       0.6       2.3       1.2       2.9       0.4
18 H  pz              0.2       0.0       0.0       0.0       0.0       0.0
18 H  px              0.0       0.1       0.2       0.1       0.2       0.0
18 H  py              0.0       1.4       5.7       2.7       6.1       0.6
19 H  s               4.0       0.0       0.5       0.2       1.0       0.0
19 H  pz              5.8       0.0       0.9       0.5       2.0       0.0
19 H  px              2.7       0.0       0.1       0.0       0.7       0.0
19 H  py              1.6       0.0       0.0       0.0       0.0       0.0
20 H  s               4.0       0.0       0.5       0.2       1.0       0.0
20 H  pz              5.8       0.0       0.9       0.5       2.0       0.0
20 H  px              2.7       0.0       0.1       0.0       0.7       0.0
20 H  py              1.6       0.0       0.0       0.0       0.0       0.0

                    222       223       224       225       226       227   
                  21.30277  21.78052  21.93005  21.98566  22.06884  22.09885
                   0.00000   0.00000   0.00000   0.00000   0.00000   0.00000
                  --------  --------  --------  --------  --------  --------
 0 C  s               0.7      11.9      16.8      21.4      34.9       9.4
 1 C  s              16.9      26.7       1.7       0.6       3.4       5.2
 2 C  s              13.3      11.3       8.8       0.8      10.7       4.4
 3 C  s              13.6       0.2      26.9       1.7       0.0       5.3
 4 C  s              18.1      17.3       5.5       1.8      13.5       0.6
 4 C  px              0.0       0.0       0.0       0.0       0.0       0.1
 4 C  py              0.0       0.0       0.1       0.1       0.0       0.0
 5 C  s              19.4      12.8       8.9      12.6       3.0       0.1
 6 C  s              15.5       1.7       9.1      13.1       0.0       8.8
 7 C  s               1.2       8.0      20.3       2.3      29.2      33.3
 8 C  s               1.2       9.6       1.3      45.0       4.7      32.6

                    228       229       230   
                  22.18987  22.20207  22.35982
                   0.00000   0.00000   0.00000
                  --------  --------  --------
 0 C  s               4.2       0.0       0.1
 1 C  s              31.1       0.1      13.9
 2 C  s               6.4      28.0      15.9
 3 C  s              11.7      21.4      18.8
 4 C  s              27.4       0.1      15.4
 5 C  s               4.3      22.3      16.2
 6 C  s               8.3      23.7      19.3
 7 C  s               1.4       3.7       0.1
 8 C  s               4.8       0.3       0.0


                      *****************************
                      * MAYER POPULATION ANALYSIS *
                      *****************************

  NA   - Mulliken gross atomic population
  ZA   - Total nuclear charge
  QA   - Mulliken gross atomic charge
  VA   - Mayer's total valence
  BVA  - Mayer's bonded valence
  FA   - Mayer's free valence

  ATOM       NA         ZA         QA         VA         BVA        FA
  0 C      6.5709     6.0000    -0.5709     3.7671     3.7671     0.0000
  1 C      5.8149     6.0000     0.1851     3.4273     3.4273     0.0000
  2 C      6.2707     6.0000    -0.2707     3.8322     3.8322     0.0000
  3 C      6.2746     6.0000    -0.2746     3.7961     3.7961     0.0000
  4 C      5.8358     6.0000     0.1642     3.4569     3.4569    -0.0000
  5 C      5.8405     6.0000     0.1595     3.4998     3.4998    -0.0000
  6 C      6.2933     6.0000    -0.2933     3.8389     3.8389    -0.0000
  7 C      6.6038     6.0000    -0.6038     3.6992     3.6992    -0.0000
  8 C      6.5898     6.0000    -0.5898     3.7049     3.7049    -0.0000
  9 H      0.8251     1.0000     0.1749     0.9532     0.9532     0.0000
 10 H      0.8254     1.0000     0.1746     0.9533     0.9533    -0.0000
 11 H      0.8309     1.0000     0.1691     0.9588     0.9588     0.0000
 12 H      0.8266     1.0000     0.1734     0.9618     0.9618    -0.0000
 13 H      0.8270     1.0000     0.1730     0.9617     0.9617     0.0000
 14 H      0.8271     1.0000     0.1729     0.9629     0.9629    -0.0000
 15 H      0.8200     1.0000     0.1800     0.9516     0.9516    -0.0000
 16 H      0.8308     1.0000     0.1692     0.9589     0.9589    -0.0000
 17 H      0.8200     1.0000     0.1800     0.9516     0.9516     0.0000
 18 H      0.8313     1.0000     0.1687     0.9591     0.9591    -0.0000
 19 H      0.8207     1.0000     0.1793     0.9516     0.9516    -0.0000
 20 H      0.8208     1.0000     0.1792     0.9516     0.9516    -0.0000

  Mayer bond orders larger than 0.100000
B(  0-C ,  1-C ) :   0.7990 B(  0-C ,  9-H ) :   0.9707 B(  0-C , 10-H ) :   0.9709 
B(  0-C , 11-H ) :   0.9916 B(  1-C ,  2-C ) :   1.3886 B(  1-C ,  6-C ) :   1.3859 
B(  2-C ,  3-C ) :   1.4075 B(  2-C , 12-H ) :   0.9565 B(  3-C ,  4-C ) :   1.4016 
B(  3-C , 13-H ) :   0.9513 B(  4-C ,  5-C ) :   1.3857 B(  4-C ,  8-C ) :   0.8093 
B(  5-C ,  6-C ) :   1.4343 B(  5-C ,  7-C ) :   0.7914 B(  6-C , 14-H ) :   0.9462 
B(  7-C , 15-H ) :   0.9736 B(  7-C , 16-H ) :   0.9835 B(  7-C , 17-H ) :   0.9737 
B(  8-C , 18-H ) :   0.9837 B(  8-C , 19-H ) :   0.9734 B(  8-C , 20-H ) :   0.9733 


-------
TIMINGS
-------

Total SCF time: 0 days 0 hours 0 min 41 sec 

Total time                  ....      41.304 sec
Sum of individual times     ....      35.123 sec  ( 85.0%)

SCF preparation             ....       0.561 sec  (  1.4%)
Fock matrix formation       ....      32.520 sec  ( 78.7%)
  Startup                   ....       0.054 sec  (  0.2% of F)
  Split-RI-J                ....       4.402 sec  ( 13.5% of F)
  XC integration            ....      22.081 sec  ( 67.9% of F)
    XC Preparation          ....       0.000 sec  (  0.0% of XC)
    Basis function eval.    ....       2.751 sec  ( 12.5% of XC)
    Density eval.           ....       5.294 sec  ( 24.0% of XC)
    XC-Functional eval.     ....       1.818 sec  (  8.2% of XC)
    XC-Potential eval.      ....       5.696 sec  ( 25.8% of XC)
  CPCM terms                ....       5.553 sec  ( 17.1% of F)
Diagonalization             ....       0.000 sec  (  0.0%)
Density matrix formation    ....       0.188 sec  (  0.5%)
Total Energy calculation    ....       0.036 sec  (  0.1%)
Population analysis         ....       0.134 sec  (  0.3%)
Orbital Transformation      ....       0.057 sec  (  0.1%)
Orbital Orthonormalization  ....       0.000 sec  (  0.0%)
DIIS solution               ....       1.545 sec  (  3.7%)
  MO trafo                  ....       0.000 sec  (  0.0 % of DIIS)
  Orb grad                  ....       0.000 sec  (  0.0 % of DIIS)
  Energy W gradient         ....       0.000 sec  (  0.0 % of DIIS)
  DIIS error                ....       0.010 sec  (  0.7 % of DIIS)
  DIIS work                 ....       1.493 sec  ( 96.6 % of DIIS)
  Form Q                    ....       0.000 sec  (  0.0 % of DIIS)
  Form QpQm                 ....       0.000 sec  (  0.0 % of DIIS)
  Exp/Cayley                ....       0.000 sec  (  0.0 % of DIIS)
  Orb update                ....       0.000 sec  (  0.0 % of DIIS)
  Wake-sleep                ....       0.013 sec  (  0.8 % of DIIS)
SOSCF solution              ....       0.083 sec  (  0.2%)
  MO trafo                  ....       0.045 sec  ( 54.8 % of SOSCF)
  Orb grad                  ....       0.001 sec  (  1.7 % of SOSCF)
  Rot update                ....       0.012 sec  ( 14.9 % of SOSCF)
  Step                      ....       0.024 sec  ( 28.5 % of SOSCF)
Finished LeanSCF after  41.5 sec

Maximum memory used throughout the entire LEANSCF-calculation: 34.1 MB


-------------------------------------------------------------------------------
                          DFT DISPERSION CORRECTION                            
                                                                               
                                DFTD4 V3.4.0                                   
-------------------------------------------------------------------------------
The R2SCAN3C composite method is recognized
Using three-body term ABC
Active option DFTDOPT                   ...         5   

-------------------------   ----------------
Dispersion correction           -0.006949341
-------------------------   ----------------

------------------   -----------------
gCP correction             0.007740419
------------------   -----------------

-------------------------   --------------------
FINAL SINGLE POINT ENERGY      -350.087680095624
-------------------------   --------------------


------------------------------------------------------------------------------
                              ORCA PROPERTY CALCULATIONS
------------------------------------------------------------------------------

GBWName                                 ... sp_solv.gbw
Number of atoms                         ...     21
Number of basis functions               ...    231
Max core memory                         ...   1024 MB

Electric properties:
Dipole moment                           ... YES
Quadrupole moment                       ...  NO
Static polarizability (Dipole/Dipole)   ...  NO
Static polarizability (Dipole/Quad.)    ...  NO
Static polarizability (Quad./Quad.)     ...  NO
Static polarizability (Velocity)        ...  NO

Atomic electric properties:
Dipole moment                           ...  NO
Quadrupole moment                       ...  NO
Static polarizability                   ...  NO

Choice of electric origin               ... Center of mass
Position of electric origin             ...     0.000003    -0.000004    -0.000000

General magnetic properties:
Magnetizability                         ...  NO

EPR properties:
g-Tensor (aka g-matrix)                 ...  NO
Zero-Field splitting spin-orbit         ...  NO
Zero-field splitting spin-spin          ...  NO
Hyperfine couplings                     ...  NO (   0 nuclei)
Quadrupole couplings                    ...  NO (   0 nuclei)
Contact density                         ...  NO (   0 nuclei)

NMR properties:
Chemical shifts                         ...  NO (   0 nuclei)
Spin-rotation constants                 ...  NO (   0 nuclei)
Spin-spin couplings                     ...  NO (   0 nuclei,    0 pairs)

Choice of magnetic origin               ... GIAO
Position of magnetic origin             ...     0.000000     0.000000     0.000000

Properties with geometric perturbations:
SCF Hessian                             ...  NO
IR spectrum                             ...  NO
VCD spectrum                            ...  NO
X-ray spectroscopy properties:
SCF XES/XAS/RIXS spectra                ...  NO


-------------
DIPOLE MOMENT
-------------

Method             : SCF
Type of density    : Electron Density
Multiplicity       :   1
Irrep              :   0
Energy             :  -350.0884711736043755 Eh
Relativity type    : 
Basis              : AO
                                X                 Y                 Z
Electronic contribution:     -1.784563860       1.997622411      -0.000034147
Nuclear contribution   :      1.993586068      -2.218425004      -0.000168345
                        -----------------------------------------
Total Dipole Moment    :      0.209022208      -0.220802593      -0.000202492
                        -----------------------------------------
Magnitude (a.u.)       :      0.304046229
Magnitude (Debye)      :      0.772824097



--------------------
Rotational spectrum 
--------------------
 
Rotational constants in cm-1:             0.099572             0.043470             0.030777 
Rotational constants in MHz :          2985.093152          1303.202228           922.664260 

Dipole components along the rotational axes: 
x,y,z [a.u.] :     0.209022     0.220803    -0.000202 
x,y,z [Debye]:     0.531292     0.561236    -0.000515 

 

Dipole moment calculation done in   0.0 sec 

Maximum memory used throughout the entire PROP-calculation: 15.0 MB

--------------------------------
SUGGESTED CITATIONS FOR THIS RUN
--------------------------------

Below you find a list of papers that are relevant to this ORCA run
We neither can nor want to force you to cite these papers, but we appreciate if you do
You receive ORCA, which is the product of decades of hard work by many enthusiastic individuals, for free
The only thing we kindly ask in return is that you cite our papers,
We deeply appreciate it, if you show your appreciation for ORCA by not just citing the generic ORCA reference.

Please note that relegating all ORCA citations to the supporting information does *not* help us.
SI sections are not indexed - citations you put there will not count into any citation statistics
But we need these citations in order to attract the funding resources that allow us to do what we are doing

Therefore, if you are a happy ORCA user, please consider citing a few of the papers listed below in the main body of your paper

In addition to the list printed below, the program has created the file sp_solv.bibtex that contains the list in bibtex format
You can import this file easily into all common literature databanks and citation aid programs


List of essential papers. We consider these as the minimum necessary citations

  1. Neese,F.
     Software update: the ORCA program system, version 5.0
     WIRES Comput. Molec. Sci., 2022 12(1)e1606
     doi.org/10.1002/wcms.1606
  2. Grimme,S.; Hansen,A.; Ehlert,S.; Mewes,J.
     r2SCAN-3c: A 'Swiss army knife' composite electronic-structure method
     J. Chem. Phys., 2021 154 064103
     doi.org/10.1063/5.0040021

List of papers to cite with high priority. The work reported in these papers was absolutely
necessary for this run to complete.
Our perspective: the developers of density functionals and basis sets usually get cited in chemistry papers
Good! But without the algorithms to do something with them, the functionals or basis sets would not do anything.
Hence, in our opinion, the algorithm design and method developments papers are equally worthy of getting cited

  1. Neese,F.
     An improvement of the resolution of the identity approximation for the formation of the Coulomb matrix
     J. Comp. Chem., 2003 24(14)1740-1747
     doi.org/10.1002/jcc.10318
  2. Garcia-Rates,M.; Neese,F.
     Effect of the Solute Cavity on the Solvation Energy and its Derivatives within the Framework of the Gaussian Charge Scheme
     J. Comput. Chem., 2020 41 922-939
     doi.org/10.1002/jcc.26139
  3. Neese,F.
     The SHARK Integral Generation and Digestion System
     J. Comp. Chem., 2022  1-16
     doi.org/10.1002/jcc.26942
  4. Lehtola,S.; Steigemann,C.; Oliveira,M.; Marques,M.
     Recent developments in Libxc - A comprehensive library of functionals for density functional theory
     Software X, 2018 7 
     doi.org/10.1016/j.softx.2017.11.002
  5. Caldeweyher,E.; Bannwarth,C.; Grimme,S.
     Extension of the D3 dispersion coefficient model
     J. Chem. Phys., 2017 147 034112-XXXX
     doi.org/10.1063/1.4993215
  6. Caldeweyher,E.; Ehlert,S.; Hansen,A.; Neugebauer,H.; Spicher,S.; Bannwarth,C.; Grimme,S.
     A generally applicable atomic-charge dependent London dispersion correction
     J. Chem. Phys., 2019 150 154122-XXXX
     doi.org/10.1063/1.5090222
  7. Caldeweyher,E.; Mewes,J.; Ehlert,S.; Grimme,S.
     Extension and evaluation of the D4 London-dispersion model for periodic systems
     Phys. Chem. Chem. Phys., 2020 22(16)8499-8512
     doi.org/10.1039/D0CP00502A

List of suggested additional citations. These are papers that are important in the 'surrounding' of 
of this run, or papers that preceded the highly important papers. If you like your results we are grateful for a citation.

  1. Neese,F.
     The ORCA program system
     WIRES Comput. Molec. Sci., 2012 2(1)73-78
     doi.org/10.1002/wcms.81
  2. Neese,F.
     Software update: the ORCA program system, version 4.0
     WIRES Comput. Molec. Sci., 2018 8(1)1-6
     doi.org/10.1002/wcms.1327
  3. Neese,F.; Wennmohs,F.; Becker,U.; Riplinger,C.
     The ORCA quantum chemistry program package
     J. Chem. Phys., 2020 152 Art. No. L224108
     doi.org/10.1063/5.0004608

List of optional additional citations

  1. Neese,F.
     Approximate second-order SCF convergence for spin unrestricted wavefunctions
     Chem. Phys. Lett., 2000 325(1-3)93-98
     doi.org/10.1016/s0009-2614(00)00662-x

Timings for individual modules:

Sum of individual times          ...       46.696 sec (=   0.778 min)
Startup calculation              ...        3.920 sec (=   0.065 min)   8.4 %
SCF iterations                   ...       42.660 sec (=   0.711 min)  91.4 %
Property calculations            ...        0.115 sec (=   0.002 min)   0.2 %
                             ****ORCA TERMINATED NORMALLY****
TOTAL RUN TIME: 0 days 0 hours 0 minutes 48 seconds 483 msec
