
                                 *****************
                                 * O   R   C   A *
                                 *****************

                                            #,                                       
                                            ###                                      
                                            ####                                     
                                            #####                                    
                                            ######                                   
                                           ########,                                 
                                     ,,################,,,,,                         
                               ,,#################################,,                 
                          ,,##########################################,,             
                       ,#########################################, ''#####,          
                    ,#############################################,,   '####,        
                  ,##################################################,,,,####,       
                ,###########''''           ''''###############################       
              ,#####''   ,,,,##########,,,,          '''####'''          '####       
            ,##' ,,,,###########################,,,                        '##       
           ' ,,###''''                  '''############,,,                           
         ,,##''                                '''############,,,,        ,,,,,,###''
      ,#''                                            '''#######################'''  
     '                                                          ''''####''''         
             ,#######,   #######,   ,#######,      ##                                
            ,#'     '#,  ##    ##  ,#'     '#,    #''#        ,####,   ,####,        
            ##       ##  ##   ,#'  ##            #'  '#       #'       #'  '#        
            ##       ##  #######   ##           ,######,      #####,   #    #        
            '#,     ,#'  ##    ##  '#,     ,#' ,#      #,     #,   #   #,  ,#        
             '#######'   ##     ##  '#######'  #'      '#     '####' # '####'        



                #########################################################
                #                        -***-                          #
                #          Department of theory and spectroscopy        #
                #                                                       #
                #                      Frank Neese                      #
                #                                                       #
                #     Directorship, Architecture, Infrastructure        #
                #                    SHARK, DRIVERS                     #
                #        Core code/Algorithms in most modules           #
                #                                                       #
                #        Max Planck Institute fuer Kohlenforschung      #
                #                Kaiser Wilhelm Platz 1                 #
                #                 D-45470 Muelheim/Ruhr                 #
                #                      Germany                          #
                #                                                       #
                #                  All rights reserved                  #
                #                        -***-                          #
                #########################################################


                         Program Version 6.0.0  -   RELEASE  -


 With contributions from (in alphabetic order):
   Daniel Aravena         : Magnetic Suceptibility
   Michael Atanasov       : Ab Initio Ligand Field Theory (pilot matlab implementation)
   Alexander A. Auer      : GIAO ZORA, VPT2 properties, NMR spectrum
   Ute Becker             : All parallelization in ORCA, NUMFREQ, NUMCALC
   Giovanni Bistoni       : ED, misc. LED, open-shell LED, HFLD
   Martin Brehm           : Molecular dynamics
   Dmytro Bykov           : pre 5.0 version of the SCF Hessian
   Marcos Casanova-Páez   : Triplet and SCS-CIS(D). UHF-(DLPNO)-IP/EA/STEOM-CCSD. UHF-CVS-IP/STEOM-CCSD
   Vijay G. Chilkuri      : MRCI spin determinant printing, contributions to CSF-ICE
   Pauline Colinet        : FMM embedding
   Dipayan Datta          : RHF DLPNO-CCSD density
   Achintya Kumar Dutta   : EOM-CC, STEOM-CC
   Nicolas Foglia         : Exact transition moments, OPA infrastructure, MCD improvements
   Dmitry Ganyushin       : Spin-Orbit,Spin-Spin,Magnetic field MRCI
   Miquel Garcia          : C-PCM and meta-GGA Hessian, CCSD/C-PCM, Gaussian charge scheme
   Tiago L. C. Gouveia    : GS-ROHF, GS-ROCIS
   Yang Guo               : DLPNO-NEVPT2, F12-NEVPT2, CIM, IAO-localization
   Andreas Hansen         : Spin unrestricted coupled pair/coupled cluster methods
   Ingolf Harden          : AUTO-CI MPn and infrastructure 
   Benjamin Helmich-Paris : MC-RPA, TRAH-(SCF,CASSCF), AVAS, COSX integrals, SCF dyn. polar.
   Lee Huntington         : MR-EOM, pCC
   Robert Izsak           : Overlap fitted RIJCOSX, COSX-SCS-MP3, EOM
   Riya Kayal             : Wick's Theorem for AUTO-CI, AUTO-CI UHF-CCSDT
   Emily Kempfer          : AUTO-CI, RHF CISDT and CCSDT
   Christian Kollmar      : KDIIS, OOCD, Brueckner-CCSD(T), CCSD density, CASPT2, CASPT2-K, improved NEVPT2
   Axel Koslowski         : Symmetry handling
   Simone Kossmann        : Meta GGA functionals, TD-DFT gradient, OOMP2, (MP2 Hessian; deprecated post 5.0)
   Lucas Lang             : DCDCAS
   Marvin Lechner         : AUTO-CI (C++ implementation), FIC-MRCC
   Spencer Leger          : CASSCF response
   Dagmar Lenk            : GEPOL surface, SMD, ORCA-2-JSON
   Dimitrios Liakos       : Extrapolation schemes; Compound Job, initial MDCI parallelization
   Dimitrios Manganas     : Further ROCIS development; embedding schemes. LFT, Crystal Embedding
   Dimitrios Pantazis     : SARC Basis sets
   Anastasios Papadopoulos: AUTO-CI, single reference methods and gradients
   Taras Petrenko         : pre 6.0 DFT Hessian and TD-DFT gradient, (ASA, deprecated), ECA, 1-Electron XAS/XES, NRVS
   Peter Pinski           : DLPNO-MP2, DLPNO-MP2 Gradient
   Christoph Reimann      : Effective Core Potentials
   Marius Retegan         : Local ZFS, SOC
   Christoph Riplinger    : Optimizer, TS searches, QM/MM, DLPNO-CCSD(T), (RO)-DLPNO pert. Triples
   Michael Roemelt        : Original ROCIS implementation
   Masaaki Saitow         : Open-shell DLPNO-CCSD energy and density
   Barbara Sandhoefer     : DKH picture change effects
   Kantharuban Sivalingam : CASSCF convergence/infrastructure, NEVPT2 and variants, FIC-MRCI
   Bernardo de Souza      : ESD, SOC TD-DFT
   Georgi Stoychev        : AutoAux, RI-MP2 NMR, DLPNO-MP2 response, X2C
   Van Anh Tran           : RI-MP2 g-tensors
   Willem Van den Heuvel  : Paramagnetic NMR
   Zikuan Wang            : NOTCH, Electric field optimization 
   Frank Wennmohs         : Technical directorship and infrastructure
   Hang Xu                : AUTO-CI-Response properties 


 We gratefully acknowledge several colleagues who have allowed us to
 interface, adapt or use parts of their codes:
   Stefan Grimme, W. Hujo, H. Kruse, P. Pracht,  : VdW corrections, initial TS optimization,
                  C. Bannwarth, S. Ehlert,         DFT functionals, gCP, sTDA/sTD-DF
                  L. Wittmann, M. Mueller
   Ed Valeev, F. Pavosevic, A. Kumar             : LibInt (2-el integral package), F12 methods
   Garnet Chan, S. Sharma, J. Yang, R. Olivares  : DMRG
   Ulf Ekstrom                                   : XCFun DFT Library
   Mihaly Kallay                                 : mrcc  (arbitrary order and MRCC methods)
   Frank Weinhold                                : gennbo (NPA and NBO analysis)
   Simon Mueller                                 : openCOSMO-RS
   Christopher J. Cramer and Donald G. Truhlar   : smd solvation model
   Lars Goerigk                                  : TD-DFT with DH, B97 family of functionals
   V. Asgeirsson, H. Jonsson                     : NEB implementation
   FAccTs GmbH                                   : IRC, NEB, NEB-TS, DLPNO-Multilevel, CI-OPT
                                                   MM, QMMM, 2- and 3-layer-ONIOM, Crystal-QMMM,
                                                   LR-CPCM, SF, NACMEs, symmetry and pop. for TD-DFT,
                                                   nearIR, NL-DFT gradient (VV10), updates on ESD,
                                                   ML-optimized integration grids, MBIS, APM,
                                                   GOAT, DOCKER, SOLVATOR, interface openCOSMO-RS
   S Lehtola, MJT Oliveira, MAL Marques          : LibXC Library
   Liviu Ungur et al                             : ANISO software


 Your calculation uses the libint2 library for the computation of 2-el integrals
 For citations please refer to: http://libint.valeyev.net

 Your ORCA version has been built with support for libXC version: 6.2.2
 For citations please refer to: https://libxc.gitlab.io

 This ORCA versions uses:
   CBLAS   interface :  Fast vector & matrix operations
   LAPACKE interface :  Fast linear algebra routines
   SCALAPACK package :  Parallel linear algebra routines
   Shared memory     :  Shared parallel matrices
   BLAS/LAPACK       :  OpenBLAS 0.3.27  USE64BITINT DYNAMIC_ARCH NO_AFFINITY SapphireRapids SINGLE_THREADED
        Core in use  :  SapphireRapids
   Copyright (c) 2011-2014, The OpenBLAS Project


Your calculation utilizes the geometrical counterpoise correction gCP
Please cite in your paper:
H.Kruse, S. Grimme J.Chem.Phys., 136, (2012), 154101 
   

Your calculation utilizes the atom-pairwise dispersion correction
based on EEQ partial charges (D4)


================================================================================

----- Orbital basis set information -----
Your calculation utilizes the basis: def2-SV(P)
   F. Weigend and R. Ahlrichs, Phys. Chem. Chem. Phys. 7, 3297 (2005).

----- AuxJ basis set information -----
Your calculation utilizes the auxiliary basis: def2/J
   F. Weigend, Phys. Chem. Chem. Phys. 8, 1057 (2006).

================================================================================
                                        WARNINGS
                       Please study these warnings very carefully!
================================================================================


================================================================================
                                       INPUT FILE
================================================================================
NAME = sp.inp
|  1> ! pbe def2-sv(p) def2/J RI DEFGRID1 loosescf d4 GCP(DFT/SV(P)) printgap
|  2> %output
|  3>     printlevel normal
|  4> end
|  5> * xyz 0 1
|  6> C 5.2342603592 -2.1630505383 -1.6435287808
|  7> C 4.1783427365 -1.082450048 -1.7609090988
|  8> O 3.1832414874 -1.3208640357 -0.7442184474
|  9> P 2.2340629783 -0.1650725319 -0.2052978722
| 10> S 3.1623730441 1.5029315246 0.2529937256
| 11> O 1.4903339789 -0.9137824914 0.9681105533
| 12> C 1.8899663005 -0.8190492797 2.3553448911
| 13> C 0.650861517 -0.6717725242 3.2147372576
| 14> S 0.7394388864 -0.0421821253 -1.6864774617
| 15> C 0.1009887456 1.5912107542 -1.2141391195
| 16> S -0.6116163169 1.6241330989 0.4495808856
| 17> P -2.1564156341 0.2281398563 0.0783846363
| 18> S -3.0187280962 0.3041450356 -1.6842857855
| 19> O -3.1325417041 0.3865404577 1.3208553505
| 20> C -4.2437076538 1.2999536331 1.3222397368
| 21> C -3.7949195075 2.747040063 1.3329999757
| 22> O -1.4067136219 -1.1161966867 0.4463265014
| 23> C -1.7815004469 -2.3888778562 -0.1124423064
| 24> C -3.107955017 -2.8696547229 0.4376296654
| 25> H 4.7766220194 -3.1413707087 -1.7579857916
| 26> H 5.9777743284 -2.0195823167 -2.4205778941
| 27> H 5.7162319951 -2.1106362794 -0.671348469
| 28> H 3.6817209442 -1.1114470905 -2.734237678
| 29> H 4.6051209972 -0.0860245192 -1.6040432358
| 30> H 2.4333822512 -1.7366016851 2.5906348731
| 31> H 2.5587009134 0.0407344861 2.4722903608
| 32> H 0.9420070038 -0.6753280814 4.2601670547
| 33> H 0.1418958961 0.2618804331 2.9874063658
| 34> H -0.0331428303 -1.4940480683 3.0251091521
| 35> H -0.6631020422 1.8436435606 -1.9486453555
| 36> H 0.9146647172 2.3157613654 -1.2172533023
| 37> H -4.8592993327 1.0961554647 0.4402395467
| 38> H -4.7934164127 1.0414767029 2.2282237022
| 39> H -4.6601033878 3.3907886563 1.4551174304
| 40> H -3.0965667279 2.9210322714 2.147760211
| 41> H -3.3025883824 2.9922467243 0.3928448276
| 42> H -1.8243464362 -2.2918931423 -1.2025701766
| 43> H -0.9580583947 -3.0494962457 0.1636923718
| 44> H -3.0819234844 -2.8869110712 1.5239623783
| 45> H -3.9036987374 -2.198823273 0.115469228
| 46> H -3.3139669422 -3.8673672869 0.0629826098
| 47> *
| 48> 
| 49>                          ****END OF INPUT****
================================================================================

                       ****************************
                       * Single Point Calculation *
                       ****************************

---------------------------------
CARTESIAN COORDINATES (ANGSTROEM)
---------------------------------
  C      5.234260   -2.163051   -1.643529
  C      4.178343   -1.082450   -1.760909
  O      3.183241   -1.320864   -0.744218
  P      2.234063   -0.165073   -0.205298
  S      3.162373    1.502932    0.252994
  O      1.490334   -0.913782    0.968111
  C      1.889966   -0.819049    2.355345
  C      0.650862   -0.671773    3.214737
  S      0.739439   -0.042182   -1.686477
  C      0.100989    1.591211   -1.214139
  S     -0.611616    1.624133    0.449581
  P     -2.156416    0.228140    0.078385
  S     -3.018728    0.304145   -1.684286
  O     -3.132542    0.386540    1.320855
  C     -4.243708    1.299954    1.322240
  C     -3.794920    2.747040    1.333000
  O     -1.406714   -1.116197    0.446327
  C     -1.781500   -2.388878   -0.112442
  C     -3.107955   -2.869655    0.437630
  H      4.776622   -3.141371   -1.757986
  H      5.977774   -2.019582   -2.420578
  H      5.716232   -2.110636   -0.671348
  H      3.681721   -1.111447   -2.734238
  H      4.605121   -0.086025   -1.604043
  H      2.433382   -1.736602    2.590635
  H      2.558701    0.040734    2.472290
  H      0.942007   -0.675328    4.260167
  H      0.141896    0.261880    2.987406
  H     -0.033143   -1.494048    3.025109
  H     -0.663102    1.843644   -1.948645
  H      0.914665    2.315761   -1.217253
  H     -4.859299    1.096155    0.440240
  H     -4.793416    1.041477    2.228224
  H     -4.660103    3.390789    1.455117
  H     -3.096567    2.921032    2.147760
  H     -3.302588    2.992247    0.392845
  H     -1.824346   -2.291893   -1.202570
  H     -0.958058   -3.049496    0.163692
  H     -3.081923   -2.886911    1.523962
  H     -3.903699   -2.198823    0.115469
  H     -3.313967   -3.867367    0.062983

----------------------------
CARTESIAN COORDINATES (A.U.)
----------------------------
  NO LB      ZA    FRAG     MASS         X           Y           Z
   0 C     6.0000    0    12.011    9.891319   -4.087573   -3.105819
   1 C     6.0000    0    12.011    7.895923   -2.045534   -3.327636
   2 O     8.0000    0    15.999    6.015455   -2.496071   -1.406369
   3 P    15.0000    0    30.974    4.221767   -0.311942   -0.387957
   4 S    16.0000    0    32.060    5.976019    2.840129    0.478089
   5 O     8.0000    0    15.999    2.816323   -1.726799    1.829464
   6 C     6.0000    0    12.011    3.571519   -1.547779    4.450957
   7 C     6.0000    0    12.011    1.229950   -1.269466    6.074973
   8 S    16.0000    0    32.060    1.397337   -0.079713   -3.186981
   9 C     6.0000    0    12.011    0.190841    3.006953   -2.294390
  10 S    16.0000    0    32.060   -1.155787    3.069167    0.849585
  11 P    15.0000    0    30.974   -4.075035    0.431122    0.148125
  12 S    16.0000    0    32.060   -5.704569    0.574751   -3.182839
  13 O     8.0000    0    15.999   -5.919646    0.730456    2.496055
  14 C     6.0000    0    12.011   -8.019445    2.456556    2.498671
  15 C     6.0000    0    12.011   -7.171359    5.191153    2.519005
  16 O     8.0000    0    15.999   -2.658303   -2.109306    0.843435
  17 C     6.0000    0    12.011   -3.366548   -4.514325   -0.212485
  18 C     6.0000    0    12.011   -5.873184   -5.422862    0.827000
  19 H     1.0000    0     1.008    9.026507   -5.936330   -3.322112
  20 H     1.0000    0     1.008   11.296356   -3.816457   -4.574229
  21 H     1.0000    0     1.008   10.802113   -3.988525   -1.268665
  22 H     1.0000    0     1.008    6.957444   -2.100331   -5.166960
  23 H     1.0000    0     1.008    8.702417   -0.162563   -3.031202
  24 H     1.0000    0     1.008    4.598426   -3.281702    4.895590
  25 H     1.0000    0     1.008    4.835244    0.076977    4.671952
  26 H     1.0000    0     1.008    1.780135   -1.276185    8.050549
  27 H     1.0000    0     1.008    0.268144    0.494882    5.645380
  28 H     1.0000    0     1.008   -0.062631   -2.823342    5.716628
  29 H     1.0000    0     1.008   -1.253081    3.483981   -3.682406
  30 H     1.0000    0     1.008    1.728466    4.376155   -2.300275
  31 H     1.0000    0     1.008   -9.182745    2.071434    0.831932
  32 H     1.0000    0     1.008   -9.058244    1.968106    4.210733
  33 H     1.0000    0     1.008   -8.806319    6.407662    2.749773
  34 H     1.0000    0     1.008   -5.851663    5.519951    4.058679
  35 H     1.0000    0     1.008   -6.240988    5.654527    0.742369
  36 H     1.0000    0     1.008   -3.447515   -4.331050   -2.272528
  37 H     1.0000    0     1.008   -1.810468   -5.762713    0.309334
  38 H     1.0000    0     1.008   -5.823991   -5.455471    2.879872
  39 H     1.0000    0     1.008   -7.376922   -4.155174    0.218205
  40 H     1.0000    0     1.008   -6.262490   -7.308265    0.119020

--------------------------------
INTERNAL COORDINATES (ANGSTROEM)
--------------------------------
 C      0   0   0     0.000000000000     0.00000000     0.00000000
 C      1   0   0     1.515400140101     0.00000000     0.00000000
 O      2   1   0     1.442472740171   107.95281576     0.00000000
 P      3   2   1     1.589726148985   122.05039773   157.44537172
 S      4   3   2     1.963167924397   114.48990950   312.59863479
 O      4   3   2     1.578159295204   100.86610459   186.18614029
 C      6   4   3     1.446754810546   123.48371554    97.27561799
 C      7   6   4     1.515132451900   108.92511966   137.54446984
 S      4   3   2     2.107817877444   103.15245055    80.48023692
 C      9   4   3     1.816230819748    96.83119156   196.95484354
 S     10   9   4     1.810208306039   113.18846799   296.86808542
 P     11  10   9     2.114944140941    96.55887520   297.91142725
 S     12  11  10     1.963763373083   116.91886244   322.53688575
 O     12  11  10     1.587969247404   104.23054604   193.88579355
 C     14  12  11     1.438407214002   122.61226661    90.87311468
 C     15  14  12     1.515119044366   112.19074910   291.41760340
 O     12  11  10     1.582616524631   100.01288385    89.52481784
 C     17  12  11     1.439585045756   122.50606156   205.69228916
 C     18  17  12     1.514333944760   111.57552749   289.23909070
 H      1   2   3     1.086113996405   109.91036959    58.28206718
 H      1   2   3     1.084989160077   109.13091034   178.26970471
 H      1   2   3     1.086360193950   110.12377709   298.24801144
 H      2   1   3     1.093088539940   111.50781043   241.46423898
 H      2   1   3     1.095267281181   111.47681998   119.14056375
 H      7   6   4     1.092046101481   106.79993426   258.08491178
 H      7   6   4     1.095495481190   108.80632444    16.11360547
 H      8   7   6     1.085219699939   109.06764143   175.79894360
 H      8   7   6     1.087397435301   110.34474093   295.81910547
 H      8   7   6     1.086258641368   110.02150687    55.61516142
 H     10   9   4     1.089521208821   106.23457569   176.25809837
 H     10   9   4     1.089519101753   109.56053011    55.59849748
 H     15  14  12     1.094719664531   108.38519707    53.69436114
 H     15  14  12     1.090778157381   103.86471183   170.62456793
 H     16  15  14     1.085296305554   109.34088268   186.81157717
 H     16  15  14     1.087108152110   110.39364679   307.26445077
 H     16  15  14     1.089223551888   110.04561053    67.24071482
 H     18  17  12     1.095271923732   108.55560610    51.64096594
 H     18  17  12     1.091202928140   103.91790921   168.20735323
 H     19  18  17     1.086781572057   110.31331024   305.61395097
 H     19  18  17     1.089500000072   109.68612902    65.48604502
 H     19  18  17     1.085463813288   109.43209159   184.99419220

---------------------------
INTERNAL COORDINATES (A.U.)
---------------------------
 C      0   0   0     0.000000000000     0.00000000     0.00000000
 C      1   0   0     2.863691248097     0.00000000     0.00000000
 O      2   1   0     2.725878434570   107.95281576     0.00000000
 P      3   2   1     3.004147049515   122.05039773   157.44537172
 S      4   3   2     3.709849732008   114.48990950   312.59863479
 O      4   3   2     2.982288863637   100.86610459   186.18614029
 C      6   4   3     2.733970374865   123.48371554    97.27561799
 C      7   6   4     2.863185390708   108.92511966   137.54446984
 S      4   3   2     3.983198528553   103.15245055    80.48023692
 C      9   4   3     3.432178845310    96.83119156   196.95484354
 S     10   9   4     3.420797943762   113.18846799   296.86808542
 P     11  10   9     3.996665214920    96.55887520   297.91142725
 S     12  11  10     3.710974966952   116.91886244   322.53688575
 O     12  11  10     3.000826986683   104.23054604   193.88579355
 C     14  12  11     2.718195703520   122.61226661    90.87311468
 C     15  14  12     2.863160054141   112.19074910   291.41760340
 O     12  11  10     2.990711806571   100.01288385    89.52481784
 C     17  12  11     2.720421482967   122.50606156   205.69228916
 C     18  17  12     2.861676430897   111.57552749   289.23909070
 H      1   2   3     2.052458003425   109.91036959    58.28206718
 H      1   2   3     2.050332370819   109.13091034   178.26970471
 H      1   2   3     2.052923249360   110.12377709   298.24801144
 H      2   1   3     2.065637980615   111.50781043   241.46423898
 H      2   1   3     2.069755204876   111.47681998   119.14056375
 H      7   6   4     2.063668057416   106.79993426   258.08491178
 H      7   6   4     2.070186440397   108.80632444    16.11360547
 H      8   7   6     2.050768028021   109.06764143   175.79894360
 H      8   7   6     2.054883351448   110.34474093   295.81910547
 H      8   7   6     2.052731342790   110.02150687    55.61516142
 H     10   9   4     2.058896701770   106.23457569   176.25809837
 H     10   9   4     2.058892719988   109.56053011    55.59849748
 H     15  14  12     2.068720359381   108.38519707    53.69436114
 H     15  14  12     2.061271990313   103.86471183   170.62456793
 H     16  15  14     2.050912791654   109.34088268   186.81157717
 H     16  15  14     2.054336685442   110.39364679   307.26445077
 H     16  15  14     2.058334211685   110.04561053    67.24071482
 H     18  17  12     2.069763978027   108.55560610    51.64096594
 H     18  17  12     2.062074690718   103.91790921   168.20735323
 H     19  18  17     2.053719538580   110.31331024   305.61395097
 H     19  18  17     2.058856623043   109.68612902    65.48604502
 H     19  18  17     2.051229335396   109.43209159   184.99419220

---------------------
BASIS SET INFORMATION
---------------------
There are 5 groups of distinct atoms

 Group   1 Type C   : 7s4p1d contracted to 3s2p1d pattern {511/31/1}
 Group   2 Type O   : 7s4p1d contracted to 3s2p1d pattern {511/31/1}
 Group   3 Type P   : 10s7p1d contracted to 4s3p1d pattern {5311/511/1}
 Group   4 Type S   : 10s7p1d contracted to 4s3p1d pattern {5311/511/1}
 Group   5 Type H   : 4s contracted to 2s pattern {31}

Atom   0C    basis set group =>   1
Atom   1C    basis set group =>   1
Atom   2O    basis set group =>   2
Atom   3P    basis set group =>   3
Atom   4S    basis set group =>   4
Atom   5O    basis set group =>   2
Atom   6C    basis set group =>   1
Atom   7C    basis set group =>   1
Atom   8S    basis set group =>   4
Atom   9C    basis set group =>   1
Atom  10S    basis set group =>   4
Atom  11P    basis set group =>   3
Atom  12S    basis set group =>   4
Atom  13O    basis set group =>   2
Atom  14C    basis set group =>   1
Atom  15C    basis set group =>   1
Atom  16O    basis set group =>   2
Atom  17C    basis set group =>   1
Atom  18C    basis set group =>   1
Atom  19H    basis set group =>   5
Atom  20H    basis set group =>   5
Atom  21H    basis set group =>   5
Atom  22H    basis set group =>   5
Atom  23H    basis set group =>   5
Atom  24H    basis set group =>   5
Atom  25H    basis set group =>   5
Atom  26H    basis set group =>   5
Atom  27H    basis set group =>   5
Atom  28H    basis set group =>   5
Atom  29H    basis set group =>   5
Atom  30H    basis set group =>   5
Atom  31H    basis set group =>   5
Atom  32H    basis set group =>   5
Atom  33H    basis set group =>   5
Atom  34H    basis set group =>   5
Atom  35H    basis set group =>   5
Atom  36H    basis set group =>   5
Atom  37H    basis set group =>   5
Atom  38H    basis set group =>   5
Atom  39H    basis set group =>   5
Atom  40H    basis set group =>   5
---------------------------------
AUXILIARY/J BASIS SET INFORMATION
---------------------------------
There are 5 groups of distinct atoms

 Group   1 Type C   : 12s5p4d2f1g contracted to 6s4p3d1f1g pattern {711111/2111/211/2/1}
 Group   2 Type O   : 12s5p4d2f1g contracted to 6s4p3d1f1g pattern {711111/2111/211/2/1}
 Group   3 Type P   : 14s5p5d2f1g contracted to 8s4p3d1f1g pattern {71111111/2111/311/2/1}
 Group   4 Type S   : 14s5p5d2f1g contracted to 8s4p3d1f1g pattern {71111111/2111/311/2/1}
 Group   5 Type H   : 5s2p1d contracted to 3s1p1d pattern {311/2/1}

Atom   0C    basis set group =>   1
Atom   1C    basis set group =>   1
Atom   2O    basis set group =>   2
Atom   3P    basis set group =>   3
Atom   4S    basis set group =>   4
Atom   5O    basis set group =>   2
Atom   6C    basis set group =>   1
Atom   7C    basis set group =>   1
Atom   8S    basis set group =>   4
Atom   9C    basis set group =>   1
Atom  10S    basis set group =>   4
Atom  11P    basis set group =>   3
Atom  12S    basis set group =>   4
Atom  13O    basis set group =>   2
Atom  14C    basis set group =>   1
Atom  15C    basis set group =>   1
Atom  16O    basis set group =>   2
Atom  17C    basis set group =>   1
Atom  18C    basis set group =>   1
Atom  19H    basis set group =>   5
Atom  20H    basis set group =>   5
Atom  21H    basis set group =>   5
Atom  22H    basis set group =>   5
Atom  23H    basis set group =>   5
Atom  24H    basis set group =>   5
Atom  25H    basis set group =>   5
Atom  26H    basis set group =>   5
Atom  27H    basis set group =>   5
Atom  28H    basis set group =>   5
Atom  29H    basis set group =>   5
Atom  30H    basis set group =>   5
Atom  31H    basis set group =>   5
Atom  32H    basis set group =>   5
Atom  33H    basis set group =>   5
Atom  34H    basis set group =>   5
Atom  35H    basis set group =>   5
Atom  36H    basis set group =>   5
Atom  37H    basis set group =>   5
Atom  38H    basis set group =>   5
Atom  39H    basis set group =>   5
Atom  40H    basis set group =>   5
------------------------------------------------------------------------------
                             ORCA STARTUP CALCULATIONS
                           -- RI-GTO INTEGRALS CHOSEN --
------------------------------------------------------------------------------
------------------------------------------------------------------------------
                   ___                                                        
                  /   \      - P O W E R E D   B Y -                         
                 /     \                                                     
                 |  |  |   _    _      __       _____    __    __             
                 |  |  |  | |  | |    /  \     |  _  \  |  |  /  |          
                  \  \/   | |  | |   /    \    | | | |  |  | /  /          
                 / \  \   | |__| |  /  /\  \   | |_| |  |  |/  /          
                |  |  |   |  __  | /  /__\  \  |    /   |      \           
                |  |  |   | |  | | |   __   |  |    \   |  |\   \          
                \     /   | |  | | |  |  |  |  | |\  \  |  | \   \       
                 \___/    |_|  |_| |__|  |__|  |_| \__\ |__|  \__/        
                                                                              
                      - O R C A' S   B I G   F R I E N D -                    
                                      &                                       
                       - I N T E G R A L  F E E D E R -                       
                                                                              
 v1 FN, 2020, v2 2021, v3 2022-2024                                           
------------------------------------------------------------------------------


----------------------
SHARK INTEGRAL PACKAGE
----------------------

Number of atoms                             ...     41
Number of basis functions                   ...    334
Number of shells                            ...    170
Maximum angular momentum                    ...      2
Integral batch strategy                     ... SHARK/LIBINT Hybrid
RI-J (if used) integral strategy            ... SPLIT-RIJ (Revised 2003 algorithm where possible)
Printlevel                                  ...      1
Contraction scheme used                     ... SEGMENTED contraction
Prescreening option                         ... SCHWARTZ
   Thresh                                   ... 1.000e-09
   Tcut                                     ... 1.000e-10
   Tpresel                                  ... 1.000e-10 
Coulomb Range Separation                    ... NOT USED
Exchange Range Separation                   ... NOT USED
Multipole approximations                    ... NOT USED
Finite Nucleus Model                        ... NOT USED
CABS basis                                  ... NOT available
Auxiliary Coulomb fitting basis             ... AVAILABLE
   # of basis functions in Aux-J            ...   1185
   # of shells in Aux-J                     ...    407
   Maximum angular momentum in Aux-J        ...      4
Auxiliary J/K fitting basis                 ... NOT available
Auxiliary Correlation fitting basis         ... NOT available
Auxiliary 'external' fitting basis          ... NOT available

Checking pre-screening integrals            ... done (  0.0 sec) Dimension = 170
Check shell pair data                       ... done (  0.0 sec)
Shell pair information
Shell pair cut-off parameter TPreSel        ...   1.0e-10
Total number of shell pairs                 ...     14535
Shell pairs after pre-screening             ...     10388
Total number of primitive shell pairs       ...     62501
Primitive shell pairs kept                  ...     25771
          la=0 lb=0:   4023 shell pairs
          la=1 lb=0:   3522 shell pairs
          la=1 lb=1:    813 shell pairs
          la=2 lb=0:   1313 shell pairs
          la=2 lb=1:    606 shell pairs
          la=2 lb=2:    111 shell pairs

Calculating one electron integrals          ... done (  0.1 sec)
Calculating RI/J V-Matrix + Cholesky decomp.... done (  0.1 sec)
Calculating Nuclear repulsion               ... done (  0.0 sec) ENN=   2789.971751889983 Eh

Diagonalization of the overlap matrix:
Smallest eigenvalue                        ... 3.356e-03
Time for diagonalization                   ...    0.010 sec
Threshold for overlap eigenvalues          ... 1.000e-07
Number of eigenvalues below threshold      ... 0
Time for construction of square roots      ...    0.021 sec
Total time needed                          ...    0.038 sec

-------------------
DFT GRID GENERATION
-------------------

General Integration Accuracy     IntAcc      ... 4.159
Radial Grid Type                 RadialGrid  ... OptM3 with GC (2021)
Angular Grid (max. ang.)         AngularGrid ... 3 (Lebedev-194)
Angular grid pruning method      GridPruning ... 4 (adaptive)
Weight generation scheme         WeightScheme... mBecke (2022)
Basis function cutoff            BFCut       ... 1.0000e-10
Integration weight cutoff        WCut        ... 1.0000e-14
Partially contracted basis set               ... off
Rotationally invariant grid construction     ... off
Angular grids for H and He will be reduced by one unit

Total number of grid points                  ...    97509
Total number of batches                      ...     1544
Average number of points per batch           ...       63
Average number of grid points per atom       ...     2378
Initializing property integral containers    ... done (  0.0 sec)

SHARK setup successfully completed in   1.6 seconds

Maximum memory used throughout the entire STARTUP-calculation: 51.7 MB
-------------------------------------------------------------------------------
                                 ORCA GUESS
                   Start orbitals & Density for SCF / CASSCF
-------------------------------------------------------------------------------

------------
SCF SETTINGS
------------
Hamiltonian:
 Density Functional     Method          .... DFT(GTOs)
 Exchange Functional    Exchange        .... PBE
   PBE kappa parameter   XKappa         ....  0.804000
   PBE mue parameter    XMuePBE         ....  0.219520
 Correlation Functional Correlation     .... PBE
   PBE beta parameter  CBetaPBE         ....  0.066725
 LDA part of GGA corr.  LDAOpt          .... PW91-LDA
 Gradients option       PostSCFGGA      .... off
   NL short-range parameter             ....  6.400000
 RI-approximation to the Coulomb term is turned on
   Number of AuxJ basis functions       .... 1185


General Settings:
 Integral files         IntName         .... sp
 Hartree-Fock type      HFTyp           .... RHF
 Total Charge           Charge          ....    0
 Multiplicity           Mult            ....    1
 Number of Electrons    NEL             ....  202
 Basis Dimension        Dim             ....  334
 Nuclear Repulsion      ENuc            ....   2789.9717518900 Eh

Convergence Acceleration:
 AO-DIIS                CNVDIIS         .... on
   Start iteration      DIISMaxIt       ....    12
   Startup error        DIISStart       ....  0.200000
   # of expansion vecs  DIISMaxEq       ....     5
   Bias factor          DIISBfac        ....   1.050
   Max. coefficient     DIISMaxC        ....  10.000
 MO-DIIS                CNVKDIIS        .... off
 Trust-Rad. Augm. Hess. CNVTRAH         .... auto
   Auto Start mean grad. ratio tolernc. ....  1.125000
   Auto Start start iteration           ....    50
   Auto Start num. interpolation iter.  ....    10
   Max. Number of Micro iterations      ....    24
   Max. Number of Macro iterations      .... Maxiter - #DIIS iter
   Number of Davidson start vectors     ....     2
   Converg. threshold    (grad. norm)   ....   1.000e-04
   Grad. Scal. Fac. for Micro threshold ....   0.100
   Minimum threshold for Micro iter.    ....   1.000e-02
   NR start threshold (gradient norm)   ....   1.000e-04
   Initial trust radius                 ....   0.400
   Minimum AH scaling param. (alpha)    ....   1.000
   Maximum AH scaling param. (alpha)    .... 1000.000
   Quad. conv. algorithm                .... NR
   White noise on init. David. guess    .... on
   Maximum white noise                  ....   0.010
   Pseudo random numbers                .... off
   Inactive MOs                         .... canonical
   Orbital update algorithm             .... Taylor
   Preconditioner                       .... Diag
   Full preconditioner red. dimension   ....   250
 SOSCF                  CNVSOSCF        .... on
   Start iteration      SOSCFMaxIt      ....   150
   Startup grad/error   SOSCFStart      ....  0.003300
   Hessian update       SOSCFHessUp     .... L-BFGS
 Level Shifting         CNVShift        .... on
   Level shift para.    LevelShift      ....    0.2500
   Turn off err/grad.   ShiftErr        ....    0.0010
 Zerner damping         CNVZerner       .... off
 Static damping         CNVDamp         .... on
   Fraction old density DampFac         ....    0.7000
   Max. Damping (<1)    DampMax         ....    0.9800
   Min. Damping (>=0)   DampMin         ....    0.0000
   Turn off err/grad.   DampErr         ....    0.1000

SCF Procedure:
 Maximum # iterations   MaxIter         ....   125
 SCF integral mode      SCFMode         .... Direct
   Integral package                     .... SHARK and LIBINT hybrid scheme
 Reset frequency        DirectResetFreq ....    20
 Integral Threshold     Thresh          ....  1.000e-09 Eh
 Primitive CutOff       TCut            ....  1.000e-10 Eh

Convergence Tolerance:
 Convergence Check Mode ConvCheckMode   .... Total+1el-Energy
 Convergence forced     ConvForced      .... 0
 Energy Change          TolE            ....  1.000e-05 Eh
 1-El. energy change                    ....  1.000e-02 Eh
 Orbital Gradient       TolG            ....  1.000e-04
 Orbital Rotation angle TolX            ....  1.000e-04
 DIIS Error             TolErr          ....  5.000e-04

------------------------------
INITIAL GUESS: MODEL POTENTIAL
------------------------------
Loading Hartree-Fock densities                     ... done
Calculating cut-offs                               ... done
Initializing the effective Hamiltonian             ... done
Setting up the integral package (SHARK)            ... done
Starting the Coulomb interaction                   ... done (   0.6 sec)
Making the grid                                    ... done (   0.6 sec)
Mapping shells                                     ... done
Starting the XC term evaluation                    ... done (   0.4 sec)
  promolecular density results
     # of electrons  =    201.989437626
     EX              =   -229.998675933
     EC              =     -7.284431758
     EX+EC           =   -237.283107690
Transforming the Hamiltonian                       ... done (   0.0 sec)
Diagonalizing the Hamiltonian                      ... done (   0.0 sec)
Back transforming the eigenvectors                 ... done (   0.0 sec)
Now organizing SCF variables                       ... done
                      ------------------
                      INITIAL GUESS DONE (   1.6 sec)
                      ------------------
             **** ENERGY FILE WAS UPDATED (sp.en.tmp) ****
Finished Guess after   1.9 sec
Maximum memory used throughout the entire GUESS-calculation: 39.3 MB

-------------------------------------------------------------------------------------------
                                      ORCA LEAN-SCF
                              memory conserving SCF solver
-------------------------------------------------------------------------------------------

----------------------------------------D-I-I-S--------------------------------------------
Iteration    Energy (Eh)           Delta-E    RMSDP     MaxDP     DIISErr   Damp  Time(sec)
-------------------------------------------------------------------------------------------
               ***  Starting incremental Fock matrix formation  ***
    1    -2929.2001135070836426     0.00e+00  2.69e-03  1.39e-01  1.81e-01  0.700   2.2
    2    -2929.4243390333881507    -2.24e-01  1.73e-03  7.00e-02  7.45e-02  0.700   2.0
                               ***Turning on AO-DIIS***
    3    -2929.4951747824675294    -7.08e-02  6.77e-04  1.57e-02  2.12e-02  0.700   2.0
    4    -2929.5400564764117917    -4.49e-02  1.03e-03  3.03e-02  1.04e-02  0.000   2.0
    5    -2929.6448111257682285    -1.05e-01  3.11e-04  9.47e-03  7.99e-03  0.000   2.0
                              *** Initializing SOSCF ***
---------------------------------------S-O-S-C-F--------------------------------------
Iteration    Energy (Eh)           Delta-E    RMSDP     MaxDP     MaxGrad    Time(sec)
--------------------------------------------------------------------------------------
    6    -2929.6458933793842334    -1.08e-03  1.09e-04  3.50e-03  2.64e-03     1.9
               *** Restarting incremental Fock matrix formation ***
    7    -2929.6460337936655378    -1.40e-04  6.69e-05  1.30e-03  2.05e-04     2.2
    8    -2929.6460389694043442    -5.18e-06  2.44e-05  7.76e-04  1.18e-04     1.8
                 **** Energy Check signals convergence ****

               *****************************************************
               *                     SUCCESS                       *
               *           SCF CONVERGED AFTER   8 CYCLES          *
               *****************************************************

             **** ENERGY FILE WAS UPDATED (sp.en.tmp) ****

----------------
TOTAL SCF ENERGY
----------------

Total Energy       :      -2929.64603896940434 Eh          -79719.72159 eV

Components:
Nuclear Repulsion  :       2789.97175188998290 Eh           75918.99102 eV
Electronic Energy  :      -5719.61779085938724 Eh         -155638.71261 eV
One Electron Energy:      -9598.73243340711633 Eh         -261194.78840 eV
Two Electron Energy:       3879.11464254772864 Eh          105556.07579 eV

Virial components:
Potential Energy   :      -5848.92471722260871 Eh         -159157.33296 eV
Kinetic Energy     :       2919.27867825320436 Eh           79437.61137 eV
Virial Ratio       :          2.00355134327991

DFT components:
N(Alpha)           :      100.999978628597 electrons
N(Beta)            :      100.999978628597 electrons
N(Total)           :      201.999957257194 electrons
E(X)               :     -231.804122412987 Eh       
E(C)               :       -7.294313949959 Eh       
E(XC)              :     -239.098436362946 Eh       

---------------
SCF CONVERGENCE
---------------

  Last Energy change         ...    5.1757e-06  Tolerance :   1.0000e-05
  Last MAX-Density change    ...    7.7647e-04  Tolerance :   1.0000e-03
  Last RMS-Density change    ...    2.4387e-05  Tolerance :   1.0000e-04
  Last DIIS Error            ...    2.6355e-03  Tolerance :   5.0000e-04
  Last Orbital Gradient      ...    1.1839e-04  Tolerance :   1.0000e-04
  Last Orbital Rotation      ...    3.4340e-04  Tolerance :   1.0000e-04


----------------
ORBITAL ENERGIES
----------------

  NO   OCC          E(Eh)            E(eV) 
   0   2.0000     -88.042825     -2395.7671 
   1   2.0000     -88.041462     -2395.7300 
   2   2.0000     -87.990548     -2394.3445 
   3   2.0000     -87.985960     -2394.2197 
   4   2.0000     -76.427266     -2079.6916 
   5   2.0000     -76.423948     -2079.6014 
   6   2.0000     -18.796422      -511.4766 
   7   2.0000     -18.791196      -511.3344 
   8   2.0000     -18.787162      -511.2247 
   9   2.0000     -18.786448      -511.2052 
  10   2.0000      -9.954481      -270.8752 
  11   2.0000      -9.954196      -270.8674 
  12   2.0000      -9.951124      -270.7838 
  13   2.0000      -9.947945      -270.6973 
  14   2.0000      -9.947643      -270.6891 
  15   2.0000      -9.887515      -269.0530 
  16   2.0000      -9.885329      -268.9935 
  17   2.0000      -9.882500      -268.9165 
  18   2.0000      -9.878361      -268.8039 
  19   2.0000      -7.687645      -209.1915 
  20   2.0000      -7.686659      -209.1646 
  21   2.0000      -7.635443      -207.7710 
  22   2.0000      -7.631000      -207.6501 
  23   2.0000      -6.424750      -174.8263 
  24   2.0000      -6.421692      -174.7431 
  25   2.0000      -5.715497      -155.5266 
  26   2.0000      -5.714540      -155.5006 
  27   2.0000      -5.712296      -155.4395 
  28   2.0000      -5.711200      -155.4096 
  29   2.0000      -5.704490      -155.2271 
  30   2.0000      -5.703556      -155.2016 
  31   2.0000      -5.664200      -154.1307 
  32   2.0000      -5.659710      -154.0085 
  33   2.0000      -5.656080      -153.9097 
  34   2.0000      -5.655786      -153.9018 
  35   2.0000      -5.651608      -153.7881 
  36   2.0000      -5.651381      -153.7819 
  37   2.0000      -4.647109      -126.4543 
  38   2.0000      -4.646500      -126.4377 
  39   2.0000      -4.645414      -126.4081 
  40   2.0000      -4.644044      -126.3709 
  41   2.0000      -4.643488      -126.3557 
  42   2.0000      -4.642262      -126.3224 
  43   2.0000      -0.987875       -26.8814 
  44   2.0000      -0.983646       -26.7664 
  45   2.0000      -0.946357       -25.7517 
  46   2.0000      -0.941893       -25.6302 
  47   2.0000      -0.765625       -20.8337 
  48   2.0000      -0.721950       -19.6453 
  49   2.0000      -0.708420       -19.2771 
  50   2.0000      -0.686974       -18.6935 
  51   2.0000      -0.685311       -18.6483 
  52   2.0000      -0.673031       -18.3141 
  53   2.0000      -0.649847       -17.6832 
  54   2.0000      -0.638261       -17.3680 
  55   2.0000      -0.603150       -16.4126 
  56   2.0000      -0.590211       -16.0605 
  57   2.0000      -0.571784       -15.5590 
  58   2.0000      -0.567098       -15.4315 
  59   2.0000      -0.556403       -15.1405 
  60   2.0000      -0.506349       -13.7785 
  61   2.0000      -0.492976       -13.4146 
  62   2.0000      -0.477847       -13.0029 
  63   2.0000      -0.473689       -12.8897 
  64   2.0000      -0.455930       -12.4065 
  65   2.0000      -0.440685       -11.9917 
  66   2.0000      -0.439948       -11.9716 
  67   2.0000      -0.433475       -11.7955 
  68   2.0000      -0.430530       -11.7153 
  69   2.0000      -0.414321       -11.2742 
  70   2.0000      -0.405853       -11.0438 
  71   2.0000      -0.393465       -10.7067 
  72   2.0000      -0.388129       -10.5615 
  73   2.0000      -0.386889       -10.5278 
  74   2.0000      -0.379192       -10.3184 
  75   2.0000      -0.376129       -10.2350 
  76   2.0000      -0.370666       -10.0863 
  77   2.0000      -0.356922        -9.7123 
  78   2.0000      -0.355449        -9.6723 
  79   2.0000      -0.349321        -9.5055 
  80   2.0000      -0.347731        -9.4622 
  81   2.0000      -0.345725        -9.4076 
  82   2.0000      -0.341707        -9.2983 
  83   2.0000      -0.336578        -9.1588 
  84   2.0000      -0.333184        -9.0664 
  85   2.0000      -0.320144        -8.7116 
  86   2.0000      -0.305879        -8.3234 
  87   2.0000      -0.299123        -8.1396 
  88   2.0000      -0.297136        -8.0855 
  89   2.0000      -0.288730        -7.8567 
  90   2.0000      -0.279835        -7.6147 
  91   2.0000      -0.277738        -7.5576 
  92   2.0000      -0.266242        -7.2448 
  93   2.0000      -0.263651        -7.1743 
  94   2.0000      -0.259791        -7.0693 
  95   2.0000      -0.232149        -6.3171 
  96   2.0000      -0.218131        -5.9357 
  97   2.0000      -0.214283        -5.8309 
  98   2.0000      -0.208601        -5.6763 
  99   2.0000      -0.200845        -5.4653 
 100   2.0000      -0.200248        -5.4490 
 101   0.0000      -0.045075        -1.2266 
 102   0.0000      -0.022768        -0.6196 
 103   0.0000       0.000389         0.0106 
 104   0.0000       0.004600         0.1252 
 105   0.0000       0.008848         0.2408 
 106   0.0000       0.029525         0.8034 
 107   0.0000       0.032557         0.8859 
 108   0.0000       0.043124         1.1735 
 109   0.0000       0.045459         1.2370 
 110   0.0000       0.049091         1.3358 
 111   0.0000       0.052565         1.4304 
*Only the first 10 virtual orbitals were printed.

                    ********************************
                    * MULLIKEN POPULATION ANALYSIS *
                    ********************************

-----------------------
MULLIKEN ATOMIC CHARGES
-----------------------
   0 C :   -0.280453
   1 C :   -0.009698
   2 O :   -0.378048
   3 P :    0.618059
   4 S :   -0.343793
   5 O :   -0.354633
   6 C :   -0.009416
   7 C :   -0.283202
   8 S :   -0.082069
   9 C :   -0.361580
  10 S :   -0.074561
  11 P :    0.615435
  12 S :   -0.338093
  13 O :   -0.370330
  14 C :   -0.004480
  15 C :   -0.316013
  16 O :   -0.351254
  17 C :    0.000053
  18 C :   -0.305904
  19 H :    0.116039
  20 H :    0.111976
  21 H :    0.117736
  22 H :    0.101943
  23 H :    0.105767
  24 H :    0.100099
  25 H :    0.108281
  26 H :    0.103928
  27 H :    0.122786
  28 H :    0.116289
  29 H :    0.190044
  30 H :    0.193545
  31 H :    0.111506
  32 H :    0.106293
  33 H :    0.114144
  34 H :    0.118973
  35 H :    0.127389
  36 H :    0.112086
  37 H :    0.104931
  38 H :    0.114875
  39 H :    0.120141
  40 H :    0.111211
Sum of atomic charges:   -0.0000000

--------------------------------
MULLIKEN REDUCED ORBITAL CHARGES
--------------------------------
  0 C s       :     3.091784  s :     3.091784
      pz      :     1.073942  p :     3.160829
      px      :     1.038982
      py      :     1.047905
      dz2     :     0.005964  d :     0.027841
      dxz     :     0.008534
      dyz     :     0.001416
      dx2y2   :     0.005737
      dxy     :     0.006189

  1 C s       :     3.072472  s :     3.072472
      pz      :     0.894977  p :     2.877488
      px      :     0.895049
      py      :     1.087462
      dz2     :     0.014390  d :     0.059739
      dxz     :     0.018360
      dyz     :     0.005112
      dx2y2   :     0.011257
      dxy     :     0.010619

  2 O s       :     3.764833  s :     3.764833
      pz      :     1.543239  p :     4.600274
      px      :     1.470278
      py      :     1.586756
      dz2     :     0.002326  d :     0.012940
      dxz     :     0.002082
      dyz     :     0.002673
      dx2y2   :     0.002267
      dxy     :     0.003592

  3 P s       :     5.209528  s :     5.209528
      pz      :     2.874180  p :     8.581194
      px      :     2.870515
      py      :     2.836499
      dz2     :     0.091032  d :     0.591220
      dxz     :     0.132889
      dyz     :     0.128020
      dx2y2   :     0.112147
      dxy     :     0.127132

  4 S s       :     5.922804  s :     5.922804
      pz      :     3.627530  p :    10.378145
      px      :     3.511138
      py      :     3.239478
      dz2     :     0.005973  d :     0.042844
      dxz     :     0.003358
      dyz     :     0.008392
      dx2y2   :     0.010938
      dxy     :     0.014182

  5 O s       :     3.755483  s :     3.755483
      pz      :     1.235029  p :     4.586082
      px      :     1.665459
      py      :     1.685594
      dz2     :     0.002380  d :     0.013068
      dxz     :     0.003984
      dyz     :     0.002857
      dx2y2   :     0.001821
      dxy     :     0.002026

  6 C s       :     3.075061  s :     3.075061
      pz      :     0.717470  p :     2.874820
      px      :     1.072447
      py      :     1.084903
      dz2     :     0.021084  d :     0.059535
      dxz     :     0.013149
      dyz     :     0.009143
      dx2y2   :     0.003566
      dxy     :     0.012593

  7 C s       :     3.092934  s :     3.092934
      pz      :     1.024508  p :     3.162509
      px      :     1.034512
      py      :     1.103489
      dz2     :     0.008092  d :     0.027760
      dxz     :     0.004883
      dyz     :     0.001439
      dx2y2   :     0.003425
      dxy     :     0.009921

  8 S s       :     5.881977  s :     5.881977
      pz      :     3.497516  p :    10.123926
      px      :     3.385919
      py      :     3.240492
      dz2     :     0.010706  d :     0.076166
      dxz     :     0.019549
      dyz     :     0.012915
      dx2y2   :     0.019470
      dxy     :     0.013526

  9 C s       :     3.219684  s :     3.219684
      pz      :     0.983151  p :     3.101625
      px      :     1.109600
      py      :     1.008874
      dz2     :     0.009155  d :     0.040271
      dxz     :     0.009777
      dyz     :     0.006400
      dx2y2   :     0.005568
      dxy     :     0.009372

 10 S s       :     5.883001  s :     5.883001
      pz      :     3.213628  p :    10.115063
      px      :     3.327736
      py      :     3.573699
      dz2     :     0.025954  d :     0.076497
      dxz     :     0.017196
      dyz     :     0.010097
      dx2y2   :     0.006052
      dxy     :     0.017198

 11 P s       :     5.204412  s :     5.204412
      pz      :     2.837762  p :     8.591490
      px      :     2.876591
      py      :     2.877137
      dz2     :     0.127944  d :     0.588663
      dxz     :     0.130330
      dyz     :     0.107042
      dx2y2   :     0.092742
      dxy     :     0.130607

 12 S s       :     5.923997  s :     5.923997
      pz      :     3.167915  p :    10.371358
      px      :     3.526540
      py      :     3.676903
      dz2     :     0.016041  d :     0.042738
      dxz     :     0.014395
      dyz     :     0.007732
      dx2y2   :     0.002441
      dxy     :     0.002130

 13 O s       :     3.757589  s :     3.757589
      pz      :     1.568949  p :     4.599669
      px      :     1.407427
      py      :     1.623293
      dz2     :     0.003098  d :     0.013071
      dxz     :     0.003558
      dyz     :     0.002046
      dx2y2   :     0.001868
      dxy     :     0.002501

 14 C s       :     3.075420  s :     3.075420
      pz      :     1.087766  p :     2.868603
      px      :     0.867920
      py      :     0.912916
      dz2     :     0.009210  d :     0.060457
      dxz     :     0.013657
      dyz     :     0.007283
      dx2y2   :     0.012907
      dxy     :     0.017400

 15 C s       :     3.107545  s :     3.107545
      pz      :     1.097206  p :     3.180462
      px      :     1.071144
      py      :     1.012113
      dz2     :     0.005536  d :     0.028006
      dxz     :     0.007567
      dyz     :     0.004025
      dx2y2   :     0.004100
      dxy     :     0.006777

 16 O s       :     3.758446  s :     3.758446
      pz      :     1.684416  p :     4.579397
      px      :     1.675408
      py      :     1.219573
      dz2     :     0.002006  d :     0.013411
      dxz     :     0.001919
      dyz     :     0.003070
      dx2y2   :     0.002314
      dxy     :     0.004102

 17 C s       :     3.076875  s :     3.076875
      pz      :     1.038326  p :     2.862558
      px      :     1.046845
      py      :     0.777386
      dz2     :     0.015013  d :     0.060514
      dxz     :     0.005362
      dyz     :     0.010821
      dx2y2   :     0.012385
      dxy     :     0.016934

 18 C s       :     3.099517  s :     3.099517
      pz      :     1.072792  p :     3.178423
      px      :     1.042704
      py      :     1.062928
      dz2     :     0.009184  d :     0.027964
      dxz     :     0.003677
      dyz     :     0.003002
      dx2y2   :     0.005889
      dxy     :     0.006213

 19 H s       :     0.883961  s :     0.883961

 20 H s       :     0.888024  s :     0.888024

 21 H s       :     0.882264  s :     0.882264

 22 H s       :     0.898057  s :     0.898057

 23 H s       :     0.894233  s :     0.894233

 24 H s       :     0.899901  s :     0.899901

 25 H s       :     0.891719  s :     0.891719

 26 H s       :     0.896072  s :     0.896072

 27 H s       :     0.877214  s :     0.877214

 28 H s       :     0.883711  s :     0.883711

 29 H s       :     0.809956  s :     0.809956

 30 H s       :     0.806455  s :     0.806455

 31 H s       :     0.888494  s :     0.888494

 32 H s       :     0.893707  s :     0.893707

 33 H s       :     0.885856  s :     0.885856

 34 H s       :     0.881027  s :     0.881027

 35 H s       :     0.872611  s :     0.872611

 36 H s       :     0.887914  s :     0.887914

 37 H s       :     0.895069  s :     0.895069

 38 H s       :     0.885125  s :     0.885125

 39 H s       :     0.879859  s :     0.879859

 40 H s       :     0.888789  s :     0.888789


------------------------
MULLIKEN OVERLAP CHARGES
------------------------
B(  0-C ,  1-C ) :   0.8634 B(  0-C ,  2-O ) :  -0.1158 B(  0-C , 19-H ) :   0.7429 
B(  0-C , 20-H ) :   0.7001 B(  0-C , 21-H ) :   0.7375 B(  0-C , 22-H ) :  -0.0542 
B(  1-C ,  2-O ) :   0.5545 B(  1-C ,  3-P ) :  -0.0868 B(  1-C , 22-H ) :   0.7291 
B(  1-C , 23-H ) :   0.6944 B(  2-O ,  3-P ) :   0.6457 B(  2-O ,  4-S ) :  -0.0691 
B(  2-O ,  5-O ) :  -0.0662 B(  2-O ,  8-S ) :  -0.0649 B(  2-O , 22-H ) :  -0.0636 
B(  2-O , 23-H ) :  -0.0700 B(  3-P ,  4-S ) :   0.9357 B(  3-P ,  5-O ) :   0.6479 
B(  3-P ,  6-C ) :  -0.0833 B(  3-P ,  8-S ) :   0.5048 B(  3-P ,  9-C ) :  -0.0712 
B(  4-S ,  5-O ) :  -0.0642 B(  4-S ,  8-S ) :  -0.0942 B(  4-S , 23-H ) :   0.0750 
B(  4-S , 25-H ) :   0.0858 B(  4-S , 30-H ) :   0.0729 B(  5-O ,  6-C ) :   0.5481 
B(  5-O ,  7-C ) :  -0.1091 B(  5-O ,  8-S ) :  -0.0652 B(  5-O , 24-H ) :  -0.0611 
B(  5-O , 25-H ) :  -0.0660 B(  6-C ,  7-C ) :   0.8809 B(  6-C , 24-H ) :   0.7345 
B(  6-C , 25-H ) :   0.6973 B(  7-C , 24-H ) :  -0.0627 B(  7-C , 25-H ) :  -0.0507 
B(  7-C , 26-H ) :   0.6950 B(  7-C , 27-H ) :   0.7408 B(  7-C , 28-H ) :   0.7428 
B(  8-S ,  9-C ) :   0.4784 B(  8-S , 10-S ) :  -0.1622 B(  8-S , 29-H ) :  -0.0651 
B(  8-S , 30-H ) :  -0.0594 B(  9-C , 10-S ) :   0.4725 B(  9-C , 11-P ) :  -0.0694 
B(  9-C , 29-H ) :   0.6719 B(  9-C , 30-H ) :   0.6692 B( 10-S , 11-P ) :   0.4987 
B( 10-S , 12-S ) :  -0.0887 B( 10-S , 13-O ) :  -0.0621 B( 10-S , 16-O ) :  -0.0708 
B( 10-S , 29-H ) :  -0.0616 B( 10-S , 30-H ) :  -0.0608 B( 11-P , 12-S ) :   0.9055 
B( 11-P , 13-O ) :   0.6466 B( 11-P , 14-C ) :  -0.0777 B( 11-P , 16-O ) :   0.6359 
B( 11-P , 17-C ) :  -0.0907 B( 12-S , 13-O ) :  -0.0690 B( 12-S , 16-O ) :  -0.0653 
B( 12-S , 29-H ) :   0.0683 B( 12-S , 31-H ) :   0.0591 B( 12-S , 36-H ) :   0.0560 
B( 13-O , 14-C ) :   0.5578 B( 13-O , 15-C ) :  -0.0922 B( 13-O , 16-O ) :  -0.0621 
B( 13-O , 31-H ) :  -0.0679 B( 13-O , 32-H ) :  -0.0575 B( 14-C , 15-C ) :   0.9359 
B( 14-C , 31-H ) :   0.7221 B( 14-C , 32-H ) :   0.7281 B( 15-C , 31-H ) :  -0.0690 
B( 15-C , 33-H ) :   0.6915 B( 15-C , 34-H ) :   0.7307 B( 15-C , 35-H ) :   0.7290 
B( 16-O , 17-C ) :   0.5583 B( 16-O , 18-C ) :  -0.0916 B( 16-O , 36-H ) :  -0.0640 
B( 16-O , 37-H ) :  -0.0631 B( 17-C , 18-C ) :   0.8946 B( 17-C , 36-H ) :   0.7203 
B( 17-C , 37-H ) :   0.7270 B( 18-C , 36-H ) :  -0.0678 B( 18-C , 37-H ) :  -0.0548 
B( 18-C , 38-H ) :   0.7322 B( 18-C , 39-H ) :   0.7211 B( 18-C , 40-H ) :   0.7016 
B( 19-H , 21-H ) :  -0.0545 B( 22-H , 23-H ) :  -0.0735 B( 24-H , 25-H ) :  -0.0688 
B( 31-H , 32-H ) :  -0.0647 B( 34-H , 35-H ) :  -0.0536 B( 36-H , 37-H ) :  -0.0657 
B( 38-H , 39-H ) :  -0.0519 


                     *******************************
                     * LOEWDIN POPULATION ANALYSIS *
                     *******************************

----------------------
LOEWDIN ATOMIC CHARGES
----------------------
   0 C :   -0.350489
   1 C :   -0.120485
   2 O :   -0.252230
   3 P :    0.567146
   4 S :   -0.327407
   5 O :   -0.233941
   6 C :   -0.113866
   7 C :   -0.354369
   8 S :    0.087436
   9 C :   -0.480879
  10 S :    0.103913
  11 P :    0.574052
  12 S :   -0.325719
  13 O :   -0.243183
  14 C :   -0.118712
  15 C :   -0.369359
  16 O :   -0.228529
  17 C :   -0.117890
  18 C :   -0.364553
  19 H :    0.126568
  20 H :    0.130755
  21 H :    0.127805
  22 H :    0.110372
  23 H :    0.107561
  24 H :    0.112887
  25 H :    0.106915
  26 H :    0.126583
  27 H :    0.120960
  28 H :    0.124673
  29 H :    0.130322
  30 H :    0.131390
  31 H :    0.110914
  32 H :    0.119245
  33 H :    0.131629
  34 H :    0.124836
  35 H :    0.121408
  36 H :    0.109741
  37 H :    0.118163
  38 H :    0.125024
  39 H :    0.121463
  40 H :    0.129850

-------------------------------
LOEWDIN REDUCED ORBITAL CHARGES
-------------------------------
  0 C s       :     2.950805  s :     2.950805
      pz      :     1.129828  p :     3.330585
      px      :     1.098001
      py      :     1.102756
      dz2     :     0.015338  d :     0.069099
      dxz     :     0.020424
      dyz     :     0.002884
      dx2y2   :     0.012884
      dxy     :     0.017569

  1 C s       :     2.930368  s :     2.930368
      pz      :     0.966449  p :     3.056957
      px      :     0.962733
      py      :     1.127775
      dz2     :     0.034448  d :     0.133160
      dxz     :     0.039672
      dyz     :     0.008912
      dx2y2   :     0.022615
      dxy     :     0.027514

  2 O s       :     3.505770  s :     3.505770
      pz      :     1.574836  p :     4.722862
      px      :     1.510229
      py      :     1.637796
      dz2     :     0.004170  d :     0.023597
      dxz     :     0.004524
      dyz     :     0.004380
      dx2y2   :     0.003639
      dxy     :     0.006884

  3 P s       :     5.055751  s :     5.055751
      pz      :     2.839914  p :     8.556125
      px      :     2.850480
      py      :     2.865731
      dz2     :     0.119459  d :     0.820979
      dxz     :     0.191617
      dyz     :     0.179191
      dx2y2   :     0.147086
      dxy     :     0.183625

  4 S s       :     5.766720  s :     5.766720
      pz      :     3.644720  p :    10.503209
      px      :     3.543390
      py      :     3.315099
      dz2     :     0.008376  d :     0.057478
      dxz     :     0.004098
      dyz     :     0.010531
      dx2y2   :     0.013697
      dxy     :     0.020776

  5 O s       :     3.499902  s :     3.499902
      pz      :     1.311207  p :     4.710422
      px      :     1.686745
      py      :     1.712470
      dz2     :     0.005225  d :     0.023617
      dxz     :     0.007678
      dyz     :     0.005966
      dx2y2   :     0.001967
      dxy     :     0.002781

  6 C s       :     2.930788  s :     2.930788
      pz      :     0.810406  p :     3.050815
      px      :     1.101756
      py      :     1.138653
      dz2     :     0.045042  d :     0.132263
      dxz     :     0.032284
      dyz     :     0.018090
      dx2y2   :     0.008186
      dxy     :     0.028661

  7 C s       :     2.951102  s :     2.951102
      pz      :     1.097887  p :     3.334224
      px      :     1.094082
      py      :     1.142255
      dz2     :     0.019869  d :     0.069042
      dxz     :     0.014030
      dyz     :     0.002964
      dx2y2   :     0.009143
      dxy     :     0.023035

  8 S s       :     5.643937  s :     5.643937
      pz      :     3.509252  p :    10.172334
      px      :     3.388385
      py      :     3.274697
      dz2     :     0.012404  d :     0.096293
      dxz     :     0.025462
      dyz     :     0.015789
      dx2y2   :     0.025238
      dxy     :     0.017400

  9 C s       :     3.063931  s :     3.063931
      pz      :     1.078885  p :     3.328336
      px      :     1.163588
      py      :     1.085863
      dz2     :     0.021360  d :     0.088612
      dxz     :     0.021638
      dyz     :     0.013223
      dx2y2   :     0.011666
      dxy     :     0.020724

 10 S s       :     5.642683  s :     5.642683
      pz      :     3.263150  p :    10.156681
      px      :     3.331830
      py      :     3.561702
      dz2     :     0.033101  d :     0.096723
      dxz     :     0.022459
      dyz     :     0.011548
      dx2y2   :     0.007318
      dxy     :     0.022297

 11 P s       :     5.057005  s :     5.057005
      pz      :     2.869652  p :     8.554166
      px      :     2.847832
      py      :     2.836682
      dz2     :     0.179845  d :     0.814776
      dxz     :     0.188684
      dyz     :     0.138047
      dx2y2   :     0.121695
      dxy     :     0.186506

 12 S s       :     5.767982  s :     5.767982
      pz      :     3.258925  p :    10.500081
      px      :     3.559337
      py      :     3.681819
      dz2     :     0.022681  d :     0.057656
      dxz     :     0.021076
      dyz     :     0.008694
      dx2y2   :     0.002982
      dxy     :     0.002223

 13 O s       :     3.499951  s :     3.499951
      pz      :     1.624707  p :     4.719304
      px      :     1.464994
      py      :     1.629603
      dz2     :     0.005418  d :     0.023928
      dxz     :     0.007261
      dyz     :     0.002686
      dx2y2   :     0.003579
      dxy     :     0.004984

 14 C s       :     2.926905  s :     2.926905
      pz      :     1.140809  p :     3.056700
      px      :     0.927966
      py      :     0.987925
      dz2     :     0.021338  d :     0.135107
      dxz     :     0.031601
      dyz     :     0.013081
      dx2y2   :     0.030758
      dxy     :     0.038330

 15 C s       :     2.954086  s :     2.954086
      pz      :     1.140224  p :     3.346083
      px      :     1.130656
      py      :     1.075203
      dz2     :     0.014171  d :     0.069190
      dxz     :     0.018262
      dyz     :     0.008074
      dx2y2   :     0.011606
      dxy     :     0.017076

 16 O s       :     3.499213  s :     3.499213
      pz      :     1.706491  p :     4.704944
      px      :     1.691339
      py      :     1.307115
      dz2     :     0.003132  d :     0.024371
      dxz     :     0.002335
      dyz     :     0.006147
      dx2y2   :     0.004547
      dxy     :     0.008210

 17 C s       :     2.927388  s :     2.927388
      pz      :     1.094192  p :     3.056099
      px      :     1.096973
      py      :     0.864935
      dz2     :     0.034674  d :     0.134403
      dxz     :     0.011501
      dyz     :     0.022924
      dx2y2   :     0.027105
      dxy     :     0.038199

 18 C s       :     2.953005  s :     2.953005
      pz      :     1.125285  p :     3.342193
      px      :     1.093706
      py      :     1.123202
      dz2     :     0.022369  d :     0.069355
      dxz     :     0.009252
      dyz     :     0.007010
      dx2y2   :     0.014779
      dxy     :     0.015944

 19 H s       :     0.873432  s :     0.873432

 20 H s       :     0.869245  s :     0.869245

 21 H s       :     0.872195  s :     0.872195

 22 H s       :     0.889628  s :     0.889628

 23 H s       :     0.892439  s :     0.892439

 24 H s       :     0.887113  s :     0.887113

 25 H s       :     0.893085  s :     0.893085

 26 H s       :     0.873417  s :     0.873417

 27 H s       :     0.879040  s :     0.879040

 28 H s       :     0.875327  s :     0.875327

 29 H s       :     0.869678  s :     0.869678

 30 H s       :     0.868610  s :     0.868610

 31 H s       :     0.889086  s :     0.889086

 32 H s       :     0.880755  s :     0.880755

 33 H s       :     0.868371  s :     0.868371

 34 H s       :     0.875164  s :     0.875164

 35 H s       :     0.878592  s :     0.878592

 36 H s       :     0.890259  s :     0.890259

 37 H s       :     0.881837  s :     0.881837

 38 H s       :     0.874976  s :     0.874976

 39 H s       :     0.878537  s :     0.878537

 40 H s       :     0.870150  s :     0.870150


---------------------------------
LOEWDIN BOND ORDERS (THRESH 0.050000)
---------------------------------
B(  0-C ,  1-C ) :   1.1563 B(  0-C ,  2-O ) :   0.0589 B(  0-C , 19-H ) :   0.9372 
B(  0-C , 20-H ) :   0.9291 B(  0-C , 21-H ) :   0.9371 B(  1-C ,  2-O ) :   1.0823 
B(  1-C ,  3-P ) :   0.0659 B(  1-C , 22-H ) :   0.9174 B(  1-C , 23-H ) :   0.9048 
B(  2-O ,  3-P ) :   1.2759 B(  2-O ,  4-S ) :   0.0890 B(  2-O ,  5-O ) :   0.0517 
B(  2-O ,  8-S ) :   0.0612 B(  3-P ,  4-S ) :   1.7025 B(  3-P ,  5-O ) :   1.3099 
B(  3-P ,  6-C ) :   0.0667 B(  3-P ,  8-S ) :   1.0731 B(  4-S ,  5-O ) :   0.0939 
B(  4-S ,  8-S ) :   0.1250 B(  5-O ,  6-C ) :   1.0702 B(  5-O ,  7-C ) :   0.0578 
B(  6-C ,  7-C ) :   1.1566 B(  6-C , 24-H ) :   0.9191 B(  6-C , 25-H ) :   0.9018 
B(  7-C , 26-H ) :   0.9278 B(  7-C , 27-H ) :   0.9324 B(  7-C , 28-H ) :   0.9355 
B(  8-S ,  9-C ) :   1.1611 B(  8-S , 10-S ) :   0.1034 B(  9-C , 10-S ) :   1.1671 
B(  9-C , 29-H ) :   0.9121 B(  9-C , 30-H ) :   0.9112 B( 10-S , 11-P ) :   1.0556 
B( 10-S , 12-S ) :   0.1241 B( 10-S , 13-O ) :   0.0584 B( 10-S , 16-O ) :   0.0514 
B( 11-P , 12-S ) :   1.7005 B( 11-P , 13-O ) :   1.2790 B( 11-P , 14-C ) :   0.0641 
B( 11-P , 16-O ) :   1.2937 B( 11-P , 17-C ) :   0.0658 B( 12-S , 13-O ) :   0.0912 
B( 12-S , 16-O ) :   0.0933 B( 13-O , 14-C ) :   1.0915 B( 13-O , 15-C ) :   0.0588 
B( 13-O , 16-O ) :   0.0516 B( 14-C , 15-C ) :   1.1579 B( 14-C , 31-H ) :   0.9082 
B( 14-C , 32-H ) :   0.9173 B( 15-C , 33-H ) :   0.9249 B( 15-C , 34-H ) :   0.9354 
B( 15-C , 35-H ) :   0.9281 B( 16-O , 17-C ) :   1.0833 B( 16-O , 18-C ) :   0.0596 
B( 17-C , 18-C ) :   1.1573 B( 17-C , 36-H ) :   0.9078 B( 17-C , 37-H ) :   0.9163 
B( 18-C , 38-H ) :   0.9367 B( 18-C , 39-H ) :   0.9293 B( 18-C , 40-H ) :   0.9267 


------------------------------------------
LOEWDIN REDUCED ORBITAL POPULATIONS PER MO
-------------------------------------------
THRESHOLD FOR PRINTING IS 0.1%%
                      0         1         2         3         4         5   
                 -88.04283 -88.04146 -87.99055 -87.98596 -76.42727 -76.42395
                   2.00000   2.00000   2.00000   2.00000   2.00000   2.00000
                  --------  --------  --------  --------  --------  --------
 3 P  s               0.0       0.0       0.0       0.0       0.0     100.0
 4 S  s               0.0       0.0       0.0     100.0       0.0       0.0
 8 S  s               0.0     100.0       0.0       0.0       0.0       0.0
10 S  s             100.0       0.0       0.0       0.0       0.0       0.0
11 P  s               0.0       0.0       0.0       0.0     100.0       0.0
12 S  s               0.0       0.0     100.0       0.0       0.0       0.0

                      6         7         8         9        10        11   
                 -18.79642 -18.79120 -18.78716 -18.78645  -9.95448  -9.95420
                   2.00000   2.00000   2.00000   2.00000   2.00000   2.00000
                  --------  --------  --------  --------  --------  --------
 2 O  s               0.0      99.9       0.0       0.0       0.0       0.0
 5 O  s               0.0       0.0       0.0      99.9       0.0       0.0
 9 C  s               0.0       0.0       0.0       0.0       0.0      99.8
13 O  s              99.9       0.0       0.0       0.0       0.0       0.0
14 C  s               0.0       0.0       0.0       0.0      99.6       0.0
15 C  py              0.0       0.0       0.0       0.0       0.1       0.0
16 O  s               0.0       0.0      99.9       0.0       0.0       0.0

                     12        13        14        15        16        17   
                  -9.95112  -9.94795  -9.94764  -9.88751  -9.88533  -9.88250
                   2.00000   2.00000   2.00000   2.00000   2.00000   2.00000
                  --------  --------  --------  --------  --------  --------
 0 C  s               0.0       0.0       0.0      99.7       0.0       0.0
 1 C  s              99.7       0.0       0.0       0.0       0.0       0.0
 6 C  s               0.0       0.0      99.7       0.0       0.0       0.0
14 C  py              0.0       0.0       0.0       0.0       0.1       0.0
15 C  s               0.0       0.0       0.0       0.0      99.7       0.0
17 C  s               0.0      99.6       0.0       0.0       0.0       0.0
18 C  s               0.0       0.0       0.0       0.0       0.0      99.7

                     18        19        20        21        22        23   
                  -9.87836  -7.68765  -7.68666  -7.63544  -7.63100  -6.42475
                   2.00000   2.00000   2.00000   2.00000   2.00000   2.00000
                  --------  --------  --------  --------  --------  --------
 4 S  s               0.0       0.0       0.0       0.0      99.9       0.0
 7 C  s              99.7       0.0       0.0       0.0       0.0       0.0
 8 S  s               0.0       0.0      99.7       0.0       0.0       0.0
 9 C  pz              0.0       0.1       0.0       0.0       0.0       0.0
 9 C  py              0.0       0.0       0.1       0.0       0.0       0.0
10 S  s               0.0      99.7       0.0       0.0       0.0       0.0
11 P  s               0.0       0.0       0.0       0.0       0.0      99.3
12 S  s               0.0       0.0       0.0      99.9       0.0       0.0
13 O  pz              0.0       0.0       0.0       0.0       0.0       0.1
16 O  py              0.0       0.0       0.0       0.0       0.0       0.2

                     24        25        26        27        28        29   
                  -6.42169  -5.71550  -5.71454  -5.71230  -5.71120  -5.70449
                   2.00000   2.00000   2.00000   2.00000   2.00000   2.00000
                  --------  --------  --------  --------  --------  --------
 2 O  py              0.1       0.0       0.0       0.0       0.0       0.0
 3 P  s              99.3       0.0       0.0       0.0       0.0       0.0
 5 O  pz              0.1       0.0       0.0       0.0       0.0       0.0
 8 S  pz              0.0       0.0       9.4       0.0      51.6       0.0
 8 S  px              0.0       0.0      52.7       0.0       6.1       0.0
 8 S  py              0.0       0.0      37.9       0.0      42.2       0.0
10 S  pz              0.0      20.5       0.0      71.8       0.0       7.6
10 S  px              0.0      60.6       0.0       5.1       0.0      34.3
10 S  py              0.0      18.8       0.0      23.0       0.0      58.1

                     30        31        32        33        34        35   
                  -5.70356  -5.66420  -5.65971  -5.65608  -5.65579  -5.65161
                   2.00000   2.00000   2.00000   2.00000   2.00000   2.00000
                  --------  --------  --------  --------  --------  --------
 4 S  pz              0.0       0.0       6.8       0.0       0.0      43.2
 4 S  px              0.0       0.0      26.5       0.0       0.0      27.5
 4 S  py              0.0       0.0      66.6       0.0       0.0      29.3
 8 S  pz             39.0       0.0       0.0       0.0       0.0       0.0
 8 S  px             41.1       0.0       0.0       0.0       0.0       0.0
 8 S  py             19.9       0.0       0.0       0.0       0.0       0.0
12 S  pz              0.0      77.4       0.0      12.2      10.4       0.0
12 S  px              0.0      22.6       0.0      42.1      35.3       0.0
12 S  py              0.0       0.0       0.0      45.7      54.3       0.0

                     36        37        38        39        40        41   
                  -5.65138  -4.64711  -4.64650  -4.64541  -4.64404  -4.64349
                   2.00000   2.00000   2.00000   2.00000   2.00000   2.00000
                  --------  --------  --------  --------  --------  --------
 3 P  pz              0.0       0.0       0.0       0.0      42.5      20.9
 3 P  px              0.0       0.0       0.0       0.0      55.3       5.4
 3 P  py              0.0       0.0       0.0       0.0       2.1      73.6
 4 S  pz             50.0       0.0       0.0       0.0       0.0       0.0
 4 S  px             46.0       0.0       0.0       0.0       0.0       0.0
 4 S  py              4.1       0.0       0.0       0.0       0.0       0.0
11 P  pz              0.0      16.8      49.6      33.6       0.0       0.0
11 P  px              0.0      54.9       1.3      43.7       0.0       0.0
11 P  py              0.0      28.2      49.1      22.6       0.0       0.0

                     42        43        44        45        46        47   
                  -4.64226  -0.98787  -0.98365  -0.94636  -0.94189  -0.76563
                   2.00000   2.00000   2.00000   2.00000   2.00000   2.00000
                  --------  --------  --------  --------  --------  --------
 0 C  s               0.0       0.0       0.2       0.0       0.3       0.1
 0 C  px              0.0       0.0       0.3       0.0       0.4       0.0
 0 C  py              0.0       0.0       0.1       0.0       0.2       0.0
 1 C  s               0.0       0.0       3.4       0.1       4.4       0.3
 1 C  pz              0.0       0.0       1.9       0.1       1.9       0.0
 1 C  px              0.0       0.0       1.9       0.1       1.8       0.0
 1 C  dxz             0.0       0.0       0.2       0.0       0.3       0.0
 2 O  s               0.0       0.4      30.2       0.8      27.7       0.2
 2 O  pz              0.0       0.0       0.0       0.0       0.5       0.1
 2 O  px              0.0       0.0       0.1       0.0       0.2       0.3
 2 O  py              0.0       0.0       1.5       0.0       0.7       0.1
 3 P  s               0.0       0.3      14.1       0.0       0.0       2.7
 3 P  pz             36.6       0.0       0.4       0.1       5.7       0.8
 3 P  px             39.2       0.0       0.1       0.1       4.7       1.1
 3 P  py             24.1       0.1       4.4       0.0       0.2       0.5
 3 P  dz2             0.0       0.0       0.0       0.0       0.5       0.0
 3 P  dxz             0.0       0.0       0.8       0.0       0.1       0.2
 3 P  dyz             0.0       0.0       0.0       0.0       1.3       0.0
 3 P  dxy             0.0       0.0       0.1       0.0       1.4       0.0
 4 S  s               0.0       0.0       0.3       0.0       0.0       0.5
 4 S  py              0.0       0.0       0.3       0.0       0.0       0.1
 5 O  s               0.0       0.6      26.1       0.6      31.8       0.3
 5 O  pz              0.0       0.0       0.1       0.0       0.2       0.7
 5 O  px              0.0       0.0       1.1       0.0       0.5       0.0
 5 O  py              0.0       0.0       0.4       0.0       0.4       0.1
 6 C  s               0.0       0.1       2.9       0.1       4.5       0.6
 6 C  pz              0.0       0.1       3.2       0.1       3.8       0.0
 6 C  px              0.0       0.0       0.2       0.0       0.3       0.0
 6 C  dz2             0.0       0.0       0.2       0.0       0.3       0.0
 7 C  s               0.0       0.0       0.2       0.0       0.3       0.1
 7 C  pz              0.0       0.0       0.2       0.0       0.4       0.0
 7 C  px              0.0       0.0       0.1       0.0       0.2       0.0
 8 S  s               0.0       0.0       0.3       0.0       0.0      17.9
 8 S  pz              0.0       0.0       0.2       0.0       0.0       0.9
 8 S  px              0.0       0.0       0.2       0.0       0.0       0.0
 8 S  py              0.0       0.0       0.0       0.0       0.0       1.9
 9 C  s               0.0       0.0       0.0       0.0       0.0      25.2
 9 C  pz              0.0       0.0       0.0       0.0       0.0       1.1
 9 C  py              0.0       0.0       0.0       0.0       0.0       1.8
10 S  s               0.0       0.3       0.0       0.0       0.0      18.7
10 S  pz              0.0       0.0       0.0       0.0       0.0       2.6
10 S  px              0.0       0.2       0.0       0.0       0.0       0.1
10 S  py              0.0       0.2       0.0       0.0       0.0       0.3
10 S  dz2             0.0       0.0       0.0       0.0       0.0       0.1
11 P  s               0.0      13.9       0.2       0.1       0.0       2.9
11 P  pz              0.0       3.3       0.1       1.0       0.0       0.1
11 P  px              0.0       0.2       0.0       4.9       0.1       1.2
11 P  py              0.0       1.3       0.0       4.6       0.1       1.2
11 P  dz2             0.0       0.0       0.0       0.8       0.0       0.0
11 P  dxz             0.0       0.5       0.0       1.1       0.0       0.0
11 P  dyz             0.0       0.0       0.0       0.3       0.0       0.0
11 P  dx2y2           0.0       0.0       0.0       0.8       0.0       0.0
11 P  dxy             0.0       0.5       0.0       0.4       0.0       0.2
[...]
 1 C  px              0.3       0.0       0.0       1.2
 1 C  dz2             0.2       0.0       0.0       0.5
 1 C  dxz             1.2       0.0       0.0       4.3
 1 C  dx2y2           0.3       0.0       0.0       1.5
 1 C  dxy             0.1       0.0       0.0       0.2
 2 O  pz              0.3       0.0       0.0       2.0
 2 O  px              0.5       0.0       0.0       3.0
 2 O  py              0.1       0.0       0.0       0.6
 2 O  dz2             0.9       0.0       0.1       7.6
 2 O  dxz             4.5       0.1       0.1      11.0
 2 O  dyz             1.2       0.1       0.0       7.6
 2 O  dx2y2           1.9       0.1       0.1       7.4
 2 O  dxy             2.4       0.1       0.1      15.3
 3 P  s               0.5       0.0       0.0       0.0
 3 P  pz              0.1       0.0       0.0       1.9
 3 P  px              0.0       0.0       0.0       1.5
 3 P  py              0.3       0.0       0.0       0.0
 3 P  dz2             0.3       0.0       0.0       0.2
 3 P  dxz             0.1       0.0       0.0       0.0
 3 P  dyz             0.0       0.0       0.0       1.1
 3 P  dxy             0.2       0.0       0.0       0.7
 5 O  s               2.0       0.1       0.0       0.7
 5 O  pz              4.2       0.2       0.0       2.4
 5 O  px              0.0       0.0       0.0       0.2
 5 O  py              0.1       0.0       0.0       0.2
 5 O  dz2            37.4       1.5       0.0       0.1
 5 O  dxz            16.7       0.7       0.2      14.3
 5 O  dyz             3.1       0.1       0.1       7.0
 5 O  dx2y2           0.3       0.0       0.0       0.0
 5 O  dxy             0.2       0.0       0.0       2.0
 6 C  s               1.5       0.1       0.0       0.2
 6 C  pz              2.9       0.1       0.0       0.3
 6 C  px              0.1       0.0       0.0       0.0
 6 C  dz2             8.3       0.3       0.0       1.2
 6 C  dxz             2.5       0.1       0.0       0.0
 7 C  pz              0.1       0.0       0.0       0.0
 7 C  dxz             0.3       0.0       0.0       0.0
11 P  s               0.0       0.4       0.0       0.0
11 P  pz              0.0       0.1       0.2       0.0
11 P  px              0.0       0.0       1.3       0.0
11 P  py              0.0       0.1       1.5       0.0
11 P  dz2             0.0       0.1       0.2       0.0
11 P  dxz             0.0       0.4       0.5       0.0
11 P  dyz             0.0       0.1       0.4       0.0
11 P  dx2y2           0.0       0.1       0.7       0.0
11 P  dxy             0.0       0.0       0.1       0.0
13 O  s               0.0       0.3       0.2       0.0
13 O  pz              0.0       0.2       0.8       0.0
13 O  px              0.0       0.9       2.9       0.0
13 O  py              0.0       0.3       1.0       0.0
13 O  dz2             0.2       6.2      17.2       0.1
13 O  dxz             0.0       1.4       8.0       0.1
13 O  dx2y2           0.0       0.1       0.2       0.0
13 O  dxy             0.4      10.5      18.3       0.1
14 C  s               0.0       0.4       1.1       0.0
14 C  px              0.0       0.5       1.0       0.0
14 C  py              0.0       0.4       0.8       0.0
14 C  dz2             0.0       0.7       1.3       0.0
14 C  dx2y2           0.0       0.1       0.4       0.0
14 C  dxy             0.1       2.1       3.8       0.0
15 C  dx2y2           0.0       0.1       0.1       0.0
16 O  s               0.1       2.3       0.2       0.0
16 O  pz              0.0       0.2       0.0       0.0
16 O  px              0.0       0.1       0.1       0.0
16 O  py              0.1       3.2       3.3       0.0
16 O  dz2             0.1       2.8       0.9       0.0
16 O  dxz             0.0       0.9       0.0       0.0
16 O  dyz             0.8      21.6       8.8       0.1
16 O  dx2y2           0.6      15.4       0.0       0.0
16 O  dxy             0.5      10.2      19.5       0.2
17 C  s               0.1       1.5       0.4       0.0
17 C  pz              0.0       0.3       0.1       0.0
17 C  px              0.0       0.3       0.0       0.0
17 C  py              0.1       2.1       0.7       0.0
17 C  dz2             0.0       0.6       0.2       0.0
17 C  dxz             0.0       0.4       0.0       0.0
17 C  dyz             0.1       3.2       0.5       0.0
17 C  dx2y2           0.2       3.8       1.5       0.0
17 C  dxy             0.0       1.3       0.1       0.0
18 C  dxy             0.0       0.2       0.0       0.0


                      *****************************
                      * MAYER POPULATION ANALYSIS *
                      *****************************

  NA   - Mulliken gross atomic population
  ZA   - Total nuclear charge
  QA   - Mulliken gross atomic charge
  VA   - Mayer's total valence
  BVA  - Mayer's bonded valence
  FA   - Mayer's free valence

  ATOM       NA         ZA         QA         VA         BVA        FA
  0 C      6.2805     6.0000    -0.2805     4.0030     4.0030     0.0000
  1 C      6.0097     6.0000    -0.0097     3.9676     3.9676    -0.0000
  2 O      8.3780     8.0000    -0.3780     2.1646     2.1646    -0.0000
  3 P     14.3819    15.0000     0.6181     4.9787     4.9787    -0.0000
  4 S     16.3438    16.0000    -0.3438     2.0546     2.0546     0.0000
  5 O      8.3546     8.0000    -0.3546     2.1893     2.1893    -0.0000
  6 C      6.0094     6.0000    -0.0094     3.9782     3.9782    -0.0000
  7 C      6.2832     6.0000    -0.2832     4.0048     4.0048    -0.0000
  8 S     16.0821    16.0000    -0.0821     2.2725     2.2725    -0.0000
  9 C      6.3616     6.0000    -0.3616     3.8296     3.8296    -0.0000
 10 S     16.0746    16.0000    -0.0746     2.2866     2.2866     0.0000
 11 P     14.3846    15.0000     0.6154     4.9386     4.9386    -0.0000
 12 S     16.3381    16.0000    -0.3381     2.0465     2.0465     0.0000
 13 O      8.3703     8.0000    -0.3703     2.1859     2.1859    -0.0000
 14 C      6.0045     6.0000    -0.0045     4.0042     4.0042     0.0000
 15 C      6.3160     6.0000    -0.3160     3.9899     3.9899    -0.0000
 16 O      8.3513     8.0000    -0.3513     2.2000     2.2000     0.0000
 17 C      5.9999     6.0000     0.0001     3.9950     3.9950     0.0000
 18 C      6.3059     6.0000    -0.3059     3.9974     3.9974     0.0000
 19 H      0.8840     1.0000     0.1160     0.9584     0.9584     0.0000
 20 H      0.8880     1.0000     0.1120     0.9545     0.9545    -0.0000
 21 H      0.8823     1.0000     0.1177     0.9605     0.9605     0.0000
 22 H      0.8981     1.0000     0.1019     0.9564     0.9564     0.0000
 23 H      0.8942     1.0000     0.1058     0.9938     0.9938    -0.0000
 24 H      0.8999     1.0000     0.1001     0.9474     0.9474    -0.0000
 25 H      0.8917     1.0000     0.1083     0.9969     0.9969    -0.0000
 26 H      0.8961     1.0000     0.1039     0.9531     0.9531     0.0000
 27 H      0.8772     1.0000     0.1228     0.9726     0.9726    -0.0000
 28 H      0.8837     1.0000     0.1163     0.9677     0.9677    -0.0000
 29 H      0.8100     1.0000     0.1900     0.9659     0.9659    -0.0000
 30 H      0.8065     1.0000     0.1935     0.9677     0.9677     0.0000
 31 H      0.8885     1.0000     0.1115     0.9801     0.9801    -0.0000
 32 H      0.8937     1.0000     0.1063     0.9490     0.9490     0.0000
 33 H      0.8859     1.0000     0.1141     0.9549     0.9549    -0.0000
 34 H      0.8810     1.0000     0.1190     0.9611     0.9611    -0.0000
 35 H      0.8726     1.0000     0.1274     0.9815     0.9815    -0.0000
 36 H      0.8879     1.0000     0.1121     0.9819     0.9819    -0.0000
 37 H      0.8951     1.0000     0.1049     0.9544     0.9544     0.0000
 38 H      0.8851     1.0000     0.1149     0.9595     0.9595     0.0000
 39 H      0.8799     1.0000     0.1201     0.9808     0.9808    -0.0000
 40 H      0.8888     1.0000     0.1112     0.9541     0.9541     0.0000

  Mayer bond orders larger than 0.100000
B(  0-C ,  1-C ) :   1.1613 B(  0-C , 19-H ) :   0.9509 B(  0-C , 20-H ) :   0.9420 
B(  0-C , 21-H ) :   0.9512 B(  1-C ,  2-O ) :   0.9060 B(  1-C , 22-H ) :   0.9301 
B(  1-C , 23-H ) :   0.9077 B(  2-O ,  3-P ) :   1.1128 B(  3-P ,  4-S ) :   1.6022 
B(  3-P ,  5-O ) :   1.1478 B(  3-P ,  8-S ) :   0.9649 B(  4-S ,  8-S ) :   0.1077 
B(  5-O ,  6-C ) :   0.8980 B(  6-C ,  7-C ) :   1.1666 B(  6-C , 24-H ) :   0.9342 
B(  6-C , 25-H ) :   0.9036 B(  7-C , 26-H ) :   0.9397 B(  7-C , 27-H ) :   0.9442 
B(  7-C , 28-H ) :   0.9470 B(  8-S ,  9-C ) :   1.0032 B(  9-C , 10-S ) :   1.0054 
B(  9-C , 29-H ) :   0.8842 B(  9-C , 30-H ) :   0.8829 B( 10-S , 11-P ) :   0.9508 
B( 10-S , 12-S ) :   0.1069 B( 11-P , 12-S ) :   1.5829 B( 11-P , 13-O ) :   1.1132 
B( 11-P , 16-O ) :   1.1303 B( 13-O , 14-C ) :   0.9073 B( 14-C , 15-C ) :   1.1663 
B( 14-C , 31-H ) :   0.9165 B( 14-C , 32-H ) :   0.9339 B( 15-C , 33-H ) :   0.9376 
B( 15-C , 34-H ) :   0.9447 B( 15-C , 35-H ) :   0.9355 B( 16-O , 17-C ) :   0.9026 
B( 17-C , 18-C ) :   1.1630 B( 17-C , 36-H ) :   0.9162 B( 17-C , 37-H ) :   0.9328 
B( 18-C , 38-H ) :   0.9471 B( 18-C , 39-H ) :   0.9364 B( 18-C , 40-H ) :   0.9400 


-------
TIMINGS
-------

Total SCF time: 0 days 0 hours 0 min 16 sec 

Total time                  ....      16.740 sec
Sum of individual times     ....      16.286 sec  ( 97.3%)

SCF preparation             ....       0.269 sec  (  1.6%)
Fock matrix formation       ....      14.866 sec  ( 88.8%)
  Startup                   ....       0.071 sec  (  0.5% of F)
  Split-RI-J                ....       8.879 sec  ( 59.7% of F)
  XC integration            ....       5.426 sec  ( 36.5% of F)
    XC Preparation          ....       0.000 sec  (  0.0% of XC)
    Basis function eval.    ....       2.073 sec  ( 38.2% of XC)
    Density eval.           ....       1.046 sec  ( 19.3% of XC)
    XC-Functional eval.     ....       0.399 sec  (  7.4% of XC)
    XC-Potential eval.      ....       1.211 sec  ( 22.3% of XC)
Diagonalization             ....       0.000 sec  (  0.0%)
Density matrix formation    ....       0.230 sec  (  1.4%)
Total Energy calculation    ....       0.032 sec  (  0.2%)
Population analysis         ....       0.201 sec  (  1.2%)
Orbital Transformation      ....       0.093 sec  (  0.6%)
Orbital Orthonormalization  ....       0.000 sec  (  0.0%)
DIIS solution               ....       0.459 sec  (  2.7%)
  MO trafo                  ....       0.000 sec  (  0.0 % of DIIS)
  Orb grad                  ....       0.000 sec  (  0.0 % of DIIS)
  Energy W gradient         ....       0.000 sec  (  0.0 % of DIIS)
  DIIS error                ....       0.021 sec  (  4.6 % of DIIS)
  DIIS work                 ....       0.378 sec  ( 82.5 % of DIIS)
  Form Q                    ....       0.000 sec  (  0.0 % of DIIS)
  Form QpQm                 ....       0.000 sec  (  0.0 % of DIIS)
  Exp/Cayley                ....       0.000 sec  (  0.0 % of DIIS)
  Orb update                ....       0.000 sec  (  0.0 % of DIIS)
  Wake-sleep                ....       0.015 sec  (  3.2 % of DIIS)
SOSCF solution              ....       0.137 sec  (  0.8%)
  MO trafo                  ....       0.070 sec  ( 51.1 % of SOSCF)
  Orb grad                  ....       0.002 sec  (  1.4 % of SOSCF)
  Rot update                ....       0.030 sec  ( 21.7 % of SOSCF)
  Step                      ....       0.035 sec  ( 25.7 % of SOSCF)
Finished LeanSCF after  16.8 sec

Maximum memory used throughout the entire LEANSCF-calculation: 34.9 MB


-------------------------------------------------------------------------------
                          DFT DISPERSION CORRECTION                            
                                                                               
                                DFTD4 V3.4.0                                   
-------------------------------------------------------------------------------
The PBE functional is recognized
Active option DFTDOPT                   ...         5   

-------------------------   ----------------
Dispersion correction           -0.066102053
-------------------------   ----------------

------------------   -----------------
gCP correction             0.184273194
------------------   -----------------

-------------------------   --------------------
FINAL SINGLE POINT ENERGY     -2929.527867828850
-------------------------   --------------------


------------------------------------------------------------------------------
                              ORCA PROPERTY CALCULATIONS
------------------------------------------------------------------------------

GBWName                                 ... sp.gbw
Number of atoms                         ...     41
Number of basis functions               ...    334
Max core memory                         ...   1024 MB

Electric properties:
Dipole moment                           ... YES
Quadrupole moment                       ...  NO
Static polarizability (Dipole/Dipole)   ...  NO
Static polarizability (Dipole/Quad.)    ...  NO
Static polarizability (Quad./Quad.)     ...  NO
Static polarizability (Velocity)        ...  NO

Atomic electric properties:
Dipole moment                           ...  NO
Quadrupole moment                       ...  NO
Static polarizability                   ...  NO

Choice of electric origin               ... Center of mass
Position of electric origin             ...    -0.000002     0.000001     0.000001

General magnetic properties:
Magnetizability                         ...  NO

EPR properties:
g-Tensor (aka g-matrix)                 ...  NO
Zero-Field splitting spin-orbit         ...  NO
Zero-field splitting spin-spin          ...  NO
Hyperfine couplings                     ...  NO (   0 nuclei)
Quadrupole couplings                    ...  NO (   0 nuclei)
Contact density                         ...  NO (   0 nuclei)

NMR properties:
Chemical shifts                         ...  NO (   0 nuclei)
Spin-rotation constants                 ...  NO (   0 nuclei)
Spin-spin couplings                     ...  NO (   0 nuclei,    0 pairs)

Choice of magnetic origin               ... GIAO
Position of magnetic origin             ...     0.000000     0.000000     0.000000

Properties with geometric perturbations:
SCF Hessian                             ...  NO
IR spectrum                             ...  NO
VCD spectrum                            ...  NO
X-ray spectroscopy properties:
SCF XES/XAS/RIXS spectra                ...  NO


-------------
DIPOLE MOMENT
-------------

Method             : SCF
Type of density    : Electron Density
Multiplicity       :   1
Irrep              :   0
Energy             : -2929.6460389694043442 Eh
Relativity type    : 
Basis              : AO
                                X                 Y                 Z
Electronic contribution:      2.488698683       9.538081951      -9.350577458
Nuclear contribution   :     -2.647800676     -10.298535294       9.891959063
                        -----------------------------------------
Total Dipole Moment    :     -0.159101992      -0.760453343       0.541381605
                        -----------------------------------------
Magnitude (a.u.)       :      0.946940744
Magnitude (Debye)      :      2.406932088



--------------------
Rotational spectrum 
--------------------
 
Rotational constants in cm-1:             0.012991             0.004925             0.004797 
Rotational constants in MHz :           389.473106           147.659950           143.817650 

Dipole components along the rotational axes: 
x,y,z [a.u.] :     0.110821    -0.470196     0.814451 
x,y,z [Debye]:     0.281685    -1.195143     2.070171 

 

Dipole moment calculation done in   0.0 sec 

Maximum memory used throughout the entire PROP-calculation: 24.1 MB

--------------------------------
SUGGESTED CITATIONS FOR THIS RUN
--------------------------------

Below you find a list of papers that are relevant to this ORCA run
We neither can nor want to force you to cite these papers, but we appreciate if you do
You receive ORCA, which is the product of decades of hard work by many enthusiastic individuals, for free
The only thing we kindly ask in return is that you cite our papers,
We deeply appreciate it, if you show your appreciation for ORCA by not just citing the generic ORCA reference.

Please note that relegating all ORCA citations to the supporting information does *not* help us.
SI sections are not indexed - citations you put there will not count into any citation statistics
But we need these citations in order to attract the funding resources that allow us to do what we are doing

Therefore, if you are a happy ORCA user, please consider citing a few of the papers listed below in the main body of your paper

In addition to the list printed below, the program has created the file sp.bibtex that contains the list in bibtex format
You can import this file easily into all common literature databanks and citation aid programs


List of essential papers. We consider these as the minimum necessary citations

  1. Neese,F.
     Software update: the ORCA program system, version 5.0
     WIRES Comput. Molec. Sci., 2022 12(1)e1606
     doi.org/10.1002/wcms.1606

List of papers to cite with high priority. The work reported in these papers was absolutely
necessary for this run to complete.
Our perspective: the developers of density functionals and basis sets usually get cited in chemistry papers
Good! But without the algorithms to do something with them, the functionals or basis sets would not do anything.
Hence, in our opinion, the algorithm design and method developments papers are equally worthy of getting cited

  1. Neese,F.
     An improvement of the resolution of the identity approximation for the formation of the Coulomb matrix
     J. Comp. Chem., 2003 24(14)1740-1747
     doi.org/10.1002/jcc.10318
  2. Neese,F.
     The SHARK Integral Generation and Digestion System
     J. Comp. Chem., 2022  1-16
     doi.org/10.1002/jcc.26942
  3. Caldeweyher,E.; Bannwarth,C.; Grimme,S.
     Extension of the D3 dispersion coefficient model
     J. Chem. Phys., 2017 147 034112-XXXX
     doi.org/10.1063/1.4993215
  4. Caldeweyher,E.; Ehlert,S.; Hansen,A.; Neugebauer,H.; Spicher,S.; Bannwarth,C.; Grimme,S.
     A generally applicable atomic-charge dependent London dispersion correction
     J. Chem. Phys., 2019 150 154122-XXXX
     doi.org/10.1063/1.5090222
  5. Caldeweyher,E.; Mewes,J.; Ehlert,S.; Grimme,S.
     Extension and evaluation of the D4 London-dispersion model for periodic systems
     Phys. Chem. Chem. Phys., 2020 22(16)8499-8512
     doi.org/10.1039/D0CP00502A

List of suggested additional citations. These are papers that are important in the 'surrounding' of 
of this run, or papers that preceded the highly important papers. If you like your results we are grateful for a citation.

  1. Neese,F.
     The ORCA program system
     WIRES Comput. Molec. Sci., 2012 2(1)73-78
     doi.org/10.1002/wcms.81
  2. Neese,F.
     Software update: the ORCA program system, version 4.0
     WIRES Comput. Molec. Sci., 2018 8(1)1-6
     doi.org/10.1002/wcms.1327
  3. Neese,F.; Wennmohs,F.; Becker,U.; Riplinger,C.
     The ORCA quantum chemistry program package
     J. Chem. Phys., 2020 152 Art. No. L224108
     doi.org/10.1063/5.0004608

List of optional additional citations

  1. Neese,F.
     Approximate second-order SCF convergence for spin unrestricted wavefunctions
     Chem. Phys. Lett., 2000 325(1-3)93-98
     doi.org/10.1016/s0009-2614(00)00662-x

Timings for individual modules:

Sum of individual times          ...       20.531 sec (=   0.342 min)
Startup calculation              ...        1.603 sec (=   0.027 min)   7.8 %
SCF iterations                   ...       18.805 sec (=   0.313 min)  91.6 %
Property calculations            ...        0.124 sec (=   0.002 min)   0.6 %
                             ****ORCA TERMINATED NORMALLY****
TOTAL RUN TIME: 0 days 0 hours 0 minutes 21 seconds 359 msec
