      -----------------------------------------------------------      
     |                   =====================                   |     
     |                           x T B                           |     
     |                   =====================                   |     
     |                         S. Grimme                         |     
     |          Mulliken Center for Theoretical Chemistry        |     
     |                    University of Bonn                     |     
      -----------------------------------------------------------      

   * xtb version 6.7.1 (edcfbbe) compiled by 'albert@albert-system' on 2024-07-22

   xtb is free software: you can redistribute it and/or modify it under
   the terms of the GNU Lesser General Public License as published by
   the Free Software Foundation, either version 3 of the License, or
   (at your option) any later version.
   
   xtb is distributed in the hope that it will be useful,
   but WITHOUT ANY WARRANTY; without even the implied warranty of
   MERCHANTABILITY or FITNESS FOR A PARTICULAR PURPOSE.  See the
   GNU Lesser General Public License for more details.
   
   Cite this work as:
   * C. Bannwarth, E. Caldeweyher, S. Ehlert, A. Hansen, P. Pracht,
     J. Seibert, S. Spicher, S. Grimme, WIREs Comput. Mol. Sci., 2020, 11,
     e01493. DOI: 10.1002/wcms.1493
   
   for GFN2-xTB:
   * C. Bannwarth, S. Ehlert and S. Grimme., J. Chem. Theory Comput., 2019,
     15, 1652-1671. DOI: 10.1021/acs.jctc.8b01176
   for GFN1-xTB:
   * S. Grimme, C. Bannwarth, P. Shushkov, J. Chem. Theory Comput., 2017,
     13, 1989-2009. DOI: 10.1021/acs.jctc.7b00118
   for GFN0-xTB:
   * P. Pracht, E. Caldeweyher, S. Ehlert, S. Grimme, ChemRxiv, 2019, preprint.
     DOI: 10.26434/chemrxiv.8326202.v1
   for GFN-FF:
   * S. Spicher and S. Grimme, Angew. Chem. Int. Ed., 2020, 59, 15665-15673.
     DOI: 10.1002/anie.202004239
   
   for ALPB and GBSA implicit solvation:
   * S. Ehlert, M. Stahn, S. Spicher, S. Grimme, J. Chem. Theory Comput.,
     2021, 17, 4250-4261. DOI: 10.1021/acs.jctc.1c00471
   
   for ddCOSMO and CPCM-X implicit solvation:
   * M. Stahn, S. Ehlert, S. Grimme, J. Phys. Chem. A,
     2023, XX, XXXX-XXXX. DOI: 10.1021/acs.jpca.3c04382
   
   for DFT-D4:
   * E. Caldeweyher, C. Bannwarth and S. Grimme, J. Chem. Phys., 2017,
     147, 034112. DOI: 10.1063/1.4993215
   * E. Caldeweyher, S. Ehlert, A. Hansen, H. Neugebauer, S. Spicher,
     C. Bannwarth and S. Grimme, J. Chem. Phys., 2019, 150, 154122.
     DOI: 10.1063/1.5090222
   * E. Caldeweyher, J.-M. Mewes, S. Ehlert and S. Grimme, Phys. Chem. Chem. Phys.
     2020, 22, 8499-8512. DOI: 10.1039/D0CP00502A
   
   for sTDA-xTB:
   * S. Grimme and C. Bannwarth, J. Chem. Phys., 2016, 145, 054103.
     DOI: 10.1063/1.4959605
   
   in the mass-spec context:
   * V. Asgeirsson, C. Bauer and S. Grimme, Chem. Sci., 2017, 8, 4879.
     DOI: 10.1039/c7sc00601b
   * J. Koopman and S. Grimme, ACS Omega 2019, 4, 12, 15120-15133.
     DOI: 10.1021/acsomega.9b02011
   
   for metadynamics refer to:
   * S. Grimme, J. Chem. Theory Comput., 2019, 155, 2847-2862
     DOI: 10.1021/acs.jctc.9b00143
   
   for SPH calculations refer to:
   * S. Spicher and S. Grimme, J. Chem. Theory Comput., 2021, 17, 1701-1714
     DOI: 10.1021/acs.jctc.0c01306
   
   for ONIOM refer to:
   * C. Plett, A. Katbashev, S. Ehlert, S. Grimme, M. Bursch,
     Phys. Chem. Chem. Phys., 2023, 25, 17860-17868. DOI: 10.1039/D3CP02178E
   
   for DIPRO refer to:
   * J. Kohn, N. Gildemeister, S. Grimme, D. Fazzi, A. Hansen,
     J. Chem. Phys., 2023, just accepted.
   
   for PTB refer to:
   * S. Grimme, M. Mueller, A. Hansen, J. Chem. Phys., 2023, 158, 124111.
     DOI: 10.1063/5.0137838
   
   with help from (in alphabetical order)
   P. Atkinson, C. Bannwarth, F. Bohle, G. Brandenburg, E. Caldeweyher
   M. Checinski, S. Dohm, S. Ehlert, S. Ehrlich, I. Gerasimov, C. Hölzer
   A. Katbashev, J. Kohn, J. Koopman, C. Lavigne, S. Lehtola, F. März, M. Müller,
   F. Musil, H. Neugebauer, J. Pisarek, C. Plett, P. Pracht, F. Pultar,
   J. Seibert, P. Shushkov, S. Spicher, M. Stahn, M. Steiner, T. Strunk,
   J. Stückrath, T. Rose, and J. Unsleber
   
 * started run on 2025/04/09 at 05:21:10.474     
   ID    Z sym.   atoms
    1    6 C      1, 2, 7, 8, 10, 15, 16, 18, 19
    2    8 O      3, 6, 14, 17
    3   15 P      4, 12
    4   16 S      5, 9, 11, 13
    5    1 H      20-41

           -------------------------------------------------
          |                Calculation Setup                |
           -------------------------------------------------

          program call               : /srv/scratch/z5358697/.xtb/bin/xtb solv.coord --gfn2 --sp --chrg 0 --norestart --parallel 1 --alpb water reference -I xtb_sp-xcontrol-inp
          hostname                   : k163
          coordinate file            : solv.coord
          omp threads                :                     1


           -------------------------------------------------
          |                 G F N 2 - x T B                 |
           -------------------------------------------------

        Reference                      10.1021/acs.jctc.8b01176
      * Hamiltonian:
        H0-scaling (s, p, d)           1.850000    2.230000    2.230000
        zeta-weighting                 0.500000
      * Dispersion:
        s8                             2.700000
        a1                             0.520000
        a2                             5.000000
        s9                             5.000000
      * Repulsion:
        kExp                           1.500000    1.000000
        rExp                           1.000000
      * Coulomb:
        alpha                          2.000000
        third order                    shell-resolved
        anisotropic                    true
        a3                             3.000000
        a5                             4.000000
        cn-shift                       1.200000
        cn-exp                         4.000000
        max-rad                        5.000000

      * Solvation model:               ALPB
        Solvent                        water
        Parameter file                 internal GFN2-xTB/ALPB
        Dielectric constant                8.0200E+01
        Reference state                gsolv=reference [X=1]
        Free energy shift                  2.8945E-03 Eh       1.8164E+00 kcal/mol
        Temperature                        2.9815E+02 K
        Density                            1.0000E+00 kg/L
        Solvent mass                       1.8000E+01 g/mol
        Interaction kernel             P16
        Born radius scaling (c1)           1.4744E+00
        Born radii integrator          GBOBC
        Born offset                        0.0000E+00 a0       0.0000E+00 AA
        H-bond correction              true
        Ion screening                  false
        Surface tension                    1.0000E-05 Eh       1.5569E+01 dyn/cm
        Grid points                               974 per atom

          ...................................................
          :                      SETUP                      :
          :.................................................:
          :  # basis functions                 134          :
          :  # atomic orbitals                 128          :
          :  # shells                           66          :
          :  # electrons                       116          :
          :  max. iterations                   250          :
          :  Hamiltonian                  GFN2-xTB          :
          :  restarted?                      false          :
          :  GBSA solvation                   true          :
          :  PC potential                    false          :
          :  electronic temp.          300.0000000     K    :
          :  accuracy                    1.0000000          :
          :  -> integral cutoff          0.2500000E+02      :
          :  -> integral neglect         0.1000000E-07      :
          :  -> SCF convergence          0.1000000E-05 Eh   :
          :  -> wf. convergence          0.1000000E-03 e    :
          :  Broyden damping             0.4000000          :
          :  net charge                          0          :
          :  unpaired electrons                  0          :
          ...................................................

 iter      E             dE          RMSdq      gap      omega  full diag
   1    -65.4434233 -0.654434E+02  0.657E+00    4.30       0.0  T
   2    -65.5628564 -0.119433E+00  0.374E+00    3.70       1.0  T
   3    -65.5820144 -0.191580E-01  0.107E+00    3.21       1.0  T
   4    -65.5849766 -0.296225E-02  0.519E-01    3.14       1.0  T
   5    -65.5856774 -0.700822E-03  0.273E-01    3.20       1.0  T
   6    -65.5858703 -0.192864E-03  0.121E-01    3.21       1.0  T
   7    -65.5859216 -0.512833E-04  0.426E-02    3.23       1.0  T
   8    -65.5859259 -0.431017E-05  0.177E-02    3.23       1.0  T
   9    -65.5859268 -0.915571E-06  0.592E-03    3.23       2.6  T
  10    -65.5859268 -0.130596E-07  0.288E-03    3.23       5.4  T
  11    -65.5859269 -0.472507E-07  0.919E-04    3.23      17.0  T
  12    -65.5859269 -0.174951E-08  0.428E-04    3.23      36.5  T

   *** convergence criteria satisfied after 12 iterations ***

         #    Occupation            Energy/Eh            Energy/eV
      -------------------------------------------------------------
         1        2.0000           -0.7688029             -20.9202
       ...           ...                  ...                  ...
        52        2.0000           -0.4475306             -12.1779
        53        2.0000           -0.4196752             -11.4199
        54        2.0000           -0.4129969             -11.2382
        55        2.0000           -0.3967749             -10.7968
        56        2.0000           -0.3941863             -10.7264
        57        2.0000           -0.3924327             -10.6786
        58        2.0000           -0.3906198             -10.6293 (HOMO)
        59                         -0.2719511              -7.4002 (LUMO)
        60                         -0.2520308              -6.8581
        61                         -0.2305957              -6.2748
        62                         -0.1942490              -5.2858
        63                         -0.1818408              -4.9481
       ...                                ...                  ...
       128                          1.3326423              36.2630
      -------------------------------------------------------------
                  HL-Gap            0.1186687 Eh            3.2291 eV
             Fermi-level           -0.3312855 Eh           -9.0147 eV

 SCC (total)                   0 d,  0 h,  0 min,  0.065 sec
 SCC setup                      ...        0 min,  0.003 sec (  3.911%)
 Dispersion                     ...        0 min,  0.000 sec (  0.466%)
 classical contributions        ...        0 min,  0.000 sec (  0.088%)
 integral evaluation            ...        0 min,  0.015 sec ( 23.242%)
 iterations                     ...        0 min,  0.025 sec ( 38.326%)
 molecular gradient             ...        0 min,  0.022 sec ( 33.621%)
 printout                       ...        0 min,  0.000 sec (  0.319%)

         :::::::::::::::::::::::::::::::::::::::::::::::::::::
         ::                     SUMMARY                     ::
         :::::::::::::::::::::::::::::::::::::::::::::::::::::
         :: total energy             -65.024404446807 Eh    ::
         :: total w/o Gsasa/hb       -65.028329404524 Eh    ::
         :: gradient norm              0.000087950872 Eh/a0 ::
         :: HOMO-LUMO gap              3.229139000267 eV    ::
         ::.................................................::
         :: SCC energy               -65.585146504323 Eh    ::
         :: -> isotropic ES            0.123252003684 Eh    ::
         :: -> anisotropic ES         -0.013978579139 Eh    ::
         :: -> anisotropic XC          0.030776942200 Eh    ::
         :: -> dispersion             -0.051732788147 Eh    ::
         :: -> Gsolv                  -0.020058864496 Eh    ::
         ::    -> Gelec               -0.023983822213 Eh    ::
         ::    -> Gsasa                0.004979743469 Eh    ::
         ::    -> Ghb                 -0.003949334913 Eh    ::
         ::    -> Gshift               0.002894549160 Eh    ::
         :: repulsion energy           0.560742057516 Eh    ::
         :: add. restraining           0.000000000000 Eh    ::
         :: total charge              -0.000000000000 e     ::
         :::::::::::::::::::::::::::::::::::::::::::::::::::::

           -------------------------------------------------
          |                Property Printout                |
           -------------------------------------------------

    * Orbital Energies and Occupations

         #    Occupation            Energy/Eh            Energy/eV
      -------------------------------------------------------------
         1        2.0000           -0.7688029             -20.9202
       ...           ...                  ...                  ...
        46        2.0000           -0.4690400             -12.7632
        47        2.0000           -0.4590300             -12.4908
        48        2.0000           -0.4573623             -12.4455
        49        2.0000           -0.4546250             -12.3710
        50        2.0000           -0.4534218             -12.3382
        51        2.0000           -0.4506668             -12.2633
        52        2.0000           -0.4475306             -12.1779
        53        2.0000           -0.4196752             -11.4199
        54        2.0000           -0.4129969             -11.2382
        55        2.0000           -0.3967749             -10.7968
        56        2.0000           -0.3941863             -10.7264
        57        2.0000           -0.3924327             -10.6786
        58        2.0000           -0.3906198             -10.6293 (HOMO)
        59                         -0.2719511              -7.4002 (LUMO)
        60                         -0.2520308              -6.8581
        61                         -0.2305957              -6.2748
        62                         -0.1942490              -5.2858
        63                         -0.1818408              -4.9481
        64                         -0.1695633              -4.6141
        65                         -0.1623849              -4.4187
        66                         -0.1566913              -4.2638
        67                         -0.1331569              -3.6234
        68                         -0.1251387              -3.4052
        69                         -0.0524231              -1.4265
       ...                                ...                  ...
       128                          1.3326423              36.2630
      -------------------------------------------------------------
                  HL-Gap            0.1186687 Eh            3.2291 eV
             Fermi-level           -0.3312855 Eh           -9.0147 eV

     #   Z          covCN         q      C6AA      α(0)
     1   6 C        3.751    -0.126    22.975     6.836
     2   6 C        3.888     0.075    19.287     6.243
     3   8 O        1.655    -0.252    18.188     5.757
     4  15 P        3.909     0.371   144.782    21.615
     5  16 S        0.927    -0.457   159.326    21.350
     6   8 O        1.655    -0.250    18.156     5.752
     7   6 C        3.889     0.085    19.127     6.217
     8   6 C        3.751    -0.132    23.105     6.855
     9  16 S        2.011    -0.173   148.358    20.500
    10   6 C        3.820     0.039    19.906     6.349
    11  16 S        2.006    -0.140   146.928    20.401
    12  15 P        3.853     0.373   144.726    21.610
    13  16 S        0.926    -0.454   159.206    21.342
    14   8 O        1.654    -0.264    18.391     5.789
    15   6 C        3.845     0.080    19.214     6.235
    16   6 C        3.751    -0.133    23.126     6.858
    17   8 O        1.655    -0.254    18.222     5.763
    18   6 C        3.864     0.073    19.325     6.251
    19   6 C        3.751    -0.131    23.088     6.852
    20   1 H        0.925     0.068     2.113     2.273
    21   1 H        0.925     0.053     2.287     2.365
    22   1 H        0.925     0.085     1.925     2.170
    23   1 H        0.924     0.066     2.132     2.284
    24   1 H        0.924     0.095     1.829     2.115
    25   1 H        0.924     0.048     2.350     2.398
    26   1 H        0.924     0.088     1.902     2.157
    27   1 H        0.925     0.074     2.039     2.233
    28   1 H        0.925     0.061     2.183     2.310
    29   1 H        0.925     0.085     1.925     2.170
    30   1 H        0.925     0.108     1.713     2.047
    31   1 H        0.925     0.095     1.827     2.114
    32   1 H        0.924     0.067     2.116     2.275
    33   1 H        0.924     0.078     2.000     2.212
    34   1 H        0.925     0.068     2.104     2.268
    35   1 H        0.925     0.087     1.908     2.160
    36   1 H        0.925     0.068     2.103     2.268
    37   1 H        0.924     0.094     1.844     2.124
    38   1 H        0.924     0.064     2.152     2.294
    39   1 H        0.925     0.075     2.036     2.231
    40   1 H        0.925     0.086     1.921     2.167
    41   1 H        0.925     0.056     2.245     2.343

 Mol. C6AA /au·bohr⁶  :      26391.957353
 Mol. C8AA /au·bohr⁸  :     862619.557092
 Mol. α(0) /au        :        257.553355


Wiberg/Mayer (AO) data.
largest (>0.10) Wiberg bond orders for each atom

 ---------------------------------------------------------------------------
     #   Z sym  total        # sym  WBO       # sym  WBO       # sym  WBO
 ---------------------------------------------------------------------------
     1   6 C    3.987 --     2 C    1.022    20 H    0.983    22 H    0.976
                            21 H    0.976
     2   6 C    3.887 --     1 C    1.022    23 H    0.966    24 H    0.964
                             3 O    0.887
     3   8 O    2.413 --     4 P    1.321     2 C    0.887
     4  15 P    5.294 --     5 S    1.545     3 O    1.321     6 O    1.319
                             9 S    0.954
     5  16 S    1.842 --     4 P    1.545     9 S    0.114
     6   8 O    2.411 --     4 P    1.319     7 C    0.886
     7   6 C    3.891 --     8 C    1.020    25 H    0.966    26 H    0.966
                             6 O    0.886
     8   6 C    3.984 --     7 C    1.020    27 H    0.983    28 H    0.980
                            29 H    0.976
     9  16 S    2.255 --    10 C    0.983     4 P    0.954     5 S    0.114
    10   6 C    3.953 --    11 S    0.989     9 S    0.983    31 H    0.955
                            30 H    0.953
    11  16 S    2.268 --    10 C    0.989    12 P    0.946    13 S    0.135
    12  15 P    5.306 --    13 S    1.553    14 O    1.341    17 O    1.326
                            11 S    0.946
    13  16 S    1.867 --    12 P    1.553    11 S    0.135
    14   8 O    2.399 --    12 P    1.341    15 C    0.868
    15   6 C    3.887 --    16 C    1.021    33 H    0.968    32 H    0.964
                            14 O    0.868
    16   6 C    3.984 --    15 C    1.021    36 H    0.983    34 H    0.980
                            35 H    0.974
    17   8 O    2.411 --    12 P    1.326    18 C    0.885
    18   6 C    3.888 --    19 C    1.023    38 H    0.969    37 H    0.964
                            17 O    0.885
    19   6 C    3.986 --    18 C    1.023    39 H    0.981    40 H    0.976
                            41 H    0.975
    20   1 H    0.995 --     1 C    0.983
    21   1 H    0.997 --     1 C    0.976
    22   1 H    0.992 --     1 C    0.976
    23   1 H    0.996 --     2 C    0.966
    24   1 H    0.991 --     2 C    0.964
    25   1 H    0.998 --     7 C    0.966
    26   1 H    0.992 --     7 C    0.966
    27   1 H    0.994 --     8 C    0.983
    28   1 H    0.996 --     8 C    0.980
    29   1 H    0.992 --     8 C    0.976
    30   1 H    0.988 --    10 C    0.953
    31   1 H    0.989 --    10 C    0.955
    32   1 H    0.995 --    15 C    0.964
    33   1 H    0.994 --    15 C    0.968
    34   1 H    0.995 --    16 C    0.980
    35   1 H    0.991 --    16 C    0.974
    36   1 H    0.995 --    16 C    0.983
    37   1 H    0.991 --    18 C    0.964
    38   1 H    0.996 --    18 C    0.969
    39   1 H    0.994 --    19 C    0.981
    40   1 H    0.992 --    19 C    0.976
    41   1 H    0.997 --    19 C    0.975
 ---------------------------------------------------------------------------

Topologies differ in total number of bonds
Writing topology from bond orders to xtbtopo.mol

molecular dipole:
                 x           y           z       tot (Debye)
 q only:       -1.248      -2.304       1.985
   full:       -1.337      -2.252       1.853       8.154
molecular quadrupole (traceless):
                xx          xy          yy          xz          yz          zz
 q only:        3.777      -5.596      -8.713     -28.898      12.248       4.935
  q+dip:        3.724     -11.763      -5.605     -29.284      10.815       1.882
   full:        5.125     -11.806      -7.378     -29.635      11.307       2.253


           -------------------------------------------------
          | TOTAL ENERGY              -65.024404446807 Eh   |
          | GRADIENT NORM               0.000087950872 Eh/α |
          | HOMO-LUMO GAP               3.229139000267 eV   |
           -------------------------------------------------

------------------------------------------------------------------------
 * finished run on 2025/04/09 at 05:21:10.622     
------------------------------------------------------------------------
 total:
 * wall-time:     0 d,  0 h,  0 min,  0.147 sec
 *  cpu-time:     0 d,  0 h,  0 min,  0.071 sec
 * ratio c/w:     0.484 speedup
 SCF:
 * wall-time:     0 d,  0 h,  0 min,  0.065 sec
 *  cpu-time:     0 d,  0 h,  0 min,  0.058 sec
 * ratio c/w:     0.886 speedup

