
                                 *****************
                                 * O   R   C   A *
                                 *****************

                                            #,                                       
                                            ###                                      
                                            ####                                     
                                            #####                                    
                                            ######                                   
                                           ########,                                 
                                     ,,################,,,,,                         
                               ,,#################################,,                 
                          ,,##########################################,,             
                       ,#########################################, ''#####,          
                    ,#############################################,,   '####,        
                  ,##################################################,,,,####,       
                ,###########''''           ''''###############################       
              ,#####''   ,,,,##########,,,,          '''####'''          '####       
            ,##' ,,,,###########################,,,                        '##       
           ' ,,###''''                  '''############,,,                           
         ,,##''                                '''############,,,,        ,,,,,,###''
      ,#''                                            '''#######################'''  
     '                                                          ''''####''''         
             ,#######,   #######,   ,#######,      ##                                
            ,#'     '#,  ##    ##  ,#'     '#,    #''#        ,####,   ,####,        
            ##       ##  ##   ,#'  ##            #'  '#       #'       #'  '#        
            ##       ##  #######   ##           ,######,      #####,   #    #        
            '#,     ,#'  ##    ##  '#,     ,#' ,#      #,     #,   #   #,  ,#        
             '#######'   ##     ##  '#######'  #'      '#     '####' # '####'        



                #########################################################
                #                        -***-                          #
                #          Department of theory and spectroscopy        #
                #                                                       #
                #                      Frank Neese                      #
                #                                                       #
                #     Directorship, Architecture, Infrastructure        #
                #                    SHARK, DRIVERS                     #
                #        Core code/Algorithms in most modules           #
                #                                                       #
                #        Max Planck Institute fuer Kohlenforschung      #
                #                Kaiser Wilhelm Platz 1                 #
                #                 D-45470 Muelheim/Ruhr                 #
                #                      Germany                          #
                #                                                       #
                #                  All rights reserved                  #
                #                        -***-                          #
                #########################################################


                         Program Version 6.0.0  -   RELEASE  -


 With contributions from (in alphabetic order):
   Daniel Aravena         : Magnetic Suceptibility
   Michael Atanasov       : Ab Initio Ligand Field Theory (pilot matlab implementation)
   Alexander A. Auer      : GIAO ZORA, VPT2 properties, NMR spectrum
   Ute Becker             : All parallelization in ORCA, NUMFREQ, NUMCALC
   Giovanni Bistoni       : ED, misc. LED, open-shell LED, HFLD
   Martin Brehm           : Molecular dynamics
   Dmytro Bykov           : pre 5.0 version of the SCF Hessian
   Marcos Casanova-Páez   : Triplet and SCS-CIS(D). UHF-(DLPNO)-IP/EA/STEOM-CCSD. UHF-CVS-IP/STEOM-CCSD
   Vijay G. Chilkuri      : MRCI spin determinant printing, contributions to CSF-ICE
   Pauline Colinet        : FMM embedding
   Dipayan Datta          : RHF DLPNO-CCSD density
   Achintya Kumar Dutta   : EOM-CC, STEOM-CC
   Nicolas Foglia         : Exact transition moments, OPA infrastructure, MCD improvements
   Dmitry Ganyushin       : Spin-Orbit,Spin-Spin,Magnetic field MRCI
   Miquel Garcia          : C-PCM and meta-GGA Hessian, CCSD/C-PCM, Gaussian charge scheme
   Tiago L. C. Gouveia    : GS-ROHF, GS-ROCIS
   Yang Guo               : DLPNO-NEVPT2, F12-NEVPT2, CIM, IAO-localization
   Andreas Hansen         : Spin unrestricted coupled pair/coupled cluster methods
   Ingolf Harden          : AUTO-CI MPn and infrastructure 
   Benjamin Helmich-Paris : MC-RPA, TRAH-(SCF,CASSCF), AVAS, COSX integrals, SCF dyn. polar.
   Lee Huntington         : MR-EOM, pCC
   Robert Izsak           : Overlap fitted RIJCOSX, COSX-SCS-MP3, EOM
   Riya Kayal             : Wick's Theorem for AUTO-CI, AUTO-CI UHF-CCSDT
   Emily Kempfer          : AUTO-CI, RHF CISDT and CCSDT
   Christian Kollmar      : KDIIS, OOCD, Brueckner-CCSD(T), CCSD density, CASPT2, CASPT2-K, improved NEVPT2
   Axel Koslowski         : Symmetry handling
   Simone Kossmann        : Meta GGA functionals, TD-DFT gradient, OOMP2, (MP2 Hessian; deprecated post 5.0)
   Lucas Lang             : DCDCAS
   Marvin Lechner         : AUTO-CI (C++ implementation), FIC-MRCC
   Spencer Leger          : CASSCF response
   Dagmar Lenk            : GEPOL surface, SMD, ORCA-2-JSON
   Dimitrios Liakos       : Extrapolation schemes; Compound Job, initial MDCI parallelization
   Dimitrios Manganas     : Further ROCIS development; embedding schemes. LFT, Crystal Embedding
   Dimitrios Pantazis     : SARC Basis sets
   Anastasios Papadopoulos: AUTO-CI, single reference methods and gradients
   Taras Petrenko         : pre 6.0 DFT Hessian and TD-DFT gradient, (ASA, deprecated), ECA, 1-Electron XAS/XES, NRVS
   Peter Pinski           : DLPNO-MP2, DLPNO-MP2 Gradient
   Christoph Reimann      : Effective Core Potentials
   Marius Retegan         : Local ZFS, SOC
   Christoph Riplinger    : Optimizer, TS searches, QM/MM, DLPNO-CCSD(T), (RO)-DLPNO pert. Triples
   Michael Roemelt        : Original ROCIS implementation
   Masaaki Saitow         : Open-shell DLPNO-CCSD energy and density
   Barbara Sandhoefer     : DKH picture change effects
   Kantharuban Sivalingam : CASSCF convergence/infrastructure, NEVPT2 and variants, FIC-MRCI
   Bernardo de Souza      : ESD, SOC TD-DFT
   Georgi Stoychev        : AutoAux, RI-MP2 NMR, DLPNO-MP2 response, X2C
   Van Anh Tran           : RI-MP2 g-tensors
   Willem Van den Heuvel  : Paramagnetic NMR
   Zikuan Wang            : NOTCH, Electric field optimization 
   Frank Wennmohs         : Technical directorship and infrastructure
   Hang Xu                : AUTO-CI-Response properties 


 We gratefully acknowledge several colleagues who have allowed us to
 interface, adapt or use parts of their codes:
   Stefan Grimme, W. Hujo, H. Kruse, P. Pracht,  : VdW corrections, initial TS optimization,
                  C. Bannwarth, S. Ehlert,         DFT functionals, gCP, sTDA/sTD-DF
                  L. Wittmann, M. Mueller
   Ed Valeev, F. Pavosevic, A. Kumar             : LibInt (2-el integral package), F12 methods
   Garnet Chan, S. Sharma, J. Yang, R. Olivares  : DMRG
   Ulf Ekstrom                                   : XCFun DFT Library
   Mihaly Kallay                                 : mrcc  (arbitrary order and MRCC methods)
   Frank Weinhold                                : gennbo (NPA and NBO analysis)
   Simon Mueller                                 : openCOSMO-RS
   Christopher J. Cramer and Donald G. Truhlar   : smd solvation model
   Lars Goerigk                                  : TD-DFT with DH, B97 family of functionals
   V. Asgeirsson, H. Jonsson                     : NEB implementation
   FAccTs GmbH                                   : IRC, NEB, NEB-TS, DLPNO-Multilevel, CI-OPT
                                                   MM, QMMM, 2- and 3-layer-ONIOM, Crystal-QMMM,
                                                   LR-CPCM, SF, NACMEs, symmetry and pop. for TD-DFT,
                                                   nearIR, NL-DFT gradient (VV10), updates on ESD,
                                                   ML-optimized integration grids, MBIS, APM,
                                                   GOAT, DOCKER, SOLVATOR, interface openCOSMO-RS
   S Lehtola, MJT Oliveira, MAL Marques          : LibXC Library
   Liviu Ungur et al                             : ANISO software


 Your calculation uses the libint2 library for the computation of 2-el integrals
 For citations please refer to: http://libint.valeyev.net

 Your ORCA version has been built with support for libXC version: 6.2.2
 For citations please refer to: https://libxc.gitlab.io

 This ORCA versions uses:
   CBLAS   interface :  Fast vector & matrix operations
   LAPACKE interface :  Fast linear algebra routines
   SCALAPACK package :  Parallel linear algebra routines
   Shared memory     :  Shared parallel matrices
   BLAS/LAPACK       :  OpenBLAS 0.3.27  USE64BITINT DYNAMIC_ARCH NO_AFFINITY SapphireRapids SINGLE_THREADED
        Core in use  :  SapphireRapids
   Copyright (c) 2011-2014, The OpenBLAS Project


Your calculation utilizes the geometrical counterpoise correction gCP
Please cite in your paper:
H.Kruse, S. Grimme J.Chem.Phys., 136, (2012), 154101 
   

Your calculation utilizes the atom-pairwise dispersion correction
based on EEQ partial charges (D4)


================================================================================

----- Orbital basis set information -----
Your calculation utilizes the basis: def2-SV(P)
   F. Weigend and R. Ahlrichs, Phys. Chem. Chem. Phys. 7, 3297 (2005).

----- AuxJ basis set information -----
Your calculation utilizes the auxiliary basis: def2/J
   F. Weigend, Phys. Chem. Chem. Phys. 8, 1057 (2006).

================================================================================
                                        WARNINGS
                       Please study these warnings very carefully!
================================================================================


================================================================================
                                       INPUT FILE
================================================================================
NAME = sp.inp
|  1> ! pbe def2-sv(p) def2/J RI DEFGRID1 loosescf d4 GCP(DFT/SV(P)) printgap
|  2> %output
|  3>     printlevel normal
|  4> end
|  5> * xyz 0 1
|  6> C 4.4416244761 0.40848642 -2.0381843007
|  7> C 4.5752388369 -0.0446017481 -0.5982600418
|  8> O 3.3384615994 -0.5596990952 -0.0829234303
|  9> P 2.0836016187 0.3890792024 0.2095962939
| 10> S 2.5551681945 2.1486239294 0.9306754867
| 11> O 1.218235942 -0.5472524265 1.1419512908
| 12> C 1.6223434204 -0.8182480131 2.5047789685
| 13> C 0.3966956646 -1.2812558125 3.2638783201
| 14> S 0.8989689237 0.3850193123 -1.5368919902
| 15> C 0.4192814459 -1.3615212166 -1.6262331037
| 16> S -0.8649641859 -1.8793884282 -0.4435374063
| 17> P -2.117800801 -0.1919681203 -0.5224662642
| 18> S -2.5497718394 0.5735751348 -2.2667453987
| 19> O -1.3503050775 0.7756397959 0.5090513814
| 20> C -1.4295076163 2.2050834715 0.4025340545
| 21> C -2.7700249856 2.7198519665 0.8842445819
| 22> O -3.4366516855 -0.6566665392 0.2221200575
| 23> C -3.4590936539 -1.1883268663 1.5712493622
| 24> C -3.5602666196 -2.7001509004 1.5523736457
| 25> H 3.7465183274 1.2460747138 -2.0994811554
| 26> H 5.4108475503 0.7291134579 -2.4062547253
| 27> H 4.0698032512 -0.4006802188 -2.6613913778
| 28> H 4.8937597599 0.7881183205 0.0369593658
| 29> H 5.2727164293 -0.8773163064 -0.498313155
| 30> H 2.3945471906 -1.5902328424 2.4775856473
| 31> H 2.0423216341 0.0985739004 2.9328233376
| 32> H 0.6791538438 -1.5292471191 4.2817394957
| 33> H -0.3482668209 -0.4900387621 3.2818700334
| 34> H -0.0272565966 -2.1568180864 2.7797349372
| 35> H 1.2824718757 -1.9954241838 -1.4365531853
| 36> H 0.0403238296 -1.4964215157 -2.6378373562
| 37> H -0.6029674099 2.5730586958 1.0153702725
| 38> H -1.2575288936 2.4887105572 -0.6418357503
| 39> H -2.9454912684 2.4174932884 1.913431812
| 40> H -2.7820724196 3.8032083813 0.8197841227
| 41> H -3.5623965637 2.3171364917 0.2533410651
| 42> H -2.5634396694 -0.8547761198 2.1003018074
| 43> H -4.3451874528 -0.7399907092 2.024273054
| 44> H -4.429118186 -3.0056776488 0.9762318976
| 45> H -2.6715204673 -3.1377722601 1.1027898583
| 46> H -3.660253172 -3.0601748247 2.5715144264
| 47> *
| 48> 
| 49>                          ****END OF INPUT****
================================================================================

                       ****************************
                       * Single Point Calculation *
                       ****************************

---------------------------------
CARTESIAN COORDINATES (ANGSTROEM)
---------------------------------
  C      4.441624    0.408486   -2.038184
  C      4.575239   -0.044602   -0.598260
  O      3.338462   -0.559699   -0.082923
  P      2.083602    0.389079    0.209596
  S      2.555168    2.148624    0.930675
  O      1.218236   -0.547252    1.141951
  C      1.622343   -0.818248    2.504779
  C      0.396696   -1.281256    3.263878
  S      0.898969    0.385019   -1.536892
  C      0.419281   -1.361521   -1.626233
  S     -0.864964   -1.879388   -0.443537
  P     -2.117801   -0.191968   -0.522466
  S     -2.549772    0.573575   -2.266745
  O     -1.350305    0.775640    0.509051
  C     -1.429508    2.205083    0.402534
  C     -2.770025    2.719852    0.884245
  O     -3.436652   -0.656667    0.222120
  C     -3.459094   -1.188327    1.571249
  C     -3.560267   -2.700151    1.552374
  H      3.746518    1.246075   -2.099481
  H      5.410848    0.729113   -2.406255
  H      4.069803   -0.400680   -2.661391
  H      4.893760    0.788118    0.036959
  H      5.272716   -0.877316   -0.498313
  H      2.394547   -1.590233    2.477586
  H      2.042322    0.098574    2.932823
  H      0.679154   -1.529247    4.281739
  H     -0.348267   -0.490039    3.281870
  H     -0.027257   -2.156818    2.779735
  H      1.282472   -1.995424   -1.436553
  H      0.040324   -1.496422   -2.637837
  H     -0.602967    2.573059    1.015370
  H     -1.257529    2.488711   -0.641836
  H     -2.945491    2.417493    1.913432
  H     -2.782072    3.803208    0.819784
  H     -3.562397    2.317136    0.253341
  H     -2.563440   -0.854776    2.100302
  H     -4.345187   -0.739991    2.024273
  H     -4.429118   -3.005678    0.976232
  H     -2.671520   -3.137772    1.102790
  H     -3.660253   -3.060175    2.571514

----------------------------
CARTESIAN COORDINATES (A.U.)
----------------------------
  NO LB      ZA    FRAG     MASS         X           Y           Z
   0 C     6.0000    0    12.011    8.393454    0.771927   -3.851610
   1 C     6.0000    0    12.011    8.645948   -0.084285   -1.130548
   2 O     8.0000    0    15.999    6.308778   -1.057678   -0.156703
   3 P    15.0000    0    30.974    3.937436    0.735253    0.396080
   4 S    16.0000    0    32.060    4.828568    4.060311    1.758722
   5 O     8.0000    0    15.999    2.302132   -1.034157    2.157975
   6 C     6.0000    0    12.011    3.065785   -1.546265    4.733346
   7 C     6.0000    0    12.011    0.749646   -2.421223    6.167836
   8 S    16.0000    0    32.060    1.698805    0.727581   -2.904305
   9 C     6.0000    0    12.011    0.792327   -2.572902   -3.073135
  10 S    16.0000    0    32.060   -1.634545   -3.551529   -0.838164
  11 P    15.0000    0    30.974   -4.002064   -0.362767   -0.987318
  12 S    16.0000    0    32.060   -4.818370    1.083900   -4.283528
  13 O     8.0000    0    15.999   -2.551707    1.465747    0.961968
  14 C     6.0000    0    12.011   -2.701378    4.167004    0.760679
  15 C     6.0000    0    12.011   -5.234589    5.139775    1.670980
  16 O     8.0000    0    15.999   -6.494331   -1.240920    0.419746
  17 C     6.0000    0    12.011   -6.536740   -2.245612    2.969231
  18 C     6.0000    0    12.011   -6.727929   -5.102546    2.933561
  19 H     1.0000    0     1.008    7.079894    2.354740   -3.967444
  20 H     1.0000    0     1.008   10.225020    1.377825   -4.547162
  21 H     1.0000    0     1.008    7.690814   -0.757176   -5.029301
  22 H     1.0000    0     1.008    9.247866    1.489328    0.069843
  23 H     1.0000    0     1.008    9.963990   -1.657888   -0.941675
  24 H     1.0000    0     1.008    4.525038   -3.005105    4.681958
  25 H     1.0000    0     1.008    3.859429    0.186278    5.542233
  26 H     1.0000    0     1.008    1.283415   -2.889858    8.091315
  27 H     1.0000    0     1.008   -0.658129   -0.926039    6.201836
  28 H     1.0000    0     1.008   -0.051508   -4.075796    5.252938
  29 H     1.0000    0     1.008    2.423521   -3.770805   -2.714692
  30 H     1.0000    0     1.008    0.076201   -2.827827   -4.984790
  31 H     1.0000    0     1.008   -1.139443    4.862376    1.918772
  32 H     1.0000    0     1.008   -2.376385    4.702981   -1.212894
  33 H     1.0000    0     1.008   -5.566172    4.568400    3.615862
  34 H     1.0000    0     1.008   -5.257355    7.187022    1.549167
  35 H     1.0000    0     1.008   -6.731954    4.378753    0.478745
  36 H     1.0000    0     1.008   -4.844199   -1.615293    3.968995
  37 H     1.0000    0     1.008   -8.211214   -1.398380    3.825322
  38 H     1.0000    0     1.008   -8.369820   -5.679908    1.844811
  39 H     1.0000    0     1.008   -5.048442   -5.929530    2.083971
  40 H     1.0000    0     1.008   -6.916876   -5.782892    4.859458

--------------------------------
INTERNAL COORDINATES (ANGSTROEM)
--------------------------------
 C      0   0   0     0.000000000000     0.00000000     0.00000000
 C      1   0   0     1.515428506018     0.00000000     0.00000000
 O      2   1   0     1.435449419290   111.86624714     0.00000000
 P      3   2   1     1.600131750265   121.90707729   290.00914260
 S      4   3   2     1.959165098713   114.27056886   322.60069912
 O      4   3   2     1.579512745733   100.72341216   196.83603419
 C      6   4   3     1.447080074205   120.92595973    72.49650078
 C      7   6   4     1.514206217529   107.65912965   159.32005677
 S      4   3   2     2.110353627066   106.72555212    92.47625630
 C      9   4   3     1.813418244645   101.01769629    62.94096245
 S     10   9   4     1.821055299626   115.36853986    75.44170609
 P     11  10   9     2.103144465855    99.64592689    39.72717845
 S     12  11  10     1.953244775367   118.66692094    44.60622219
 O     12  11  10     1.609143690995   100.03656999   277.11492781
 C     14  12  11     1.435593328487   121.65918156   152.44327015
 C     15  14  12     1.514601747341   111.32427794    75.03475335
 O     12  11  10     1.584209918709   104.05943299   167.89163141
 C     17  12  11     1.450281429985   123.89264374    55.56844399
 C     18  17  12     1.515323124533   110.80509159   259.28156477
 H      1   2   3     1.090176138185   109.83748521    64.20613636
 H      1   2   3     1.085205465550   109.38181728   183.63656393
 H      1   2   3     1.086917077601   110.63320914   304.12807790
 H      2   1   3     1.094706347305   110.46147083   239.17608446
 H      2   1   3     1.090815249108   111.81909739   116.35744462
 H      7   6   4     1.092244805938   107.83908508   279.90677278
 H      7   6   4     1.095520927675   108.56050167    38.19845888
 H      8   7   6     1.085045475517   109.23557397   177.80552254
 H      8   7   6     1.086884183063   109.90718565   297.62520669
 H      8   7   6     1.086618438303   109.80547980    57.59427887
 H     10   9   4     1.087616274872   110.04829431   315.19547493
 H     10   9   4     1.088646007353   104.90432263   195.16782551
 H     15  14  12     1.092768369137   104.59316907   196.32813197
 H     15  14  12     1.095777940087   108.64993105   312.83319541
 H     16  15  14     1.086938609685   110.45549713    57.77475955
 H     16  15  14     1.085339307753   109.27998255   178.17243465
 H     16  15  14     1.089987026957   109.49592304   297.55304833
 H     18  17  12     1.092404984524   109.02020918    22.26867365
 H     18  17  12     1.091511793589   104.36393362   139.56625960
 H     19  18  17     1.086365017997   109.91300305   304.58177337
 H     19  18  17     1.087891428216   110.60602220    64.65037390
 H     19  18  17     1.085477990387   108.98751148   184.78483019

---------------------------
INTERNAL COORDINATES (A.U.)
---------------------------
 C      0   0   0     0.000000000000     0.00000000     0.00000000
 C      1   0   0     2.863744851912     0.00000000     0.00000000
 O      2   1   0     2.712606281554   111.86624714     0.00000000
 P      3   2   1     3.023810786192   121.90707729   290.00914260
 S      4   3   2     3.702285487704   114.27056886   322.60069912
 O      4   3   2     2.984846514474   100.72341216   196.83603419
 C      6   4   3     2.734585034102   120.92595973    72.49650078
 C      7   6   4     2.861435061410   107.65912965   159.32005677
 S      4   3   2     3.987990400881   106.72555212    92.47625630
 C      9   4   3     3.426863848634   101.01769629    62.94096245
 S     10   9   4     3.441295791019   115.36853986    75.44170609
 P     11  10   9     3.974367060539    99.64592689    39.72717845
 S     12  11  10     3.691097697956   118.66692094    44.60622219
 O     12  11  10     3.040840886107   100.03656999   277.11492781
 C     14  12  11     2.712878230524   121.65918156   152.44327015
 C     15  14  12     2.862182504433   111.32427794    75.03475335
 O     12  11  10     2.993722885002   104.05943299   167.89163141
 C     17  12  11     2.740634719783   123.89264374    55.56844399
 C     18  17  12     2.863545709765   110.80509159   259.28156477
 H      1   2   3     2.060134338905   109.83748521    64.20613636
 H      1   2   3     2.050741128924   109.38181728   183.63656393
 H      1   2   3     2.053975606948   110.63320914   304.12807790
 H      2   1   3     2.068695193472   110.46147083   239.17608446
 H      2   1   3     2.061342083519   111.81909739   116.35744462
 H      7   6   4     2.064043554421   107.83908508   279.90677278
 H      7   6   4     2.070234527286   108.56050167    38.19845888
 H      8   7   6     2.050438791578   109.23557397   177.80552254
 H      8   7   6     2.053913445281   109.90718565   297.62520669
 H      8   7   6     2.053411260461   109.80547980    57.59427887
 H     10   9   4     2.055296898305   110.04829431   315.19547493
 H     10   9   4     2.057242810684   104.90432263   195.16782551
 H     15  14  12     2.065032945481   104.59316907   196.32813197
 H     15  14  12     2.070720210358   108.64993105   312.83319541
 H     16  15  14     2.054016296689   110.45549713    57.77475955
 H     16  15  14     2.050994054034   109.27998255   178.17243465
 H     16  15  14     2.059776970476   109.49592304   297.55304833
 H     18  17  12     2.064346248081   109.02020918    22.26867365
 H     18  17  12     2.062658361829   104.36393362   139.56625960
 H     19  18  17     2.052932365487   109.91300305   304.58177337
 H     19  18  17     2.055816862769   110.60602220    64.65037390
 H     19  18  17     2.051256126231   108.98751148   184.78483019

---------------------
BASIS SET INFORMATION
---------------------
There are 5 groups of distinct atoms

 Group   1 Type C   : 7s4p1d contracted to 3s2p1d pattern {511/31/1}
 Group   2 Type O   : 7s4p1d contracted to 3s2p1d pattern {511/31/1}
 Group   3 Type P   : 10s7p1d contracted to 4s3p1d pattern {5311/511/1}
 Group   4 Type S   : 10s7p1d contracted to 4s3p1d pattern {5311/511/1}
 Group   5 Type H   : 4s contracted to 2s pattern {31}

Atom   0C    basis set group =>   1
Atom   1C    basis set group =>   1
Atom   2O    basis set group =>   2
Atom   3P    basis set group =>   3
Atom   4S    basis set group =>   4
Atom   5O    basis set group =>   2
Atom   6C    basis set group =>   1
Atom   7C    basis set group =>   1
Atom   8S    basis set group =>   4
Atom   9C    basis set group =>   1
Atom  10S    basis set group =>   4
Atom  11P    basis set group =>   3
Atom  12S    basis set group =>   4
Atom  13O    basis set group =>   2
Atom  14C    basis set group =>   1
Atom  15C    basis set group =>   1
Atom  16O    basis set group =>   2
Atom  17C    basis set group =>   1
Atom  18C    basis set group =>   1
Atom  19H    basis set group =>   5
Atom  20H    basis set group =>   5
Atom  21H    basis set group =>   5
Atom  22H    basis set group =>   5
Atom  23H    basis set group =>   5
Atom  24H    basis set group =>   5
Atom  25H    basis set group =>   5
Atom  26H    basis set group =>   5
Atom  27H    basis set group =>   5
Atom  28H    basis set group =>   5
Atom  29H    basis set group =>   5
Atom  30H    basis set group =>   5
Atom  31H    basis set group =>   5
Atom  32H    basis set group =>   5
Atom  33H    basis set group =>   5
Atom  34H    basis set group =>   5
Atom  35H    basis set group =>   5
Atom  36H    basis set group =>   5
Atom  37H    basis set group =>   5
Atom  38H    basis set group =>   5
Atom  39H    basis set group =>   5
Atom  40H    basis set group =>   5
---------------------------------
AUXILIARY/J BASIS SET INFORMATION
---------------------------------
There are 5 groups of distinct atoms

 Group   1 Type C   : 12s5p4d2f1g contracted to 6s4p3d1f1g pattern {711111/2111/211/2/1}
 Group   2 Type O   : 12s5p4d2f1g contracted to 6s4p3d1f1g pattern {711111/2111/211/2/1}
 Group   3 Type P   : 14s5p5d2f1g contracted to 8s4p3d1f1g pattern {71111111/2111/311/2/1}
 Group   4 Type S   : 14s5p5d2f1g contracted to 8s4p3d1f1g pattern {71111111/2111/311/2/1}
 Group   5 Type H   : 5s2p1d contracted to 3s1p1d pattern {311/2/1}

Atom   0C    basis set group =>   1
Atom   1C    basis set group =>   1
Atom   2O    basis set group =>   2
Atom   3P    basis set group =>   3
Atom   4S    basis set group =>   4
Atom   5O    basis set group =>   2
Atom   6C    basis set group =>   1
Atom   7C    basis set group =>   1
Atom   8S    basis set group =>   4
Atom   9C    basis set group =>   1
Atom  10S    basis set group =>   4
Atom  11P    basis set group =>   3
Atom  12S    basis set group =>   4
Atom  13O    basis set group =>   2
Atom  14C    basis set group =>   1
Atom  15C    basis set group =>   1
Atom  16O    basis set group =>   2
Atom  17C    basis set group =>   1
Atom  18C    basis set group =>   1
Atom  19H    basis set group =>   5
Atom  20H    basis set group =>   5
Atom  21H    basis set group =>   5
Atom  22H    basis set group =>   5
Atom  23H    basis set group =>   5
Atom  24H    basis set group =>   5
Atom  25H    basis set group =>   5
Atom  26H    basis set group =>   5
Atom  27H    basis set group =>   5
Atom  28H    basis set group =>   5
Atom  29H    basis set group =>   5
Atom  30H    basis set group =>   5
Atom  31H    basis set group =>   5
Atom  32H    basis set group =>   5
Atom  33H    basis set group =>   5
Atom  34H    basis set group =>   5
Atom  35H    basis set group =>   5
Atom  36H    basis set group =>   5
Atom  37H    basis set group =>   5
Atom  38H    basis set group =>   5
Atom  39H    basis set group =>   5
Atom  40H    basis set group =>   5
------------------------------------------------------------------------------
                             ORCA STARTUP CALCULATIONS
                           -- RI-GTO INTEGRALS CHOSEN --
------------------------------------------------------------------------------
------------------------------------------------------------------------------
                   ___                                                        
                  /   \      - P O W E R E D   B Y -                         
                 /     \                                                     
                 |  |  |   _    _      __       _____    __    __             
                 |  |  |  | |  | |    /  \     |  _  \  |  |  /  |          
                  \  \/   | |  | |   /    \    | | | |  |  | /  /          
                 / \  \   | |__| |  /  /\  \   | |_| |  |  |/  /          
                |  |  |   |  __  | /  /__\  \  |    /   |      \           
                |  |  |   | |  | | |   __   |  |    \   |  |\   \          
                \     /   | |  | | |  |  |  |  | |\  \  |  | \   \       
                 \___/    |_|  |_| |__|  |__|  |_| \__\ |__|  \__/        
                                                                              
                      - O R C A' S   B I G   F R I E N D -                    
                                      &                                       
                       - I N T E G R A L  F E E D E R -                       
                                                                              
 v1 FN, 2020, v2 2021, v3 2022-2024                                           
------------------------------------------------------------------------------


----------------------
SHARK INTEGRAL PACKAGE
----------------------

Number of atoms                             ...     41
Number of basis functions                   ...    334
Number of shells                            ...    170
Maximum angular momentum                    ...      2
Integral batch strategy                     ... SHARK/LIBINT Hybrid
RI-J (if used) integral strategy            ... SPLIT-RIJ (Revised 2003 algorithm where possible)
Printlevel                                  ...      1
Contraction scheme used                     ... SEGMENTED contraction
Prescreening option                         ... SCHWARTZ
   Thresh                                   ... 1.000e-09
   Tcut                                     ... 1.000e-10
   Tpresel                                  ... 1.000e-10 
Coulomb Range Separation                    ... NOT USED
Exchange Range Separation                   ... NOT USED
Multipole approximations                    ... NOT USED
Finite Nucleus Model                        ... NOT USED
CABS basis                                  ... NOT available
Auxiliary Coulomb fitting basis             ... AVAILABLE
   # of basis functions in Aux-J            ...   1185
   # of shells in Aux-J                     ...    407
   Maximum angular momentum in Aux-J        ...      4
Auxiliary J/K fitting basis                 ... NOT available
Auxiliary Correlation fitting basis         ... NOT available
Auxiliary 'external' fitting basis          ... NOT available

Checking pre-screening integrals            ... done (  0.0 sec) Dimension = 170
Check shell pair data                       ... done (  0.0 sec)
Shell pair information
Shell pair cut-off parameter TPreSel        ...   1.0e-10
Total number of shell pairs                 ...     14535
Shell pairs after pre-screening             ...     10761
Total number of primitive shell pairs       ...     62501
Primitive shell pairs kept                  ...     26805
          la=0 lb=0:   4190 shell pairs
          la=1 lb=0:   3636 shell pairs
          la=1 lb=1:    832 shell pairs
          la=2 lb=0:   1362 shell pairs
          la=2 lb=1:    621 shell pairs
          la=2 lb=2:    120 shell pairs

Calculating one electron integrals          ... done (  0.1 sec)
Calculating RI/J V-Matrix + Cholesky decomp.... done (  0.1 sec)
Calculating Nuclear repulsion               ... done (  0.0 sec) ENN=   2831.169068743445 Eh

Diagonalization of the overlap matrix:
Smallest eigenvalue                        ... 3.124e-03
Time for diagonalization                   ...    0.010 sec
Threshold for overlap eigenvalues          ... 1.000e-07
Number of eigenvalues below threshold      ... 0
Time for construction of square roots      ...    0.024 sec
Total time needed                          ...    0.043 sec

-------------------
DFT GRID GENERATION
-------------------

General Integration Accuracy     IntAcc      ... 4.159
Radial Grid Type                 RadialGrid  ... OptM3 with GC (2021)
Angular Grid (max. ang.)         AngularGrid ... 3 (Lebedev-194)
Angular grid pruning method      GridPruning ... 4 (adaptive)
Weight generation scheme         WeightScheme... mBecke (2022)
Basis function cutoff            BFCut       ... 1.0000e-10
Integration weight cutoff        WCut        ... 1.0000e-14
Partially contracted basis set               ... off
Rotationally invariant grid construction     ... off
Angular grids for H and He will be reduced by one unit

Total number of grid points                  ...    97233
Total number of batches                      ...     1539
Average number of points per batch           ...       63
Average number of grid points per atom       ...     2372
Initializing property integral containers    ... done (  0.0 sec)

SHARK setup successfully completed in   1.5 seconds

Maximum memory used throughout the entire STARTUP-calculation: 52.8 MB
-------------------------------------------------------------------------------
                                 ORCA GUESS
                   Start orbitals & Density for SCF / CASSCF
-------------------------------------------------------------------------------

------------
SCF SETTINGS
------------
Hamiltonian:
 Density Functional     Method          .... DFT(GTOs)
 Exchange Functional    Exchange        .... PBE
   PBE kappa parameter   XKappa         ....  0.804000
   PBE mue parameter    XMuePBE         ....  0.219520
 Correlation Functional Correlation     .... PBE
   PBE beta parameter  CBetaPBE         ....  0.066725
 LDA part of GGA corr.  LDAOpt          .... PW91-LDA
 Gradients option       PostSCFGGA      .... off
   NL short-range parameter             ....  6.400000
 RI-approximation to the Coulomb term is turned on
   Number of AuxJ basis functions       .... 1185


General Settings:
 Integral files         IntName         .... sp
 Hartree-Fock type      HFTyp           .... RHF
 Total Charge           Charge          ....    0
 Multiplicity           Mult            ....    1
 Number of Electrons    NEL             ....  202
 Basis Dimension        Dim             ....  334
 Nuclear Repulsion      ENuc            ....   2831.1690687434 Eh

Convergence Acceleration:
 AO-DIIS                CNVDIIS         .... on
   Start iteration      DIISMaxIt       ....    12
   Startup error        DIISStart       ....  0.200000
   # of expansion vecs  DIISMaxEq       ....     5
   Bias factor          DIISBfac        ....   1.050
   Max. coefficient     DIISMaxC        ....  10.000
 MO-DIIS                CNVKDIIS        .... off
 Trust-Rad. Augm. Hess. CNVTRAH         .... auto
   Auto Start mean grad. ratio tolernc. ....  1.125000
   Auto Start start iteration           ....    50
   Auto Start num. interpolation iter.  ....    10
   Max. Number of Micro iterations      ....    24
   Max. Number of Macro iterations      .... Maxiter - #DIIS iter
   Number of Davidson start vectors     ....     2
   Converg. threshold    (grad. norm)   ....   1.000e-04
   Grad. Scal. Fac. for Micro threshold ....   0.100
   Minimum threshold for Micro iter.    ....   1.000e-02
   NR start threshold (gradient norm)   ....   1.000e-04
   Initial trust radius                 ....   0.400
   Minimum AH scaling param. (alpha)    ....   1.000
   Maximum AH scaling param. (alpha)    .... 1000.000
   Quad. conv. algorithm                .... NR
   White noise on init. David. guess    .... on
   Maximum white noise                  ....   0.010
   Pseudo random numbers                .... off
   Inactive MOs                         .... canonical
   Orbital update algorithm             .... Taylor
   Preconditioner                       .... Diag
   Full preconditioner red. dimension   ....   250
 SOSCF                  CNVSOSCF        .... on
   Start iteration      SOSCFMaxIt      ....   150
   Startup grad/error   SOSCFStart      ....  0.003300
   Hessian update       SOSCFHessUp     .... L-BFGS
 Level Shifting         CNVShift        .... on
   Level shift para.    LevelShift      ....    0.2500
   Turn off err/grad.   ShiftErr        ....    0.0010
 Zerner damping         CNVZerner       .... off
 Static damping         CNVDamp         .... on
   Fraction old density DampFac         ....    0.7000
   Max. Damping (<1)    DampMax         ....    0.9800
   Min. Damping (>=0)   DampMin         ....    0.0000
   Turn off err/grad.   DampErr         ....    0.1000

SCF Procedure:
 Maximum # iterations   MaxIter         ....   125
 SCF integral mode      SCFMode         .... Direct
   Integral package                     .... SHARK and LIBINT hybrid scheme
 Reset frequency        DirectResetFreq ....    20
 Integral Threshold     Thresh          ....  1.000e-09 Eh
 Primitive CutOff       TCut            ....  1.000e-10 Eh

Convergence Tolerance:
 Convergence Check Mode ConvCheckMode   .... Total+1el-Energy
 Convergence forced     ConvForced      .... 0
 Energy Change          TolE            ....  1.000e-05 Eh
 1-El. energy change                    ....  1.000e-02 Eh
 Orbital Gradient       TolG            ....  1.000e-04
 Orbital Rotation angle TolX            ....  1.000e-04
 DIIS Error             TolErr          ....  5.000e-04

------------------------------
INITIAL GUESS: MODEL POTENTIAL
------------------------------
Loading Hartree-Fock densities                     ... done
Calculating cut-offs                               ... done
Initializing the effective Hamiltonian             ... done
Setting up the integral package (SHARK)            ... done
Starting the Coulomb interaction                   ... done (   0.7 sec)
Making the grid                                    ... done (   0.6 sec)
Mapping shells                                     ... done
Starting the XC term evaluation                    ... done (   0.4 sec)
  promolecular density results
     # of electrons  =    201.995537365
     EX              =   -229.993924225
     EC              =     -7.287478979
     EX+EC           =   -237.281403204
Transforming the Hamiltonian                       ... done (   0.0 sec)
Diagonalizing the Hamiltonian                      ... done (   0.0 sec)
Back transforming the eigenvectors                 ... done (   0.0 sec)
Now organizing SCF variables                       ... done
                      ------------------
                      INITIAL GUESS DONE (   1.7 sec)
                      ------------------
             **** ENERGY FILE WAS UPDATED (sp.en.tmp) ****
Finished Guess after   1.9 sec
Maximum memory used throughout the entire GUESS-calculation: 39.9 MB

-------------------------------------------------------------------------------------------
                                      ORCA LEAN-SCF
                              memory conserving SCF solver
-------------------------------------------------------------------------------------------

----------------------------------------D-I-I-S--------------------------------------------
Iteration    Energy (Eh)           Delta-E    RMSDP     MaxDP     DIISErr   Damp  Time(sec)
-------------------------------------------------------------------------------------------
               ***  Starting incremental Fock matrix formation  ***
    1    -2929.1901243327843076     0.00e+00  2.66e-03  1.37e-01  1.85e-01  0.700   2.3
    2    -2929.4137314072509071    -2.24e-01  1.73e-03  7.03e-02  7.54e-02  0.700   2.2
                               ***Turning on AO-DIIS***
    3    -2929.4851498155117042    -7.14e-02  6.89e-04  1.58e-02  2.20e-02  0.700   2.1
    4    -2929.5300275165259336    -4.49e-02  1.05e-03  3.26e-02  1.02e-02  0.000   2.0
    5    -2929.6344057875735416    -1.04e-01  3.12e-04  1.01e-02  8.66e-03  0.000   2.1
                              *** Initializing SOSCF ***
---------------------------------------S-O-S-C-F--------------------------------------
Iteration    Energy (Eh)           Delta-E    RMSDP     MaxDP     MaxGrad    Time(sec)
--------------------------------------------------------------------------------------
    6    -2929.6354755297656993    -1.07e-03  1.12e-04  3.36e-03  2.63e-03     2.0
               *** Restarting incremental Fock matrix formation ***
    7    -2929.6356163996711075    -1.41e-04  7.17e-05  1.38e-03  1.97e-04     2.3
    8    -2929.6356215237251490    -5.12e-06  2.74e-05  8.51e-04  2.38e-04     1.8
                 **** Energy Check signals convergence ****

               *****************************************************
               *                     SUCCESS                       *
               *           SCF CONVERGED AFTER   8 CYCLES          *
               *****************************************************

             **** ENERGY FILE WAS UPDATED (sp.en.tmp) ****

----------------
TOTAL SCF ENERGY
----------------

Total Energy       :      -2929.63562152372515 Eh          -79719.43812 eV

Components:
Nuclear Repulsion  :       2831.16906874344522 Eh           77040.02700 eV
Electronic Energy  :      -5760.80469026717037 Eh         -156759.46512 eV
One Electron Energy:      -9680.93350044963518 Eh         -263431.59315 eV
Two Electron Energy:       3920.12881018246435 Eh          106672.12803 eV

Virial components:
Potential Energy   :      -5848.92077429337041 Eh         -159157.22567 eV
Kinetic Energy     :       2919.28515276964572 Eh           79437.78755 eV
Virial Ratio       :          2.00354554906850

DFT components:
N(Alpha)           :      100.999929244692 electrons
N(Beta)            :      100.999929244692 electrons
N(Total)           :      201.999858489384 electrons
E(X)               :     -231.805142496845 Eh       
E(C)               :       -7.295039630356 Eh       
E(XC)              :     -239.100182127200 Eh       

---------------
SCF CONVERGENCE
---------------

  Last Energy change         ...    5.1241e-06  Tolerance :   1.0000e-05
  Last MAX-Density change    ...    8.5067e-04  Tolerance :   1.0000e-03
  Last RMS-Density change    ...    2.7389e-05  Tolerance :   1.0000e-04
  Last DIIS Error            ...    2.6310e-03  Tolerance :   5.0000e-04
  Last Orbital Gradient      ...    2.3848e-04  Tolerance :   1.0000e-04
  Last Orbital Rotation      ...    3.4457e-04  Tolerance :   1.0000e-04


----------------
ORBITAL ENERGIES
----------------

  NO   OCC          E(Eh)            E(eV) 
   0   2.0000     -88.047804     -2395.9026 
   1   2.0000     -88.040279     -2395.6978 
   2   2.0000     -87.991252     -2394.3637 
   3   2.0000     -87.980487     -2394.0708 
   4   2.0000     -76.427467     -2079.6971 
   5   2.0000     -76.423227     -2079.5817 
   6   2.0000     -18.794512      -511.4247 
   7   2.0000     -18.793266      -511.3908 
   8   2.0000     -18.790975      -511.3284 
   9   2.0000     -18.782073      -511.0862 
  10   2.0000      -9.963422      -271.1185 
  11   2.0000      -9.959152      -271.0023 
  12   2.0000      -9.956430      -270.9282 
  13   2.0000      -9.953733      -270.8548 
  14   2.0000      -9.937203      -270.4051 
  15   2.0000      -9.890857      -269.1439 
  16   2.0000      -9.890847      -269.1436 
  17   2.0000      -9.886189      -269.0169 
  18   2.0000      -9.876974      -268.7661 
  19   2.0000      -7.692303      -209.3182 
  20   2.0000      -7.685605      -209.1359 
  21   2.0000      -7.636265      -207.7933 
  22   2.0000      -7.625822      -207.5092 
  23   2.0000      -6.425351      -174.8427 
  24   2.0000      -6.420497      -174.7106 
  25   2.0000      -5.720680      -155.6676 
  26   2.0000      -5.716592      -155.5564 
  27   2.0000      -5.713670      -155.4769 
  28   2.0000      -5.710220      -155.3830 
  29   2.0000      -5.709009      -155.3500 
  30   2.0000      -5.702171      -155.1640 
  31   2.0000      -5.665093      -154.1550 
  32   2.0000      -5.657037      -153.9358 
  33   2.0000      -5.656385      -153.9181 
  34   2.0000      -5.654956      -153.8792 
  35   2.0000      -5.646415      -153.6468 
  36   2.0000      -5.645762      -153.6290 
  37   2.0000      -4.647841      -126.4742 
  38   2.0000      -4.647292      -126.4592 
  39   2.0000      -4.645695      -126.4158 
  40   2.0000      -4.643397      -126.3533 
  41   2.0000      -4.642000      -126.3152 
  42   2.0000      -4.641014      -126.2884 
  43   2.0000      -0.989406       -26.9231 
  44   2.0000      -0.980807       -26.6891 
  45   2.0000      -0.946596       -25.7582 
  46   2.0000      -0.938305       -25.5326 
  47   2.0000      -0.766297       -20.8520 
  48   2.0000      -0.723547       -19.6887 
  49   2.0000      -0.711012       -19.3476 
  50   2.0000      -0.689703       -18.7678 
  51   2.0000      -0.687249       -18.7010 
  52   2.0000      -0.674020       -18.3410 
  53   2.0000      -0.654023       -17.7969 
  54   2.0000      -0.638739       -17.3810 
  55   2.0000      -0.597955       -16.2712 
  56   2.0000      -0.584918       -15.9164 
  57   2.0000      -0.577801       -15.7228 
  58   2.0000      -0.574674       -15.6377 
  59   2.0000      -0.562717       -15.3123 
  60   2.0000      -0.508592       -13.8395 
  61   2.0000      -0.497604       -13.5405 
  62   2.0000      -0.475898       -12.9498 
  63   2.0000      -0.472697       -12.8627 
  64   2.0000      -0.457802       -12.4574 
  65   2.0000      -0.447283       -12.1712 
  66   2.0000      -0.445971       -12.1355 
  67   2.0000      -0.432147       -11.7593 
  68   2.0000      -0.427853       -11.6425 
  69   2.0000      -0.416455       -11.3323 
  70   2.0000      -0.410000       -11.1567 
  71   2.0000      -0.398079       -10.8323 
  72   2.0000      -0.396165       -10.7802 
  73   2.0000      -0.388843       -10.5810 
  74   2.0000      -0.376263       -10.2386 
  75   2.0000      -0.374717       -10.1966 
  76   2.0000      -0.367874       -10.0104 
  77   2.0000      -0.359626        -9.7859 
  78   2.0000      -0.357958        -9.7405 
  79   2.0000      -0.356962        -9.7134 
  80   2.0000      -0.353535        -9.6202 
  81   2.0000      -0.344204        -9.3663 
  82   2.0000      -0.341377        -9.2893 
  83   2.0000      -0.338409        -9.2086 
  84   2.0000      -0.329734        -8.9725 
  85   2.0000      -0.320925        -8.7328 
  86   2.0000      -0.311191        -8.4679 
  87   2.0000      -0.306587        -8.3427 
  88   2.0000      -0.298513        -8.1230 
  89   2.0000      -0.296087        -8.0569 
  90   2.0000      -0.276575        -7.5260 
  91   2.0000      -0.273313        -7.4372 
  92   2.0000      -0.270690        -7.3659 
  93   2.0000      -0.266287        -7.2460 
  94   2.0000      -0.258287        -7.0283 
  95   2.0000      -0.228673        -6.2225 
  96   2.0000      -0.219691        -5.9781 
  97   2.0000      -0.213122        -5.7993 
  98   2.0000      -0.206220        -5.6115 
  99   2.0000      -0.195933        -5.3316 
 100   2.0000      -0.194280        -5.2866 
 101   0.0000      -0.045481        -1.2376 
 102   0.0000      -0.027022        -0.7353 
 103   0.0000      -0.009737        -0.2649 
 104   0.0000      -0.002895        -0.0788 
 105   0.0000       0.010634         0.2894 
 106   0.0000       0.025311         0.6888 
 107   0.0000       0.026938         0.7330 
 108   0.0000       0.038480         1.0471 
 109   0.0000       0.044349         1.2068 
 110   0.0000       0.047891         1.3032 
 111   0.0000       0.052195         1.4203 
*Only the first 10 virtual orbitals were printed.

                    ********************************
                    * MULLIKEN POPULATION ANALYSIS *
                    ********************************

-----------------------
MULLIKEN ATOMIC CHARGES
-----------------------
   0 C :   -0.310253
   1 C :   -0.007393
   2 O :   -0.387401
   3 P :    0.620654
   4 S :   -0.324296
   5 O :   -0.365713
   6 C :   -0.007469
   7 C :   -0.298373
   8 S :   -0.061733
   9 C :   -0.316262
  10 S :   -0.109007
  11 P :    0.613858
  12 S :   -0.312616
  13 O :   -0.382686
  14 C :   -0.019977
  15 C :   -0.303692
  16 O :   -0.365446
  17 C :   -0.045299
  18 C :   -0.296525
  19 H :    0.127020
  20 H :    0.113929
  21 H :    0.112437
  22 H :    0.111357
  23 H :    0.103036
  24 H :    0.102225
  25 H :    0.103908
  26 H :    0.109126
  27 H :    0.137425
  28 H :    0.120734
  29 H :    0.178979
  30 H :    0.194256
  31 H :    0.107922
  32 H :    0.114367
  33 H :    0.104235
  34 H :    0.111954
  35 H :    0.124329
  36 H :    0.122900
  37 H :    0.111641
  38 H :    0.124600
  39 H :    0.132681
  40 H :    0.110565
Sum of atomic charges:   -0.0000000

--------------------------------
MULLIKEN REDUCED ORBITAL CHARGES
--------------------------------
  0 C s       :     3.106281  s :     3.106281
      pz      :     1.014678  p :     3.175981
      px      :     1.077294
      py      :     1.084009
      dz2     :     0.006627  d :     0.027991
      dxz     :     0.003842
      dyz     :     0.006998
      dx2y2   :     0.003565
      dxy     :     0.006959

  1 C s       :     3.075997  s :     3.075997
      pz      :     1.016649  p :     2.870698
      px      :     0.809107
      py      :     1.044942
      dz2     :     0.011358  d :     0.060698
      dxz     :     0.013233
      dyz     :     0.010726
      dx2y2   :     0.009379
      dxy     :     0.016001

  2 O s       :     3.762271  s :     3.762271
      pz      :     1.723746  p :     4.612210
      px      :     1.278446
      py      :     1.610018
      dz2     :     0.001811  d :     0.012920
      dxz     :     0.001999
      dyz     :     0.001926
      dx2y2   :     0.002292
      dxy     :     0.004892

  3 P s       :     5.196777  s :     5.196777
      pz      :     2.919164  p :     8.595279
      px      :     2.825769
      py      :     2.850346
      dz2     :     0.095047  d :     0.587291
      dxz     :     0.126151
      dyz     :     0.108618
      dx2y2   :     0.115723
      dxy     :     0.141753

  4 S s       :     5.920070  s :     5.920070
      pz      :     3.542385  p :    10.361617
      px      :     3.649231
      py      :     3.170001
      dz2     :     0.005524  d :     0.042608
      dxz     :     0.002174
      dyz     :     0.012500
      dx2y2   :     0.012864
      dxy     :     0.009546

  5 O s       :     3.764065  s :     3.764065
      pz      :     1.308620  p :     4.588151
      px      :     1.644203
      py      :     1.635328
      dz2     :     0.002707  d :     0.013497
      dxz     :     0.003903
      dyz     :     0.002238
      dx2y2   :     0.001984
      dxy     :     0.002666

  6 C s       :     3.072070  s :     3.072070
      pz      :     0.743759  p :     2.875705
      px      :     1.063990
      py      :     1.067956
      dz2     :     0.019155  d :     0.059694
      dxz     :     0.012260
      dyz     :     0.011464
      dx2y2   :     0.004350
      dxy     :     0.012465

  7 C s       :     3.103732  s :     3.103732
      pz      :     1.040036  p :     3.166871
      px      :     1.037824
      py      :     1.089011
      dz2     :     0.006734  d :     0.027769
      dxz     :     0.004573
      dyz     :     0.003656
      dx2y2   :     0.003388
      dxy     :     0.009418

  8 S s       :     5.886022  s :     5.886022
      pz      :     3.394212  p :    10.095971
      px      :     3.548758
      py      :     3.153001
      dz2     :     0.016237  d :     0.079741
      dxz     :     0.017113
      dyz     :     0.011513
      dx2y2   :     0.022171
      dxy     :     0.012707

  9 C s       :     3.192163  s :     3.192163
      pz      :     1.079881  p :     3.084268
      px      :     1.037563
      py      :     0.966825
      dz2     :     0.011007  d :     0.039831
      dxz     :     0.007101
      dyz     :     0.004556
      dx2y2   :     0.006436
      dxy     :     0.010731

 10 S s       :     5.866501  s :     5.866501
      pz      :     3.555150  p :    10.167276
      px      :     3.223403
      py      :     3.388723
      dz2     :     0.012380  d :     0.075229
      dxz     :     0.018076
      dyz     :     0.009896
      dx2y2   :     0.011692
      dxy     :     0.023184

 11 P s       :     5.185471  s :     5.185471
      pz      :     2.884622  p :     8.614874
      px      :     2.840202
      py      :     2.890050
      dz2     :     0.113114  d :     0.585797
      dxz     :     0.132725
      dyz     :     0.116223
      dx2y2   :     0.087359
      dxy     :     0.136377

 12 S s       :     5.917560  s :     5.917560
      pz      :     3.158491  p :    10.352326
      px      :     3.629297
      py      :     3.564537
      dz2     :     0.016302  d :     0.042730
      dxz     :     0.008643
      dyz     :     0.012847
      dx2y2   :     0.002526
      dxy     :     0.002412

 13 O s       :     3.767581  s :     3.767581
      pz      :     1.622184  p :     4.601982
      px      :     1.708552
      py      :     1.271245
      dz2     :     0.002244  d :     0.013123
      dxz     :     0.002310
      dyz     :     0.003300
      dx2y2   :     0.002556
      dxy     :     0.002713

 14 C s       :     3.085768  s :     3.085768
      pz      :     1.095903  p :     2.873740
      px      :     1.074688
      py      :     0.703149
      dz2     :     0.011390  d :     0.060469
      dxz     :     0.007764
      dyz     :     0.010293
      dx2y2   :     0.017709
      dxy     :     0.013312

 15 C s       :     3.096507  s :     3.096507
      pz      :     1.070555  p :     3.179138
      px      :     1.045966
      py      :     1.062617
      dz2     :     0.007478  d :     0.028046
      dxz     :     0.006917
      dyz     :     0.002394
      dx2y2   :     0.007899
      dxy     :     0.003358

 16 O s       :     3.763393  s :     3.763393
      pz      :     1.356571  p :     4.588970
      px      :     1.533280
      py      :     1.699119
      dz2     :     0.003177  d :     0.013083
      dxz     :     0.003318
      dyz     :     0.001853
      dx2y2   :     0.002591
      dxy     :     0.002143

 17 C s       :     3.096573  s :     3.096573
      pz      :     0.774900  p :     2.889342
      px      :     1.093251
      py      :     1.021191
      dz2     :     0.014814  d :     0.059383
      dxz     :     0.012262
      dyz     :     0.015275
      dx2y2   :     0.008539
      dxy     :     0.008494

 18 C s       :     3.098917  s :     3.098917
      pz      :     1.062487  p :     3.169767
      px      :     1.101000
      py      :     1.006281
      dz2     :     0.005819  d :     0.027841
      dxz     :     0.005236
      dyz     :     0.004159
      dx2y2   :     0.006129
      dxy     :     0.006498

 19 H s       :     0.872980  s :     0.872980

 20 H s       :     0.886071  s :     0.886071

 21 H s       :     0.887563  s :     0.887563

 22 H s       :     0.888643  s :     0.888643

 23 H s       :     0.896964  s :     0.896964

 24 H s       :     0.897775  s :     0.897775

 25 H s       :     0.896092  s :     0.896092

 26 H s       :     0.890874  s :     0.890874

 27 H s       :     0.862575  s :     0.862575

 28 H s       :     0.879266  s :     0.879266

 29 H s       :     0.821021  s :     0.821021

 30 H s       :     0.805744  s :     0.805744

 31 H s       :     0.892078  s :     0.892078

 32 H s       :     0.885633  s :     0.885633

 33 H s       :     0.895765  s :     0.895765

 34 H s       :     0.888046  s :     0.888046

 35 H s       :     0.875671  s :     0.875671

 36 H s       :     0.877100  s :     0.877100

 37 H s       :     0.888359  s :     0.888359

 38 H s       :     0.875400  s :     0.875400

 39 H s       :     0.867319  s :     0.867319

 40 H s       :     0.889435  s :     0.889435


------------------------
MULLIKEN OVERLAP CHARGES
------------------------
B(  0-C ,  1-C ) :   0.9178 B(  0-C ,  2-O ) :  -0.0975 B(  0-C , 19-H ) :   0.7266 
B(  0-C , 20-H ) :   0.6953 B(  0-C , 21-H ) :   0.7336 B(  0-C , 22-H ) :  -0.0661 
B(  0-C , 23-H ) :  -0.0522 B(  1-C ,  2-O ) :   0.5684 B(  1-C ,  3-P ) :  -0.0804 
B(  1-C , 22-H ) :   0.7180 B(  1-C , 23-H ) :   0.7260 B(  2-O ,  3-P ) :   0.5834 
B(  2-O ,  4-S ) :  -0.0737 B(  2-O ,  5-O ) :  -0.0631 B(  2-O ,  8-S ) :  -0.0691 
B(  2-O , 22-H ) :  -0.0678 B(  2-O , 23-H ) :  -0.0575 B(  3-P ,  4-S ) :   0.9550 
B(  3-P ,  5-O ) :   0.6422 B(  3-P ,  6-C ) :  -0.0728 B(  3-P ,  8-S ) :   0.4918 
B(  4-S ,  5-O ) :  -0.0601 B(  4-S ,  8-S ) :  -0.0663 B(  4-S , 22-H ) :   0.0686 
B(  4-S , 25-H ) :   0.0671 B(  5-O ,  6-C ) :   0.5475 B(  5-O ,  7-C ) :  -0.1146 
B(  5-O ,  8-S ) :  -0.0762 B(  5-O , 24-H ) :  -0.0638 B(  5-O , 25-H ) :  -0.0711 
B(  6-C ,  7-C ) :   0.8677 B(  6-C , 24-H ) :   0.7344 B(  6-C , 25-H ) :   0.7053 
B(  7-C , 24-H ) :  -0.0568 B(  7-C , 25-H ) :  -0.0531 B(  7-C , 26-H ) :   0.6894 
B(  7-C , 27-H ) :   0.7356 B(  7-C , 28-H ) :   0.7519 B(  8-S ,  9-C ) :   0.4232 
B(  8-S , 10-S ) :  -0.1422 B(  8-S , 29-H ) :  -0.0564 B(  8-S , 30-H ) :  -0.0540 
B(  9-C , 10-S ) :   0.4759 B(  9-C , 11-P ) :  -0.0638 B(  9-C , 29-H ) :   0.6970 
B(  9-C , 30-H ) :   0.7093 B( 10-S , 11-P ) :   0.5672 B( 10-S , 12-S ) :  -0.0771 
B( 10-S , 13-O ) :  -0.0797 B( 10-S , 16-O ) :  -0.0639 B( 10-S , 29-H ) :  -0.0643 
B( 10-S , 30-H ) :  -0.0646 B( 11-P , 12-S ) :   0.9276 B( 11-P , 13-O ) :   0.5939 
B( 11-P , 14-C ) :  -0.0854 B( 11-P , 16-O ) :   0.6403 B( 12-S , 13-O ) :  -0.0683 
B( 12-S , 16-O ) :  -0.0662 B( 12-S , 32-H ) :   0.0632 B( 13-O , 14-C ) :   0.5446 
B( 13-O , 15-C ) :  -0.0894 B( 13-O , 16-O ) :  -0.0589 B( 13-O , 31-H ) :  -0.0602 
B( 13-O , 32-H ) :  -0.0645 B( 14-C , 15-C ) :   0.8743 B( 14-C , 31-H ) :   0.7022 
B( 14-C , 32-H ) :   0.7151 B( 15-C , 32-H ) :  -0.0672 B( 15-C , 33-H ) :   0.7266 
B( 15-C , 34-H ) :   0.7046 B( 15-C , 35-H ) :   0.7209 B( 16-O , 17-C ) :   0.5176 
B( 16-O , 18-C ) :  -0.1085 B( 16-O , 36-H ) :  -0.0595 B( 16-O , 37-H ) :  -0.0565 
B( 17-C , 18-C ) :   0.8957 B( 17-C , 36-H ) :   0.7096 B( 17-C , 37-H ) :   0.7339 
B( 18-C , 36-H ) :  -0.0623 B( 18-C , 37-H ) :  -0.0530 B( 18-C , 38-H ) :   0.7349 
B( 18-C , 39-H ) :   0.7508 B( 18-C , 40-H ) :   0.6913 B( 19-H , 21-H ) :  -0.0525 
B( 22-H , 23-H ) :  -0.0630 B( 24-H , 25-H ) :  -0.0771 B( 27-H , 28-H ) :  -0.0628 
B( 31-H , 32-H ) :  -0.0591 B( 33-H , 35-H ) :  -0.0529 B( 36-H , 37-H ) :  -0.0657 



                     *******************************
                     * LOEWDIN POPULATION ANALYSIS *
                     *******************************

----------------------
LOEWDIN ATOMIC CHARGES
----------------------
   0 C :   -0.366762
   1 C :   -0.122844
   2 O :   -0.255553
   3 P :    0.567640
   4 S :   -0.320470
   5 O :   -0.239236
   6 C :   -0.113080
   7 C :   -0.354268
   8 S :    0.123882
   9 C :   -0.467060
  10 S :    0.084082
  11 P :    0.565117
  12 S :   -0.316432
  13 O :   -0.252814
  14 C :   -0.131354
  15 C :   -0.364512
  16 O :   -0.242953
  17 C :   -0.119171
  18 C :   -0.360467
  19 H :    0.121323
  20 H :    0.131292
  21 H :    0.122987
  22 H :    0.109620
  23 H :    0.117205
  24 H :    0.112471
  25 H :    0.108806
  26 H :    0.129433
  27 H :    0.127584
  28 H :    0.124418
  29 H :    0.133638
  30 H :    0.140570
  31 H :    0.112570
  32 H :    0.107854
  33 H :    0.119123
  34 H :    0.130725
  35 H :    0.123135
  36 H :    0.111332
  37 H :    0.121835
  38 H :    0.131484
  39 H :    0.118395
  40 H :    0.130452

-------------------------------
LOEWDIN REDUCED ORBITAL CHARGES
-------------------------------
  0 C s       :     2.953701  s :     2.953701
      pz      :     1.078100  p :     3.343761
      px      :     1.135104
      py      :     1.130557
      dz2     :     0.018187  d :     0.069300
      dxz     :     0.009242
      dyz     :     0.016717
      dx2y2   :     0.008334
      dxy     :     0.016820

  1 C s       :     2.927153  s :     2.927153
      pz      :     1.074667  p :     3.059639
      px      :     0.881155
      py      :     1.103817
      dz2     :     0.028933  d :     0.136051
      dxz     :     0.026976
      dyz     :     0.024018
      dx2y2   :     0.019676
      dxy     :     0.036449

  2 O s       :     3.504214  s :     3.504214
      pz      :     1.717350  p :     4.727470
      px      :     1.353947
      py      :     1.656172
      dz2     :     0.003156  d :     0.023869
      dxz     :     0.004069
      dyz     :     0.002469
      dx2y2   :     0.004079
      dxy     :     0.010096

  3 P s       :     5.057890  s :     5.057890
      pz      :     2.879004  p :     8.558577
      px      :     2.808013
      py      :     2.871560
      dz2     :     0.128516  d :     0.815892
      dxz     :     0.178275
      dyz     :     0.149417
      dx2y2   :     0.153646
      dxy     :     0.206038

  4 S s       :     5.765873  s :     5.765873
      pz      :     3.573520  p :    10.497052
      px      :     3.659269
      py      :     3.264263
      dz2     :     0.006973  d :     0.057545
      dxz     :     0.002589
      dyz     :     0.017550
      dx2y2   :     0.018657
      dxy     :     0.011775

  5 O s       :     3.504936  s :     3.504936
      pz      :     1.369009  p :     4.710029
      px      :     1.671813
      py      :     1.669206
      dz2     :     0.005628  d :     0.024271
      dxz     :     0.007123
      dyz     :     0.004865
      dx2y2   :     0.002296
      dxy     :     0.004360

  6 C s       :     2.929650  s :     2.929650
      pz      :     0.829998  p :     3.050967
      px      :     1.097721
      py      :     1.123248
      dz2     :     0.041019  d :     0.132463
      dxz     :     0.028837
      dyz     :     0.024165
      dx2y2   :     0.009137
      dxy     :     0.029305

  7 C s       :     2.950642  s :     2.950642
      pz      :     1.106590  p :     3.334517
      px      :     1.096104
      py      :     1.131824
      dz2     :     0.016508  d :     0.069109
      dxz     :     0.012483
      dyz     :     0.008995
      dx2y2   :     0.008418
      dxy     :     0.022704

  8 S s       :     5.645614  s :     5.645614
      pz      :     3.393542  p :    10.130178
      px      :     3.541339
      py      :     3.195297
      dz2     :     0.020299  d :     0.100325
      dxz     :     0.022367
      dyz     :     0.012799
      dx2y2   :     0.028534
      dxy     :     0.016326

  9 C s       :     3.055975  s :     3.055975
      pz      :     1.136394  p :     3.323185
      px      :     1.114308
      py      :     1.072483
      dz2     :     0.024621  d :     0.087900
      dxz     :     0.015869
      dyz     :     0.009178
      dx2y2   :     0.014487
      dxy     :     0.023746

 10 S s       :     5.629435  s :     5.629435
      pz      :     3.549977  p :    10.191423
      px      :     3.223152
      py      :     3.418294
      dz2     :     0.014747  d :     0.095060
      dxz     :     0.024260
      dyz     :     0.011798
      dx2y2   :     0.013864
      dxy     :     0.030391

 11 P s       :     5.058322  s :     5.058322
      pz      :     2.881194  p :     8.563534
      px      :     2.813456
      py      :     2.868885
      dz2     :     0.151290  d :     0.813026
      dxz     :     0.185792
      dyz     :     0.164719
      dx2y2   :     0.116508
      dxy     :     0.194717

 12 S s       :     5.764830  s :     5.764830
      pz      :     3.254389  p :    10.493567
      px      :     3.645183
      py      :     3.593996
      dz2     :     0.022968  d :     0.058034
      dxz     :     0.011194
      dyz     :     0.018083
      dx2y2   :     0.002824
      dxy     :     0.002964

 13 O s       :     3.510328  s :     3.510328
      pz      :     1.661799  p :     4.718461
      px      :     1.714501
      py      :     1.342161
      dz2     :     0.003461  d :     0.024024
      dxz     :     0.003543
      dyz     :     0.006736
      dx2y2   :     0.005143
      dxy     :     0.005141

 14 C s       :     2.929247  s :     2.929247
      pz      :     1.146441  p :     3.067014
      px      :     1.116673
      py      :     0.803900
      dz2     :     0.025851  d :     0.135093
      dxz     :     0.017551
      dyz     :     0.021898
      dx2y2   :     0.040226
      dxy     :     0.029568

 15 C s       :     2.953142  s :     2.953142
      pz      :     1.123549  p :     3.341794
      px      :     1.097151
      py      :     1.121094
      dz2     :     0.018280  d :     0.069576
      dxz     :     0.016619
      dyz     :     0.005724
      dx2y2   :     0.020027
      dxy     :     0.008926

 16 O s       :     3.506467  s :     3.506467
      pz      :     1.420892  p :     4.712771
      px      :     1.595763
      py      :     1.696116
      dz2     :     0.006366  d :     0.023715
      dxz     :     0.006255
      dyz     :     0.003861
      dx2y2   :     0.004178
      dxy     :     0.003054

 17 C s       :     2.929109  s :     2.929109
      pz      :     0.848085  p :     3.057711
      px      :     1.139950
      py      :     1.069677
      dz2     :     0.033924  d :     0.132351
      dxz     :     0.027493
      dyz     :     0.031246
      dx2y2   :     0.022859
      dxy     :     0.016829

 18 C s       :     2.952315  s :     2.952315
      pz      :     1.125819  p :     3.339061
      px      :     1.141432
      py      :     1.071810
      dz2     :     0.014860  d :     0.069091
      dxz     :     0.012807
      dyz     :     0.009999
      dx2y2   :     0.017366
      dxy     :     0.014059

 19 H s       :     0.878677  s :     0.878677

 20 H s       :     0.868708  s :     0.868708

 21 H s       :     0.877013  s :     0.877013

 22 H s       :     0.890380  s :     0.890380

 23 H s       :     0.882795  s :     0.882795

 24 H s       :     0.887529  s :     0.887529

 25 H s       :     0.891194  s :     0.891194

 26 H s       :     0.870567  s :     0.870567

 27 H s       :     0.872416  s :     0.872416

 28 H s       :     0.875582  s :     0.875582

 29 H s       :     0.866362  s :     0.866362

 30 H s       :     0.859430  s :     0.859430

 31 H s       :     0.887430  s :     0.887430

 32 H s       :     0.892146  s :     0.892146

 33 H s       :     0.880877  s :     0.880877

 34 H s       :     0.869275  s :     0.869275

 35 H s       :     0.876865  s :     0.876865

 36 H s       :     0.888668  s :     0.888668

 37 H s       :     0.878165  s :     0.878165

 38 H s       :     0.868516  s :     0.868516

 39 H s       :     0.881605  s :     0.881605

 40 H s       :     0.869548  s :     0.869548


---------------------------------
LOEWDIN BOND ORDERS (THRESH 0.050000)
---------------------------------
B(  0-C ,  1-C ) :   1.1564 B(  0-C ,  2-O ) :   0.0595 B(  0-C , 19-H ) :   0.9277 
B(  0-C , 20-H ) :   0.9257 B(  0-C , 21-H ) :   0.9367 B(  1-C ,  2-O ) :   1.1000 
B(  1-C ,  3-P ) :   0.0635 B(  1-C , 22-H ) :   0.9061 B(  1-C , 23-H ) :   0.9172 
B(  2-O ,  3-P ) :   1.2404 B(  2-O ,  4-S ) :   0.0930 B(  2-O ,  5-O ) :   0.0531 
B(  2-O ,  8-S ) :   0.0693 B(  3-P ,  4-S ) :   1.7427 B(  3-P ,  5-O ) :   1.2913 
B(  3-P ,  6-C ) :   0.0683 B(  3-P ,  8-S ) :   1.0748 B(  4-S ,  5-O ) :   0.0896 
B(  4-S ,  8-S ) :   0.1021 B(  5-O ,  6-C ) :   1.0691 B(  5-O ,  7-C ) :   0.0571 
B(  6-C ,  7-C ) :   1.1554 B(  6-C , 24-H ) :   0.9186 B(  6-C , 25-H ) :   0.9068 
B(  7-C , 26-H ) :   0.9276 B(  7-C , 27-H ) :   0.9334 B(  7-C , 28-H ) :   0.9348 
B(  8-S ,  9-C ) :   1.1667 B(  8-S , 10-S ) :   0.0971 B(  9-C , 10-S ) :   1.1459 
B(  9-C , 29-H ) :   0.9250 B(  9-C , 30-H ) :   0.9224 B( 10-S , 11-P ) :   1.0734 
B( 10-S , 12-S ) :   0.1203 B( 10-S , 13-O ) :   0.0527 B( 10-S , 16-O ) :   0.0625 
B( 11-P , 12-S ) :   1.7581 B( 11-P , 13-O ) :   1.2318 B( 11-P , 14-C ) :   0.0645 
B( 11-P , 16-O ) :   1.2929 B( 11-P , 17-C ) :   0.0635 B( 12-S , 13-O ) :   0.0949 
B( 12-S , 16-O ) :   0.0722 B( 13-O , 14-C ) :   1.0910 B( 13-O , 15-C ) :   0.0610 
B( 13-O , 16-O ) :   0.0603 B( 14-C , 15-C ) :   1.1559 B( 14-C , 31-H ) :   0.9091 
B( 14-C , 32-H ) :   0.9041 B( 15-C , 33-H ) :   0.9382 B( 15-C , 34-H ) :   0.9271 
B( 15-C , 35-H ) :   0.9289 B( 16-O , 17-C ) :   1.0768 B( 16-O , 18-C ) :   0.0603 
B( 17-C , 18-C ) :   1.1583 B( 17-C , 36-H ) :   0.9105 B( 17-C , 37-H ) :   0.9165 
B( 18-C , 38-H ) :   0.9345 B( 18-C , 39-H ) :   0.9273 B( 18-C , 40-H ) :   0.9259 


------------------------------------------
LOEWDIN REDUCED ORBITAL POPULATIONS PER MO
-------------------------------------------
THRESHOLD FOR PRINTING IS 0.1%%
                      0         1         2         3         4         5   
                 -88.04780 -88.04028 -87.99125 -87.98049 -76.42747 -76.42323
                   2.00000   2.00000   2.00000   2.00000   2.00000   2.00000
                  --------  --------  --------  --------  --------  --------
 3 P  s               0.0       0.0       0.0       0.0     100.0       0.0
 4 S  s               0.0       0.0     100.0       0.0       0.0       0.0
 8 S  s             100.0       0.0       0.0       0.0       0.0       0.0
10 S  s               0.0     100.0       0.0       0.0       0.0       0.0
11 P  s               0.0       0.0       0.0       0.0       0.0     100.0
12 S  s               0.0       0.0       0.0     100.0       0.0       0.0

                      6         7         8         9        10        11   
                 -18.79451 -18.79327 -18.79097 -18.78207  -9.96342  -9.95915
                   2.00000   2.00000   2.00000   2.00000   2.00000   2.00000
                  --------  --------  --------  --------  --------  --------
 2 O  s              99.9       0.0       0.0       0.0       0.0       0.0
 5 O  s               0.0       0.0      99.9       0.0       0.0       0.0
 9 C  s               0.0       0.0       0.0       0.0      99.8       0.0
13 O  s               0.0       0.0       0.0      99.9       0.0       0.0
16 O  s               0.0      99.9       0.0       0.0       0.0       0.0
17 C  s               0.0       0.0       0.0       0.0       0.0      99.7
18 C  py              0.0       0.0       0.0       0.0       0.0       0.1

                     12        13        14        15        16        17   
                  -9.95643  -9.95373  -9.93720  -9.89086  -9.89085  -9.88619
                   2.00000   2.00000   2.00000   2.00000   2.00000   2.00000
                  --------  --------  --------  --------  --------  --------
 0 C  s               0.0       0.0       0.0       0.0       0.0      99.7
 0 C  pz              0.0       0.1       0.0       0.0       0.0       0.0
 1 C  s               0.0      99.7       0.0       0.0       0.0       0.0
 1 C  pz              0.0       0.0       0.0       0.0       0.0       0.1
 6 C  s              99.7       0.0       0.0       0.0       0.0       0.0
 7 C  s               0.0       0.0       0.0      10.7      89.0       0.0
14 C  s               0.0       0.0      99.7       0.0       0.0       0.0
18 C  s               0.0       0.0       0.0      89.0      10.7       0.0

                     18        19        20        21        22        23   
                  -9.87697  -7.69230  -7.68560  -7.63627  -7.62582  -6.42535
                   2.00000   2.00000   2.00000   2.00000   2.00000   2.00000
                  --------  --------  --------  --------  --------  --------
 2 O  px              0.0       0.0       0.0       0.0       0.0       0.1
 3 P  s               0.0       0.0       0.0       0.0       0.0      99.3
 4 S  s               0.0       0.0       0.0      99.9       0.0       0.0
 8 S  s               0.0      99.7       0.0       0.0       0.0       0.0
 9 C  py              0.0       0.1       0.0       0.0       0.0       0.0
10 S  s               0.0       0.0      99.7       0.0       0.0       0.0
12 S  s               0.0       0.0       0.0       0.0      99.9       0.0
15 C  s              99.7       0.0       0.0       0.0       0.0       0.0

                     24        25        26        27        28        29   
                  -6.42050  -5.72068  -5.71659  -5.71367  -5.71022  -5.70901
                   2.00000   2.00000   2.00000   2.00000   2.00000   2.00000
                  --------  --------  --------  --------  --------  --------
 8 S  pz              0.0      31.6      38.6       0.0       0.0      29.7
 8 S  px              0.0      30.3       4.4       0.0       0.0      65.3
 8 S  py              0.0      38.1      56.9       0.0       0.0       5.0
10 S  pz              0.0       0.0       0.0      16.2      27.3       0.0
10 S  px              0.0       0.0       0.0      74.8       0.3       0.0
10 S  py              0.0       0.0       0.0       9.0      72.4       0.0
11 P  s              99.4       0.0       0.0       0.0       0.0       0.0
16 O  px              0.2       0.0       0.0       0.0       0.0       0.0

                     30        31        32        33        34        35   
                  -5.70217  -5.66509  -5.65704  -5.65638  -5.65496  -5.64642
                   2.00000   2.00000   2.00000   2.00000   2.00000   2.00000
                  --------  --------  --------  --------  --------  --------
 4 S  pz              0.0      18.9      81.0       0.1       0.0       0.0
 4 S  px              0.0       6.4       0.8      92.9       0.0       0.0
 4 S  py              0.0      74.8      18.2       7.0       0.0       0.0
10 S  pz             56.5       0.0       0.0       0.0       0.0       0.0
10 S  px             25.0       0.0       0.0       0.0       0.0       0.0
10 S  py             18.6       0.0       0.0       0.0       0.0       0.0
12 S  pz              0.0       0.0       0.0       0.0      75.8      21.2
12 S  px              0.0       0.0       0.0       0.0       7.1      54.6
12 S  py              0.0       0.0       0.0       0.0      17.1      24.2

                     36        37        38        39        40        41   
                  -5.64576  -4.64784  -4.64729  -4.64569  -4.64340  -4.64200
                   2.00000   2.00000   2.00000   2.00000   2.00000   2.00000
                  --------  --------  --------  --------  --------  --------
 3 P  pz              0.0      22.2      25.3      52.4       0.0       0.0
 3 P  px              0.0      76.8      12.7      10.5       0.0       0.0
 3 P  py              0.0       0.9      61.9      37.1       0.0       0.0
11 P  pz              0.0       0.0       0.0       0.0       0.2      38.9
11 P  px              0.0       0.0       0.0       0.0      86.7       9.5
11 P  py              0.0       0.0       0.0       0.0      12.9      51.5
12 S  pz              3.0       0.0       0.0       0.0       0.0       0.0
12 S  px             38.3       0.0       0.0       0.0       0.0       0.0
12 S  py             58.6       0.0       0.0       0.0       0.0       0.0

                     42        43        44        45        46        47   
                  -4.64101  -0.98941  -0.98081  -0.94660  -0.93831  -0.76630
                   2.00000   2.00000   2.00000   2.00000   2.00000   2.00000
                  --------  --------  --------  --------  --------  --------
 0 C  s               0.0       0.2       0.0       0.4       0.0       0.1
 0 C  pz              0.0       0.3       0.0       0.5       0.0       0.0
 1 C  s               0.0       3.1       0.0       5.1       0.0       0.4
 1 C  pz              0.0       0.4       0.0       0.5       0.0       0.0
 1 C  px              0.0       2.8       0.0       3.5       0.0       0.0
 1 C  py              0.0       0.3       0.0       0.4       0.0       0.0
 1 C  dxz             0.0       0.1       0.0       0.1       0.0       0.0
 1 C  dx2y2           0.0       0.1       0.0       0.1       0.0       0.0
 1 C  dxy             0.0       0.1       0.0       0.1       0.0       0.0
 2 O  s               0.0      27.0       0.3      31.6       0.2       0.2
 2 O  pz              0.0       0.0       0.0       0.2       0.0       0.0
 2 O  px              0.0       0.2       0.0       0.3       0.0       0.5
 2 O  py              0.0       1.2       0.0       1.0       0.0       0.0
 3 P  s               0.0      14.0       0.1       0.0       0.0       2.4
 3 P  pz              0.0       0.6       0.0       2.8       0.0       1.5
 3 P  px              0.0       0.1       0.0       7.6       0.0       0.8
 3 P  py              0.0       4.3       0.0       0.0       0.0       0.0
 3 P  dz2             0.0       0.1       0.0       0.3       0.0       0.0
 3 P  dxz             0.0       0.6       0.0       0.1       0.0       0.2
 3 P  dyz             0.0       0.2       0.0       0.8       0.0       0.0
 3 P  dx2y2           0.0       0.0       0.0       0.1       0.0       0.0
 3 P  dxy             0.0       0.0       0.0       2.0       0.0       0.0
 4 S  s               0.0       0.3       0.0       0.0       0.0       0.3
 4 S  py              0.0       0.3       0.0       0.0       0.0       0.1
 5 O  s               0.0      29.3       0.1      28.7       0.4       0.2
 5 O  pz              0.0       0.0       0.0       0.3       0.0       1.1
 5 O  px              0.0       1.4       0.0       0.5       0.0       0.0
 5 O  py              0.0       0.4       0.0       0.1       0.0       0.1
 6 C  s               0.0       3.4       0.0       4.1       0.1       1.0
 6 C  pz              0.0       3.5       0.0       3.1       0.0       0.1
 6 C  px              0.0       0.2       0.0       0.3       0.0       0.1
 6 C  py              0.0       0.2       0.0       0.2       0.0       0.0
 6 C  dz2             0.0       0.2       0.0       0.2       0.0       0.0
 7 C  s               0.0       0.2       0.0       0.3       0.0       0.3
 7 C  pz              0.0       0.2       0.0       0.3       0.0       0.0
 7 C  px              0.0       0.1       0.0       0.2       0.0       0.1
 8 S  s               0.0       0.4       0.0       0.0       0.0      20.0
 8 S  pz              0.0       0.3       0.0       0.0       0.0       0.2
 8 S  py              0.0       0.0       0.0       0.0       0.0       2.7
 8 S  dx2y2           0.0       0.0       0.0       0.0       0.0       0.1
 9 C  s               0.0       0.0       0.0       0.0       0.0      26.4
 9 C  pz              0.0       0.0       0.0       0.0       0.0       0.9
 9 C  px              0.0       0.0       0.0       0.0       0.0       0.3
 9 C  py              0.0       0.0       0.0       0.0       0.0       1.2
10 S  s               0.0       0.0       0.3       0.0       0.0      16.6
10 S  pz              0.0       0.0       0.0       0.0       0.0       1.1
10 S  px              0.0       0.0       0.1       0.0       0.0       0.7
10 S  py              0.0       0.0       0.3       0.0       0.0       1.0
10 S  dxz             0.0       0.0       0.0       0.0       0.0       0.2
11 P  s               0.0       0.1      13.6       0.0       0.3       2.4
11 P  pz             60.8       0.0       3.8       0.0       0.2       0.3
11 P  px              3.7       0.0       0.9       0.1       6.3       1.1
11 P  py             35.4       0.0       0.0       0.0       3.9       0.9
11 P  dxz             0.0       0.0       0.1       0.0       1.6       0.0
11 P  dyz             0.0       0.0       0.0       0.0       1.1       0.0
11 P  dx2y2           0.0       0.0       0.2       0.0       0.4       0.0
11 P  dxy             0.0       0.0       0.7       0.0       0.0       0.2
[...]
 1 C  py              0.1       0.0       0.0       0.2
 1 C  dz2             0.4       0.0       0.0       0.6
 1 C  dxz             1.3       0.0       0.0       1.3
 1 C  dyz             0.1       0.0       0.0       0.1
 1 C  dx2y2           1.6       0.0       0.0       1.9
 1 C  dxy             0.9       0.0       0.0       1.2
 2 O  s               0.2       0.0       0.0       0.4
 2 O  pz              0.3       0.0       0.0       0.4
 2 O  px              2.5       0.0       0.1       3.0
 2 O  dz2             0.2       0.0       0.0       0.0
 2 O  dxz             3.7       0.0       0.1       5.5
 2 O  dyz             2.2       0.0       0.0       2.5
 2 O  dx2y2           2.8       0.0       0.1       5.0
 2 O  dxy            19.1       0.2       0.4      23.5
 3 P  s               0.8       0.0       0.0       0.1
 3 P  pz              0.0       0.0       0.0       1.0
 3 P  px              0.2       0.0       0.0       1.6
 3 P  py              0.4       0.0       0.0       0.1
 3 P  dz2             0.0       0.0       0.0       0.1
 3 P  dxz             0.2       0.0       0.0       0.1
 3 P  dyz             0.0       0.0       0.0       0.6
 3 P  dx2y2           0.1       0.0       0.0       0.4
 3 P  dxy             0.2       0.0       0.0       0.5
 5 O  s               1.6       0.0       0.0       0.1
 5 O  pz              2.8       0.0       0.1       3.0
 5 O  px              0.0       0.0       0.0       0.2
 5 O  py              0.4       0.0       0.0       0.8
 5 O  dz2            27.7       0.2       0.4       8.9
 5 O  dxz            11.0       0.1       0.4      18.2
 5 O  dyz             2.0       0.0       0.0       1.4
 5 O  dx2y2           0.2       0.0       0.0       0.0
 5 O  dxy             1.3       0.0       0.0       6.5
 6 C  s               1.1       0.0       0.0       0.5
 6 C  pz              2.1       0.0       0.0       1.0
 6 C  py              0.1       0.0       0.0       0.1
 6 C  dz2             5.6       0.0       0.1       2.7
 6 C  dxz             1.7       0.0       0.0       0.4
 6 C  dyz             0.7       0.0       0.0       0.4
 6 C  dx2y2           0.0       0.0       0.0       0.1
 6 C  dxy             0.1       0.0       0.0       0.2
 7 C  dz2             0.0       0.0       0.0       0.1
 7 C  dxz             0.2       0.0       0.0       0.2
11 P  s               0.0       0.4       0.4       0.0
11 P  pz              0.0       0.3       0.4       0.0
11 P  px              0.0       1.3       0.3       0.0
11 P  py              0.0       0.4       0.5       0.0
11 P  dxz             0.0       1.2       0.0       0.0
11 P  dyz             0.0       0.2       0.4       0.0
11 P  dx2y2           0.0       0.0       0.2       0.0
11 P  dxy             0.0       0.0       0.2       0.0
13 O  s               0.0       0.2       1.1       0.1
13 O  pz              0.0       0.1       0.3       0.0
13 O  px              0.0       0.0       0.1       0.0
13 O  py              0.0       0.1       6.1       0.1
13 O  dz2             0.0       0.3      15.1       0.2
13 O  dxz             0.0       0.7       2.0       0.0
13 O  dyz             0.0       2.1       8.1       0.1
13 O  dx2y2           0.0       0.4      38.4       1.0
13 O  dxy             0.0       0.3       5.5       0.0
14 C  s               0.0       0.0       1.9       0.0
14 C  py              0.0       0.0       3.5       0.1
14 C  dz2             0.0       0.0       2.4       0.0
14 C  dx2y2           0.0       0.0       8.8       0.3
15 C  dxy             0.0       0.0       0.2       0.0
16 O  s               0.0       0.3       0.1       0.0
16 O  pz              0.0       4.5       0.0       0.0
16 O  px              0.0       1.3       0.0       0.0
16 O  py              0.0       1.1       0.0       0.0
16 O  dz2             0.4      41.0       0.3       0.0
16 O  dxz             0.0       6.4       0.2       0.0
16 O  dyz             0.1      10.1       0.7       0.0
16 O  dx2y2           0.0       8.4       0.1       0.0
16 O  dxy             0.0       3.0       0.0       0.0
17 C  s               0.0       1.6       0.0       0.0
17 C  pz              0.0       2.3       0.0       0.0
17 C  py              0.0       0.5       0.0       0.0
17 C  dz2             0.1       5.9       0.1       0.0
17 C  dxz             0.0       0.3       0.0       0.0
17 C  dyz             0.0       3.6       0.0       0.0
17 C  dx2y2           0.0       0.1       0.0       0.0
18 C  dyz             0.0       0.1       0.0       0.0


                      *****************************
                      * MAYER POPULATION ANALYSIS *
                      *****************************

  NA   - Mulliken gross atomic population
  ZA   - Total nuclear charge
  QA   - Mulliken gross atomic charge
  VA   - Mayer's total valence
  BVA  - Mayer's bonded valence
  FA   - Mayer's free valence

  ATOM       NA         ZA         QA         VA         BVA        FA
  0 C      6.3103     6.0000    -0.3103     3.9951     3.9951    -0.0000
  1 C      6.0074     6.0000    -0.0074     4.0029     4.0029    -0.0000
  2 O      8.3874     8.0000    -0.3874     2.1600     2.1600    -0.0000
  3 P     14.3793    15.0000     0.6207     4.9595     4.9595     0.0000
  4 S     16.3243    16.0000    -0.3243     2.0517     2.0517    -0.0000
  5 O      8.3657     8.0000    -0.3657     2.1723     2.1723    -0.0000
  6 C      6.0075     6.0000    -0.0075     3.9834     3.9834    -0.0000
  7 C      6.2984     6.0000    -0.2984     4.0002     4.0002     0.0000
  8 S     16.0617    16.0000    -0.0617     2.2865     2.2865     0.0000
  9 C      6.3163     6.0000    -0.3163     3.8647     3.8647     0.0000
 10 S     16.1090    16.0000    -0.1090     2.2889     2.2889    -0.0000
 11 P     14.3861    15.0000     0.6139     4.9618     4.9618    -0.0000
 12 S     16.3126    16.0000    -0.3126     2.0184     2.0184     0.0000
 13 O      8.3827     8.0000    -0.3827     2.1649     2.1649     0.0000
 14 C      6.0200     6.0000    -0.0200     3.9752     3.9752     0.0000
 15 C      6.3037     6.0000    -0.3037     3.9968     3.9968     0.0000
 16 O      8.3654     8.0000    -0.3654     2.1685     2.1685     0.0000
 17 C      6.0453     6.0000    -0.0453     4.0183     4.0183    -0.0000
 18 C      6.2965     6.0000    -0.2965     3.9930     3.9930     0.0000
 19 H      0.8730     1.0000     0.1270     0.9782     0.9782    -0.0000
 20 H      0.8861     1.0000     0.1139     0.9546     0.9546    -0.0000
 21 H      0.8876     1.0000     0.1124     0.9624     0.9624    -0.0000
 22 H      0.8886     1.0000     0.1114     0.9850     0.9850    -0.0000
 23 H      0.8970     1.0000     0.1030     0.9492     0.9492    -0.0000
 24 H      0.8978     1.0000     0.1022     0.9537     0.9537    -0.0000
 25 H      0.8961     1.0000     0.1039     0.9895     0.9895    -0.0000
 26 H      0.8909     1.0000     0.1091     0.9522     0.9522     0.0000
 27 H      0.8626     1.0000     0.1374     0.9622     0.9622    -0.0000
 28 H      0.8793     1.0000     0.1207     0.9666     0.9666    -0.0000
 29 H      0.8210     1.0000     0.1790     0.9516     0.9516     0.0000
 30 H      0.8057     1.0000     0.1943     0.9418     0.9418    -0.0000
 31 H      0.8921     1.0000     0.1079     0.9813     0.9813     0.0000
 32 H      0.8856     1.0000     0.1144     0.9862     0.9862    -0.0000
 33 H      0.8958     1.0000     0.1042     0.9576     0.9576    -0.0000
 34 H      0.8880     1.0000     0.1120     0.9555     0.9555     0.0000
 35 H      0.8757     1.0000     0.1243     0.9803     0.9803     0.0000
 36 H      0.8771     1.0000     0.1229     0.9792     0.9792    -0.0000
 37 H      0.8884     1.0000     0.1116     0.9469     0.9469    -0.0000
 38 H      0.8754     1.0000     0.1246     0.9573     0.9573     0.0000
 39 H      0.8673     1.0000     0.1327     0.9683     0.9683     0.0000
 40 H      0.8894     1.0000     0.1106     0.9552     0.9552     0.0000

  Mayer bond orders larger than 0.100000
B(  0-C ,  1-C ) :   1.1629 B(  0-C , 19-H ) :   0.9360 B(  0-C , 20-H ) :   0.9387 
B(  0-C , 21-H ) :   0.9465 B(  1-C ,  2-O ) :   0.9163 B(  1-C , 22-H ) :   0.9135 
B(  1-C , 23-H ) :   0.9336 B(  2-O ,  3-P ) :   1.0605 B(  3-P ,  4-S ) :   1.6364 
B(  3-P ,  5-O ) :   1.1234 B(  3-P ,  8-S ) :   0.9663 B(  5-O ,  6-C ) :   0.8992 
B(  6-C ,  7-C ) :   1.1634 B(  6-C , 24-H ) :   0.9315 B(  6-C , 25-H ) :   0.9109 
B(  7-C , 26-H ) :   0.9375 B(  7-C , 27-H ) :   0.9371 B(  7-C , 28-H ) :   0.9466 
B(  8-S ,  9-C ) :   0.9996 B(  9-C , 10-S ) :   0.9856 B(  9-C , 29-H ) :   0.9038 
B(  9-C , 30-H ) :   0.9017 B( 10-S , 11-P ) :   0.9756 B( 10-S , 12-S ) :   0.1049 
B( 11-P , 12-S ) :   1.6352 B( 11-P , 13-O ) :   1.0631 B( 11-P , 16-O ) :   1.1207 
B( 13-O , 14-C ) :   0.8996 B( 14-C , 15-C ) :   1.1604 B( 14-C , 31-H ) :   0.9214 
B( 14-C , 32-H ) :   0.9114 B( 15-C , 33-H ) :   0.9480 B( 15-C , 34-H ) :   0.9412 
B( 15-C , 35-H ) :   0.9364 B( 16-O , 17-C ) :   0.8997 B( 17-C , 18-C ) :   1.1674 
B( 17-C , 36-H ) :   0.9084 B( 17-C , 37-H ) :   0.9326 B( 18-C , 38-H ) :   0.9451 
B( 18-C , 39-H ) :   0.9341 B( 18-C , 40-H ) :   0.9386 

-------
TIMINGS
-------

Total SCF time: 0 days 0 hours 0 min 17 sec 

Total time                  ....      17.556 sec
Sum of individual times     ....      17.066 sec  ( 97.2%)

SCF preparation             ....       0.221 sec  (  1.3%)
Fock matrix formation       ....      15.684 sec  ( 89.3%)
  Startup                   ....       0.066 sec  (  0.4% of F)
  Split-RI-J                ....       9.416 sec  ( 60.0% of F)
  XC integration            ....       5.721 sec  ( 36.5% of F)
    Basis function eval.    ....       2.185 sec  ( 38.2% of XC)
    Density eval.           ....       1.143 sec  ( 20.0% of XC)
    XC-Functional eval.     ....       0.409 sec  (  7.2% of XC)
    XC-Potential eval.      ....       1.280 sec  ( 22.4% of XC)
Diagonalization             ....       0.000 sec  (  0.0%)
Density matrix formation    ....       0.229 sec  (  1.3%)
Total Energy calculation    ....       0.031 sec  (  0.2%)
Population analysis         ....       0.202 sec  (  1.1%)
Orbital Transformation      ....       0.093 sec  (  0.5%)
Orbital Orthonormalization  ....       0.000 sec  (  0.0%)
DIIS solution               ....       0.480 sec  (  2.7%)
  MO trafo                  ....       0.000 sec  (  0.0 % of DIIS)
  Orb grad                  ....       0.000 sec  (  0.0 % of DIIS)
  Energy W gradient         ....       0.000 sec  (  0.0 % of DIIS)
  DIIS error                ....       0.022 sec  (  4.6 % of DIIS)
  DIIS work                 ....       0.386 sec  ( 80.3 % of DIIS)
  Form Q                    ....       0.000 sec  (  0.0 % of DIIS)
  Form QpQm                 ....       0.000 sec  (  0.0 % of DIIS)
  Exp/Cayley                ....       0.000 sec  (  0.0 % of DIIS)
  Orb update                ....       0.000 sec  (  0.0 % of DIIS)
  Wake-sleep                ....       0.024 sec  (  5.0 % of DIIS)
SOSCF solution              ....       0.126 sec  (  0.7%)
  MO trafo                  ....       0.073 sec  ( 57.9 % of SOSCF)
  Orb grad                  ....       0.003 sec  (  2.4 % of SOSCF)
  Rot update                ....       0.012 sec  (  9.6 % of SOSCF)
  Step                      ....       0.038 sec  ( 29.9 % of SOSCF)
Finished LeanSCF after  17.6 sec

Maximum memory used throughout the entire LEANSCF-calculation: 35.6 MB


-------------------------------------------------------------------------------
                          DFT DISPERSION CORRECTION                            
                                                                               
                                DFTD4 V3.4.0                                   
-------------------------------------------------------------------------------
The PBE functional is recognized
Active option DFTDOPT                   ...         5   

-------------------------   ----------------
Dispersion correction           -0.067774739
-------------------------   ----------------

------------------   -----------------
gCP correction             0.186095190
------------------   -----------------

-------------------------   --------------------
FINAL SINGLE POINT ENERGY     -2929.517301072635
-------------------------   --------------------


------------------------------------------------------------------------------
                              ORCA PROPERTY CALCULATIONS
------------------------------------------------------------------------------

GBWName                                 ... sp.gbw
Number of atoms                         ...     41
Number of basis functions               ...    334
Max core memory                         ...   1024 MB

Electric properties:
Dipole moment                           ... YES
Quadrupole moment                       ...  NO
Static polarizability (Dipole/Dipole)   ...  NO
Static polarizability (Dipole/Quad.)    ...  NO
Static polarizability (Quad./Quad.)     ...  NO
Static polarizability (Velocity)        ...  NO

Atomic electric properties:
Dipole moment                           ...  NO
Quadrupole moment                       ...  NO
Static polarizability                   ...  NO

Choice of electric origin               ... Center of mass
Position of electric origin             ...     0.000001    -0.000000     0.000004

General magnetic properties:
Magnetizability                         ...  NO

EPR properties:
g-Tensor (aka g-matrix)                 ...  NO
Zero-Field splitting spin-orbit         ...  NO
Zero-field splitting spin-spin          ...  NO
Hyperfine couplings                     ...  NO (   0 nuclei)
Quadrupole couplings                    ...  NO (   0 nuclei)
Contact density                         ...  NO (   0 nuclei)

NMR properties:
Chemical shifts                         ...  NO (   0 nuclei)
Spin-rotation constants                 ...  NO (   0 nuclei)
Spin-spin couplings                     ...  NO (   0 nuclei,    0 pairs)

Choice of magnetic origin               ... GIAO
Position of magnetic origin             ...     0.000000     0.000000     0.000000

Properties with geometric perturbations:
SCF Hessian                             ...  NO
IR spectrum                             ...  NO
VCD spectrum                            ...  NO
X-ray spectroscopy properties:
SCF XES/XAS/RIXS spectra                ...  NO


-------------
DIPOLE MOMENT
-------------

Method             : SCF
Type of density    : Electron Density
Multiplicity       :   1
Irrep              :   0
Energy             : -2929.6356215237251490 Eh
Relativity type    : 
Basis              : AO
                                X                 Y                 Z
Electronic contribution:      0.119926580       3.590415975     -14.335569467
Nuclear contribution   :      0.623588865      -4.798082977      15.587395630
                        -----------------------------------------
Total Dipole Moment    :      0.743515445      -1.207667002       1.251826163
                        -----------------------------------------
Magnitude (a.u.)       :      1.891651011
Magnitude (Debye)      :      4.808194757



--------------------
Rotational spectrum 
--------------------
 
Rotational constants in cm-1:             0.011748             0.005651             0.005323 
Rotational constants in MHz :           352.210268           169.405598           159.586496 

Dipole components along the rotational axes: 
x,y,z [a.u.] :     0.514170    -1.730930    -0.563786 
x,y,z [Debye]:     1.306915    -4.399674    -1.433031 

 

Dipole moment calculation done in   0.0 sec 

Maximum memory used throughout the entire PROP-calculation: 24.7 MB

--------------------------------
SUGGESTED CITATIONS FOR THIS RUN
--------------------------------

Below you find a list of papers that are relevant to this ORCA run
We neither can nor want to force you to cite these papers, but we appreciate if you do
You receive ORCA, which is the product of decades of hard work by many enthusiastic individuals, for free
The only thing we kindly ask in return is that you cite our papers,
We deeply appreciate it, if you show your appreciation for ORCA by not just citing the generic ORCA reference.

Please note that relegating all ORCA citations to the supporting information does *not* help us.
SI sections are not indexed - citations you put there will not count into any citation statistics
But we need these citations in order to attract the funding resources that allow us to do what we are doing

Therefore, if you are a happy ORCA user, please consider citing a few of the papers listed below in the main body of your paper

In addition to the list printed below, the program has created the file sp.bibtex that contains the list in bibtex format
You can import this file easily into all common literature databanks and citation aid programs


List of essential papers. We consider these as the minimum necessary citations

  1. Neese,F.
     Software update: the ORCA program system, version 5.0
     WIRES Comput. Molec. Sci., 2022 12(1)e1606
     doi.org/10.1002/wcms.1606

List of papers to cite with high priority. The work reported in these papers was absolutely
necessary for this run to complete.
Our perspective: the developers of density functionals and basis sets usually get cited in chemistry papers
Good! But without the algorithms to do something with them, the functionals or basis sets would not do anything.
Hence, in our opinion, the algorithm design and method developments papers are equally worthy of getting cited

  1. Neese,F.
     An improvement of the resolution of the identity approximation for the formation of the Coulomb matrix
     J. Comp. Chem., 2003 24(14)1740-1747
     doi.org/10.1002/jcc.10318
  2. Neese,F.
     The SHARK Integral Generation and Digestion System
     J. Comp. Chem., 2022  1-16
     doi.org/10.1002/jcc.26942
  3. Caldeweyher,E.; Bannwarth,C.; Grimme,S.
     Extension of the D3 dispersion coefficient model
     J. Chem. Phys., 2017 147 034112-XXXX
     doi.org/10.1063/1.4993215
  4. Caldeweyher,E.; Ehlert,S.; Hansen,A.; Neugebauer,H.; Spicher,S.; Bannwarth,C.; Grimme,S.
     A generally applicable atomic-charge dependent London dispersion correction
     J. Chem. Phys., 2019 150 154122-XXXX
     doi.org/10.1063/1.5090222
  5. Caldeweyher,E.; Mewes,J.; Ehlert,S.; Grimme,S.
     Extension and evaluation of the D4 London-dispersion model for periodic systems
     Phys. Chem. Chem. Phys., 2020 22(16)8499-8512
     doi.org/10.1039/D0CP00502A

List of suggested additional citations. These are papers that are important in the 'surrounding' of 
of this run, or papers that preceded the highly important papers. If you like your results we are grateful for a citation.

  1. Neese,F.
     The ORCA program system
     WIRES Comput. Molec. Sci., 2012 2(1)73-78
     doi.org/10.1002/wcms.81
  2. Neese,F.
     Software update: the ORCA program system, version 4.0
     WIRES Comput. Molec. Sci., 2018 8(1)1-6
     doi.org/10.1002/wcms.1327
  3. Neese,F.; Wennmohs,F.; Becker,U.; Riplinger,C.
     The ORCA quantum chemistry program package
     J. Chem. Phys., 2020 152 Art. No. L224108
     doi.org/10.1063/5.0004608

List of optional additional citations

  1. Neese,F.
     Approximate second-order SCF convergence for spin unrestricted wavefunctions
     Chem. Phys. Lett., 2000 325(1-3)93-98
     doi.org/10.1016/s0009-2614(00)00662-x

Timings for individual modules:

Sum of individual times          ...       21.311 sec (=   0.355 min)
Startup calculation              ...        1.559 sec (=   0.026 min)   7.3 %
SCF iterations                   ...       19.641 sec (=   0.327 min)  92.2 %
Property calculations            ...        0.111 sec (=   0.002 min)   0.5 %
                             ****ORCA TERMINATED NORMALLY****
TOTAL RUN TIME: 0 days 0 hours 0 minutes 22 seconds 67 msec
