
                                 *****************
                                 * O   R   C   A *
                                 *****************

                                            #,                                       
                                            ###                                      
                                            ####                                     
                                            #####                                    
                                            ######                                   
                                           ########,                                 
                                     ,,################,,,,,                         
                               ,,#################################,,                 
                          ,,##########################################,,             
                       ,#########################################, ''#####,          
                    ,#############################################,,   '####,        
                  ,##################################################,,,,####,       
                ,###########''''           ''''###############################       
              ,#####''   ,,,,##########,,,,          '''####'''          '####       
            ,##' ,,,,###########################,,,                        '##       
           ' ,,###''''                  '''############,,,                           
         ,,##''                                '''############,,,,        ,,,,,,###''
      ,#''                                            '''#######################'''  
     '                                                          ''''####''''         
             ,#######,   #######,   ,#######,      ##                                
            ,#'     '#,  ##    ##  ,#'     '#,    #''#        ,####,   ,####,        
            ##       ##  ##   ,#'  ##            #'  '#       #'       #'  '#        
            ##       ##  #######   ##           ,######,      #####,   #    #        
            '#,     ,#'  ##    ##  '#,     ,#' ,#      #,     #,   #   #,  ,#        
             '#######'   ##     ##  '#######'  #'      '#     '####' # '####'        



                #########################################################
                #                        -***-                          #
                #          Department of theory and spectroscopy        #
                #                                                       #
                #                      Frank Neese                      #
                #                                                       #
                #     Directorship, Architecture, Infrastructure        #
                #                    SHARK, DRIVERS                     #
                #        Core code/Algorithms in most modules           #
                #                                                       #
                #        Max Planck Institute fuer Kohlenforschung      #
                #                Kaiser Wilhelm Platz 1                 #
                #                 D-45470 Muelheim/Ruhr                 #
                #                      Germany                          #
                #                                                       #
                #                  All rights reserved                  #
                #                        -***-                          #
                #########################################################


                         Program Version 6.0.0  -   RELEASE  -


 With contributions from (in alphabetic order):
   Daniel Aravena         : Magnetic Suceptibility
   Michael Atanasov       : Ab Initio Ligand Field Theory (pilot matlab implementation)
   Alexander A. Auer      : GIAO ZORA, VPT2 properties, NMR spectrum
   Ute Becker             : All parallelization in ORCA, NUMFREQ, NUMCALC
   Giovanni Bistoni       : ED, misc. LED, open-shell LED, HFLD
   Martin Brehm           : Molecular dynamics
   Dmytro Bykov           : pre 5.0 version of the SCF Hessian
   Marcos Casanova-Páez   : Triplet and SCS-CIS(D). UHF-(DLPNO)-IP/EA/STEOM-CCSD. UHF-CVS-IP/STEOM-CCSD
   Vijay G. Chilkuri      : MRCI spin determinant printing, contributions to CSF-ICE
   Pauline Colinet        : FMM embedding
   Dipayan Datta          : RHF DLPNO-CCSD density
   Achintya Kumar Dutta   : EOM-CC, STEOM-CC
   Nicolas Foglia         : Exact transition moments, OPA infrastructure, MCD improvements
   Dmitry Ganyushin       : Spin-Orbit,Spin-Spin,Magnetic field MRCI
   Miquel Garcia          : C-PCM and meta-GGA Hessian, CCSD/C-PCM, Gaussian charge scheme
   Tiago L. C. Gouveia    : GS-ROHF, GS-ROCIS
   Yang Guo               : DLPNO-NEVPT2, F12-NEVPT2, CIM, IAO-localization
   Andreas Hansen         : Spin unrestricted coupled pair/coupled cluster methods
   Ingolf Harden          : AUTO-CI MPn and infrastructure 
   Benjamin Helmich-Paris : MC-RPA, TRAH-(SCF,CASSCF), AVAS, COSX integrals, SCF dyn. polar.
   Lee Huntington         : MR-EOM, pCC
   Robert Izsak           : Overlap fitted RIJCOSX, COSX-SCS-MP3, EOM
   Riya Kayal             : Wick's Theorem for AUTO-CI, AUTO-CI UHF-CCSDT
   Emily Kempfer          : AUTO-CI, RHF CISDT and CCSDT
   Christian Kollmar      : KDIIS, OOCD, Brueckner-CCSD(T), CCSD density, CASPT2, CASPT2-K, improved NEVPT2
   Axel Koslowski         : Symmetry handling
   Simone Kossmann        : Meta GGA functionals, TD-DFT gradient, OOMP2, (MP2 Hessian; deprecated post 5.0)
   Lucas Lang             : DCDCAS
   Marvin Lechner         : AUTO-CI (C++ implementation), FIC-MRCC
   Spencer Leger          : CASSCF response
   Dagmar Lenk            : GEPOL surface, SMD, ORCA-2-JSON
   Dimitrios Liakos       : Extrapolation schemes; Compound Job, initial MDCI parallelization
   Dimitrios Manganas     : Further ROCIS development; embedding schemes. LFT, Crystal Embedding
   Dimitrios Pantazis     : SARC Basis sets
   Anastasios Papadopoulos: AUTO-CI, single reference methods and gradients
   Taras Petrenko         : pre 6.0 DFT Hessian and TD-DFT gradient, (ASA, deprecated), ECA, 1-Electron XAS/XES, NRVS
   Peter Pinski           : DLPNO-MP2, DLPNO-MP2 Gradient
   Christoph Reimann      : Effective Core Potentials
   Marius Retegan         : Local ZFS, SOC
   Christoph Riplinger    : Optimizer, TS searches, QM/MM, DLPNO-CCSD(T), (RO)-DLPNO pert. Triples
   Michael Roemelt        : Original ROCIS implementation
   Masaaki Saitow         : Open-shell DLPNO-CCSD energy and density
   Barbara Sandhoefer     : DKH picture change effects
   Kantharuban Sivalingam : CASSCF convergence/infrastructure, NEVPT2 and variants, FIC-MRCI
   Bernardo de Souza      : ESD, SOC TD-DFT
   Georgi Stoychev        : AutoAux, RI-MP2 NMR, DLPNO-MP2 response, X2C
   Van Anh Tran           : RI-MP2 g-tensors
   Willem Van den Heuvel  : Paramagnetic NMR
   Zikuan Wang            : NOTCH, Electric field optimization 
   Frank Wennmohs         : Technical directorship and infrastructure
   Hang Xu                : AUTO-CI-Response properties 


 We gratefully acknowledge several colleagues who have allowed us to
 interface, adapt or use parts of their codes:
   Stefan Grimme, W. Hujo, H. Kruse, P. Pracht,  : VdW corrections, initial TS optimization,
                  C. Bannwarth, S. Ehlert,         DFT functionals, gCP, sTDA/sTD-DF
                  L. Wittmann, M. Mueller
   Ed Valeev, F. Pavosevic, A. Kumar             : LibInt (2-el integral package), F12 methods
   Garnet Chan, S. Sharma, J. Yang, R. Olivares  : DMRG
   Ulf Ekstrom                                   : XCFun DFT Library
   Mihaly Kallay                                 : mrcc  (arbitrary order and MRCC methods)
   Frank Weinhold                                : gennbo (NPA and NBO analysis)
   Simon Mueller                                 : openCOSMO-RS
   Christopher J. Cramer and Donald G. Truhlar   : smd solvation model
   Lars Goerigk                                  : TD-DFT with DH, B97 family of functionals
   V. Asgeirsson, H. Jonsson                     : NEB implementation
   FAccTs GmbH                                   : IRC, NEB, NEB-TS, DLPNO-Multilevel, CI-OPT
                                                   MM, QMMM, 2- and 3-layer-ONIOM, Crystal-QMMM,
                                                   LR-CPCM, SF, NACMEs, symmetry and pop. for TD-DFT,
                                                   nearIR, NL-DFT gradient (VV10), updates on ESD,
                                                   ML-optimized integration grids, MBIS, APM,
                                                   GOAT, DOCKER, SOLVATOR, interface openCOSMO-RS
   S Lehtola, MJT Oliveira, MAL Marques          : LibXC Library
   Liviu Ungur et al                             : ANISO software


 Your calculation uses the libint2 library for the computation of 2-el integrals
 For citations please refer to: http://libint.valeyev.net

 Your ORCA version has been built with support for libXC version: 6.2.2
 For citations please refer to: https://libxc.gitlab.io

 This ORCA versions uses:
   CBLAS   interface :  Fast vector & matrix operations
   LAPACKE interface :  Fast linear algebra routines
   SCALAPACK package :  Parallel linear algebra routines
   Shared memory     :  Shared parallel matrices
   BLAS/LAPACK       :  OpenBLAS 0.3.27  USE64BITINT DYNAMIC_ARCH NO_AFFINITY SkylakeX SINGLE_THREADED
        Core in use  :  SkylakeX
   Copyright (c) 2011-2014, The OpenBLAS Project


Your calculation utilizes the geometrical counterpoise correction gCP
Please cite in your paper:
H.Kruse, S. Grimme J.Chem.Phys., 136, (2012), 154101 
   

Your calculation utilizes the atom-pairwise dispersion correction
based on EEQ partial charges (D4)


================================================================================

----- Orbital basis set information -----
Your calculation utilizes the basis: def2-SV(P)
   F. Weigend and R. Ahlrichs, Phys. Chem. Chem. Phys. 7, 3297 (2005).

----- AuxJ basis set information -----
Your calculation utilizes the auxiliary basis: def2/J
   F. Weigend, Phys. Chem. Chem. Phys. 8, 1057 (2006).

================================================================================
                                        WARNINGS
                       Please study these warnings very carefully!
================================================================================


================================================================================
                                       INPUT FILE
================================================================================
NAME = sp.inp
|  1> ! pbe def2-sv(p) def2/J RI DEFGRID1 loosescf d4 GCP(DFT/SV(P)) printgap
|  2> %output
|  3>     printlevel normal
|  4> end
|  5> * xyz 0 1
|  6> C 0.6182277407 1.7003743704 -0.0143008931
|  7> C 1.3986863877 0.4006099179 -0.2689980059
|  8> H 1.5801058979 0.2974187382 -1.3454959513
|  9> C 0.5424622681 -0.7857938586 0.2172437552
| 10> H 0.3466778654 -0.6798999946 1.2915186819
| 11> C -0.8021273768 -0.7416978812 -0.5348972404
| 12> H -0.6229250121 -0.841061212 -1.6109608842
| 13> C -1.4709420099 0.6256937753 -0.2762659407
| 14> H -2.3621205736 0.7177802064 -0.9124878921
| 15> O -0.6419620596 1.6903802103 -0.6695071528
| 16> O -1.8019748146 0.6804681513 1.0765856641
| 17> O -1.658347596 -1.7944814077 -0.1922118459
| 18> O 1.1970663714 -2.0202201793 0.0940267131
| 19> O 2.6727865494 0.4311017376 0.3176208961
| 20> H 1.1537670692 2.5570200545 -0.4224928206
| 21> H 0.477036419 1.8338608411 1.065660855
| 22> H -2.3728058557 1.442813028 1.2546321683
| 23> H -1.8989884199 -1.7118915715 0.7435151692
| 24> H 1.3823845162 -2.2079615327 -0.8366422646
| 25> H 2.594605801 0.3778022051 1.2811533907
| 26> *
| 27> 
| 28>                          ****END OF INPUT****
================================================================================

                       ****************************
                       * Single Point Calculation *
                       ****************************

---------------------------------
CARTESIAN COORDINATES (ANGSTROEM)
---------------------------------
  C      0.618228    1.700374   -0.014301
  C      1.398686    0.400610   -0.268998
  H      1.580106    0.297419   -1.345496
  C      0.542462   -0.785794    0.217244
  H      0.346678   -0.679900    1.291519
  C     -0.802127   -0.741698   -0.534897
  H     -0.622925   -0.841061   -1.610961
  C     -1.470942    0.625694   -0.276266
  H     -2.362121    0.717780   -0.912488
  O     -0.641962    1.690380   -0.669507
  O     -1.801975    0.680468    1.076586
  O     -1.658348   -1.794481   -0.192212
  O      1.197066   -2.020220    0.094027
  O      2.672787    0.431102    0.317621
  H      1.153767    2.557020   -0.422493
  H      0.477036    1.833861    1.065661
  H     -2.372806    1.442813    1.254632
  H     -1.898988   -1.711892    0.743515
  H      1.382385   -2.207962   -0.836642
  H      2.594606    0.377802    1.281153

----------------------------
CARTESIAN COORDINATES (A.U.)
----------------------------
  NO LB      ZA    FRAG     MASS         X           Y           Z
   0 C     6.0000    0    12.011    1.168281    3.213242   -0.027025
   1 C     6.0000    0    12.011    2.643134    0.757043   -0.508333
   2 H     1.0000    0     1.008    2.985967    0.562040   -2.542619
   3 C     6.0000    0    12.011    1.025105   -1.484935    0.410531
   4 H     1.0000    0     1.008    0.655126   -1.284825    2.440617
   5 C     6.0000    0    12.011   -1.515801   -1.401606   -1.010809
   6 H     1.0000    0     1.008   -1.177158   -1.589375   -3.044275
   7 C     6.0000    0    12.011   -2.779678    1.182390   -0.522067
   8 H     1.0000    0     1.008   -4.463761    1.356408   -1.724352
   9 O     8.0000    0    15.999   -1.213132    3.194356   -1.265185
  10 O     8.0000    0    15.999   -3.405239    1.285898    2.034452
  11 O     8.0000    0    15.999   -3.133823   -3.391078   -0.363228
  12 O     8.0000    0    15.999    2.262128   -3.817663    0.177685
  13 O     8.0000    0    15.999    5.050835    0.814664    0.600217
  14 H     1.0000    0     1.008    2.180304    4.832068   -0.798396
  15 H     1.0000    0     1.008    0.901468    3.465495    2.013807
  16 H     1.0000    0     1.008   -4.483953    2.726521    2.370911
  17 H     1.0000    0     1.008   -3.588568   -3.235006    1.405040
  18 H     1.0000    0     1.008    2.612328   -4.172443   -1.581025
  19 H     1.0000    0     1.008    4.903094    0.713943    2.421029

--------------------------------
INTERNAL COORDINATES (ANGSTROEM)
--------------------------------
 C      0   0   0     0.000000000000     0.00000000     0.00000000
 C      1   0   0     1.537326884865     0.00000000     0.00000000
 H      2   1   0     1.096544246576   109.03846923     0.00000000
 C      2   1   3     1.541786208952   108.44568212   241.17934757
 H      4   2   1     1.097092366626   109.49035287   299.47386458
 C      4   2   1     1.541292264841   107.97215762    57.57333962
 H      6   4   2     1.095399253482   109.51584663    61.05278394
 C      6   4   2     1.544008777468   108.75251441   302.75183602
 H      8   6   4     1.098843717111   109.18002639   172.56552406
 O      8   6   4     1.405490524253   111.62390165    57.35845563
 O      8   6   4     1.393840168263   107.47314728   293.61764469
 O      6   4   2     1.399606908043   113.12144646   178.79835227
 O      4   2   1     1.402675056012   112.97473285   183.17932847
 O      2   1   3     1.402990630509   111.92461070   115.97474554
 H      1   2   3     1.089616836385   110.67810877   303.66761658
 H      1   2   3     1.097301692582   109.34353618   182.77303110
 H     11   8   6     0.968874783536   110.43892665   190.80259626
 H     12   6   4     0.969697960170   108.90592988    64.16128412
 H     13   4   2     0.967333642867   110.16480289   297.19827471
 H     14   2   1     0.968167308752   109.97374101    70.78979907

---------------------------
INTERNAL COORDINATES (A.U.)
---------------------------
 C      0   0   0     0.000000000000     0.00000000     0.00000000
 C      1   0   0     2.905126790709     0.00000000     0.00000000
 H      2   1   0     2.072168319756   109.03846923     0.00000000
 C      2   1   3     2.913553691977   108.44568212   241.17934757
 H      4   2   1     2.073204116539   109.49035287   299.47386458
 C      4   2   1     2.912620272880   107.97215762    57.57333962
 H      6   4   2     2.070004596384   109.51584663    61.05278394
 C      6   4   2     2.917753737786   108.75251441   302.75183602
 H      8   6   4     2.076513689320   109.18002639   172.56552406
 O      8   6   4     2.655992174660   111.62390165    57.35845563
 O      8   6   4     2.633976192476   107.47314728   293.61764469
 O      6   4   2     2.644873751345   113.12144646   178.79835227
 O      4   2   1     2.650671710745   112.97473285   183.17932847
 O      2   1   3     2.651268060120   111.92461070   115.97474554
 H      1   2   3     2.059077411677   110.67810877   303.66761658
 H      1   2   3     2.073599685268   109.34353618   182.77303110
 H     11   8   6     1.830907998945   110.43892665   190.80259626
 H     12   6   4     1.832463577344   108.90592988    64.16128412
 H     13   4   2     1.827995665146   110.16480289   297.19827471
 H     14   2   1     1.829571065356   109.97374101    70.78979907

---------------------
BASIS SET INFORMATION
---------------------
There are 3 groups of distinct atoms

 Group   1 Type C   : 7s4p1d contracted to 3s2p1d pattern {511/31/1}
 Group   2 Type H   : 4s contracted to 2s pattern {31}
 Group   3 Type O   : 7s4p1d contracted to 3s2p1d pattern {511/31/1}

Atom   0C    basis set group =>   1
Atom   1C    basis set group =>   1
Atom   2H    basis set group =>   2
Atom   3C    basis set group =>   1
Atom   4H    basis set group =>   2
Atom   5C    basis set group =>   1
Atom   6H    basis set group =>   2
Atom   7C    basis set group =>   1
Atom   8H    basis set group =>   2
Atom   9O    basis set group =>   3
Atom  10O    basis set group =>   3
Atom  11O    basis set group =>   3
Atom  12O    basis set group =>   3
Atom  13O    basis set group =>   3
Atom  14H    basis set group =>   2
Atom  15H    basis set group =>   2
Atom  16H    basis set group =>   2
Atom  17H    basis set group =>   2
Atom  18H    basis set group =>   2
Atom  19H    basis set group =>   2
---------------------------------
AUXILIARY/J BASIS SET INFORMATION
---------------------------------
There are 3 groups of distinct atoms

 Group   1 Type C   : 12s5p4d2f1g contracted to 6s4p3d1f1g pattern {711111/2111/211/2/1}
 Group   2 Type H   : 5s2p1d contracted to 3s1p1d pattern {311/2/1}
 Group   3 Type O   : 12s5p4d2f1g contracted to 6s4p3d1f1g pattern {711111/2111/211/2/1}

Atom   0C    basis set group =>   1
Atom   1C    basis set group =>   1
Atom   2H    basis set group =>   2
Atom   3C    basis set group =>   1
Atom   4H    basis set group =>   2
Atom   5C    basis set group =>   1
Atom   6H    basis set group =>   2
Atom   7C    basis set group =>   1
Atom   8H    basis set group =>   2
Atom   9O    basis set group =>   3
Atom  10O    basis set group =>   3
Atom  11O    basis set group =>   3
Atom  12O    basis set group =>   3
Atom  13O    basis set group =>   3
Atom  14H    basis set group =>   2
Atom  15H    basis set group =>   2
Atom  16H    basis set group =>   2
Atom  17H    basis set group =>   2
Atom  18H    basis set group =>   2
Atom  19H    basis set group =>   2
------------------------------------------------------------------------------
                             ORCA STARTUP CALCULATIONS
                           -- RI-GTO INTEGRALS CHOSEN --
------------------------------------------------------------------------------
------------------------------------------------------------------------------
                   ___                                                        
                  /   \      - P O W E R E D   B Y -                         
                 /     \                                                     
                 |  |  |   _    _      __       _____    __    __             
                 |  |  |  | |  | |    /  \     |  _  \  |  |  /  |          
                  \  \/   | |  | |   /    \    | | | |  |  | /  /          
                 / \  \   | |__| |  /  /\  \   | |_| |  |  |/  /          
                |  |  |   |  __  | /  /__\  \  |    /   |      \           
                |  |  |   | |  | | |   __   |  |    \   |  |\   \          
                \     /   | |  | | |  |  |  |  | |\  \  |  | \   \       
                 \___/    |_|  |_| |__|  |__|  |_| \__\ |__|  \__/        
                                                                              
                      - O R C A' S   B I G   F R I E N D -                    
                                      &                                       
                       - I N T E G R A L  F E E D E R -                       
                                                                              
 v1 FN, 2020, v2 2021, v3 2022-2024                                           
------------------------------------------------------------------------------


----------------------
SHARK INTEGRAL PACKAGE
----------------------

Number of atoms                             ...     20
Number of basis functions                   ...    160
Number of shells                            ...     80
Maximum angular momentum                    ...      2
Integral batch strategy                     ... SHARK/LIBINT Hybrid
RI-J (if used) integral strategy            ... SPLIT-RIJ (Revised 2003 algorithm where possible)
Printlevel                                  ...      1
Contraction scheme used                     ... SEGMENTED contraction
Prescreening option                         ... SCHWARTZ
   Thresh                                   ... 1.000e-09
   Tcut                                     ... 1.000e-10
   Tpresel                                  ... 1.000e-10 
Coulomb Range Separation                    ... NOT USED
Exchange Range Separation                   ... NOT USED
Multipole approximations                    ... NOT USED
Finite Nucleus Model                        ... NOT USED
CABS basis                                  ... NOT available
Auxiliary Coulomb fitting basis             ... AVAILABLE
   # of basis functions in Aux-J            ...    600
   # of shells in Aux-J                     ...    200
   Maximum angular momentum in Aux-J        ...      4
Auxiliary J/K fitting basis                 ... NOT available
Auxiliary Correlation fitting basis         ... NOT available
Auxiliary 'external' fitting basis          ... NOT available

Checking pre-screening integrals            ... done (  0.0 sec) Dimension = 80
Check shell pair data                       ... done (  0.0 sec)
Shell pair information
Shell pair cut-off parameter TPreSel        ...   1.0e-10
Total number of shell pairs                 ...      3240
Shell pairs after pre-screening             ...      3027
Total number of primitive shell pairs       ...     13040
Primitive shell pairs kept                  ...      8475
          la=0 lb=0:   1180 shell pairs
          la=1 lb=0:    952 shell pairs
          la=1 lb=1:    206 shell pairs
          la=2 lb=0:    450 shell pairs
          la=2 lb=1:    190 shell pairs
          la=2 lb=2:     49 shell pairs

Calculating one electron integrals          ... done (  0.0 sec)
Calculating RI/J V-Matrix + Cholesky decomp.... done (  0.1 sec)
Calculating Nuclear repulsion               ... done (  0.0 sec) ENN=    623.123337756853 Eh

Diagonalization of the overlap matrix:
Smallest eigenvalue                        ... 9.011e-04
Time for diagonalization                   ...    0.002 sec
Threshold for overlap eigenvalues          ... 1.000e-07
Number of eigenvalues below threshold      ... 0
Time for construction of square roots      ...    0.020 sec
Total time needed                          ...    0.037 sec

-------------------
DFT GRID GENERATION
-------------------

General Integration Accuracy     IntAcc      ... 4.159
Radial Grid Type                 RadialGrid  ... OptM3 with GC (2021)
Angular Grid (max. ang.)         AngularGrid ... 3 (Lebedev-194)
Angular grid pruning method      GridPruning ... 4 (adaptive)
Weight generation scheme         WeightScheme... mBecke (2022)
Basis function cutoff            BFCut       ... 1.0000e-10
Integration weight cutoff        WCut        ... 1.0000e-14
Partially contracted basis set               ... off
Rotationally invariant grid construction     ... off
Angular grids for H and He will be reduced by one unit

Total number of grid points                  ...    46538
Total number of batches                      ...      737
Average number of points per batch           ...       63
Average number of grid points per atom       ...     2327
Initializing property integral containers    ... done (  0.1 sec)

SHARK setup successfully completed in   0.8 seconds

Maximum memory used throughout the entire STARTUP-calculation: 23.3 MB
-------------------------------------------------------------------------------
                                 ORCA GUESS
                   Start orbitals & Density for SCF / CASSCF
-------------------------------------------------------------------------------

------------
SCF SETTINGS
------------
Hamiltonian:
 Density Functional     Method          .... DFT(GTOs)
 Exchange Functional    Exchange        .... PBE
   PBE kappa parameter   XKappa         ....  0.804000
   PBE mue parameter    XMuePBE         ....  0.219520
 Correlation Functional Correlation     .... PBE
   PBE beta parameter  CBetaPBE         ....  0.066725
 LDA part of GGA corr.  LDAOpt          .... PW91-LDA
 Gradients option       PostSCFGGA      .... off
   NL short-range parameter             ....  6.400000
 RI-approximation to the Coulomb term is turned on
   Number of AuxJ basis functions       .... 600


General Settings:
 Integral files         IntName         .... sp
 Hartree-Fock type      HFTyp           .... RHF
 Total Charge           Charge          ....    0
 Multiplicity           Mult            ....    1
 Number of Electrons    NEL             ....   80
 Basis Dimension        Dim             ....  160
 Nuclear Repulsion      ENuc            ....    623.1233377569 Eh

Convergence Acceleration:
 AO-DIIS                CNVDIIS         .... on
   Start iteration      DIISMaxIt       ....    12
   Startup error        DIISStart       ....  0.200000
   # of expansion vecs  DIISMaxEq       ....     5
   Bias factor          DIISBfac        ....   1.050
   Max. coefficient     DIISMaxC        ....  10.000
 MO-DIIS                CNVKDIIS        .... off
 Trust-Rad. Augm. Hess. CNVTRAH         .... auto
   Auto Start mean grad. ratio tolernc. ....  1.125000
   Auto Start start iteration           ....    50
   Auto Start num. interpolation iter.  ....    10
   Max. Number of Micro iterations      ....    24
   Max. Number of Macro iterations      .... Maxiter - #DIIS iter
   Number of Davidson start vectors     ....     2
   Converg. threshold    (grad. norm)   ....   1.000e-04
   Grad. Scal. Fac. for Micro threshold ....   0.100
   Minimum threshold for Micro iter.    ....   1.000e-02
   NR start threshold (gradient norm)   ....   1.000e-04
   Initial trust radius                 ....   0.400
   Minimum AH scaling param. (alpha)    ....   1.000
   Maximum AH scaling param. (alpha)    .... 1000.000
   Quad. conv. algorithm                .... NR
   White noise on init. David. guess    .... on
   Maximum white noise                  ....   0.010
   Pseudo random numbers                .... off
   Inactive MOs                         .... canonical
   Orbital update algorithm             .... Taylor
   Preconditioner                       .... Diag
   Full preconditioner red. dimension   ....   250
 SOSCF                  CNVSOSCF        .... on
   Start iteration      SOSCFMaxIt      ....   150
   Startup grad/error   SOSCFStart      ....  0.003300
   Hessian update       SOSCFHessUp     .... L-BFGS
 Level Shifting         CNVShift        .... on
   Level shift para.    LevelShift      ....    0.2500
   Turn off err/grad.   ShiftErr        ....    0.0010
 Zerner damping         CNVZerner       .... off
 Static damping         CNVDamp         .... on
   Fraction old density DampFac         ....    0.7000
   Max. Damping (<1)    DampMax         ....    0.9800
   Min. Damping (>=0)   DampMin         ....    0.0000
   Turn off err/grad.   DampErr         ....    0.1000

SCF Procedure:
 Maximum # iterations   MaxIter         ....   125
 SCF integral mode      SCFMode         .... Direct
   Integral package                     .... SHARK and LIBINT hybrid scheme
 Reset frequency        DirectResetFreq ....    20
 Integral Threshold     Thresh          ....  1.000e-09 Eh
 Primitive CutOff       TCut            ....  1.000e-10 Eh

Convergence Tolerance:
 Convergence Check Mode ConvCheckMode   .... Total+1el-Energy
 Convergence forced     ConvForced      .... 0
 Energy Change          TolE            ....  1.000e-05 Eh
 1-El. energy change                    ....  1.000e-02 Eh
 Orbital Gradient       TolG            ....  1.000e-04
 Orbital Rotation angle TolX            ....  1.000e-04
 DIIS Error             TolErr          ....  5.000e-04

------------------------------
INITIAL GUESS: MODEL POTENTIAL
------------------------------
Loading Hartree-Fock densities                     ... done
Calculating cut-offs                               ... done
Initializing the effective Hamiltonian             ... done
Setting up the integral package (SHARK)            ... done
Starting the Coulomb interaction                   ... done (   0.2 sec)
Making the grid                                    ... done (   0.2 sec)
Mapping shells                                     ... done
Starting the XC term evaluation                    ... done (   0.2 sec)
  promolecular density results
     # of electrons  =     79.997264249
     EX              =    -69.360197139
     EC              =     -2.720951822
     EX+EC           =    -72.081148961
Transforming the Hamiltonian                       ... done (   0.0 sec)
Diagonalizing the Hamiltonian                      ... done (   0.0 sec)
Back transforming the eigenvectors                 ... done (   0.0 sec)
Now organizing SCF variables                       ... done
                      ------------------
                      INITIAL GUESS DONE (   0.6 sec)
                      ------------------
             **** ENERGY FILE WAS UPDATED (sp.en.tmp) ****
Finished Guess after   0.9 sec
Maximum memory used throughout the entire GUESS-calculation: 18.1 MB

-------------------------------------------------------------------------------------------
                                      ORCA LEAN-SCF
                              memory conserving SCF solver
-------------------------------------------------------------------------------------------

----------------------------------------D-I-I-S--------------------------------------------
Iteration    Energy (Eh)           Delta-E    RMSDP     MaxDP     DIISErr   Damp  Time(sec)
-------------------------------------------------------------------------------------------
               ***  Starting incremental Fock matrix formation  ***
    1    -571.2691803699769935     0.00e+00  5.14e-03  1.09e-01  2.38e-01  0.700   1.1
    2    -571.3944615978737147    -1.25e-01  3.37e-03  7.96e-02  9.57e-02  0.700   1.1
                               ***Turning on AO-DIIS***
    3    -571.4344345834877004    -4.00e-02  1.23e-03  2.38e-02  1.97e-02  0.700   1.1
    4    -571.4610348634173533    -2.66e-02  1.58e-03  2.12e-02  1.05e-02  0.000   1.1
    5    -571.5222244182341456    -6.12e-02  4.92e-04  1.32e-02  5.65e-03  0.000   1.0
                              *** Initializing SOSCF ***
---------------------------------------S-O-S-C-F--------------------------------------
Iteration    Energy (Eh)           Delta-E    RMSDP     MaxDP     MaxGrad    Time(sec)
--------------------------------------------------------------------------------------
    6    -571.5225043806933627    -2.80e-04  1.55e-04  3.90e-03  1.17e-03     0.9
               *** Restarting incremental Fock matrix formation ***
    7    -571.5225279788594435    -2.36e-05  1.13e-04  2.33e-03  1.58e-04     1.0
    8    -571.5225266487393583     1.33e-06  4.09e-05  6.05e-04  3.18e-04     0.9
                 **** Energy Check signals convergence ****

               *****************************************************
               *                     SUCCESS                       *
               *           SCF CONVERGED AFTER   8 CYCLES          *
               *****************************************************

             **** ENERGY FILE WAS UPDATED (sp.en.tmp) ****

----------------
TOTAL SCF ENERGY
----------------

Total Energy       :       -571.52252664873936 Eh          -15551.91859 eV

Components:
Nuclear Repulsion  :        623.12333775685261 Eh           16956.04805 eV
Electronic Energy  :      -1194.64586440559196 Eh          -32507.96664 eV
One Electron Energy:      -2020.53699572219784 Eh          -54981.60686 eV
Two Electron Energy:        825.89113131660588 Eh           22473.64022 eV

Virial components:
Potential Energy   :      -1139.11758217976785 Eh          -30996.96527 eV
Kinetic Energy     :        567.59505553102849 Eh           15445.04667 eV
Virial Ratio       :          2.00691949494528

DFT components:
N(Alpha)           :       40.000537795473 electrons
N(Beta)            :       40.000537795473 electrons
N(Total)           :       80.001075590945 electrons
E(X)               :      -70.502968835889 Eh       
E(C)               :       -2.733518145040 Eh       
E(XC)              :      -73.236486980929 Eh       

---------------
SCF CONVERGENCE
---------------

  Last Energy change         ...   -1.3301e-06  Tolerance :   1.0000e-05
  Last MAX-Density change    ...    6.0507e-04  Tolerance :   1.0000e-03
  Last RMS-Density change    ...    4.0889e-05  Tolerance :   1.0000e-04
  Last DIIS Error            ...    1.1679e-03  Tolerance :   5.0000e-04
  Last Orbital Gradient      ...    3.1787e-04  Tolerance :   1.0000e-04
  Last Orbital Rotation      ...    1.5980e-04  Tolerance :   1.0000e-04


----------------
ORBITAL ENERGIES
----------------

  NO   OCC          E(Eh)            E(eV) 
   0   2.0000     -18.780162      -511.0342 
   1   2.0000     -18.771248      -510.7916 
   2   2.0000     -18.751340      -510.2499 
   3   2.0000     -18.746998      -510.1317 
   4   2.0000     -18.746022      -510.1052 
   5   2.0000      -9.988878      -271.8112 
   6   2.0000      -9.942775      -270.5567 
   7   2.0000      -9.941900      -270.5328 
   8   2.0000      -9.939819      -270.4762 
   9   2.0000      -9.934746      -270.3382 
  10   2.0000      -0.988686       -26.9035 
  11   2.0000      -0.940110       -25.5817 
  12   2.0000      -0.930887       -25.3307 
  13   2.0000      -0.918266       -24.9873 
  14   2.0000      -0.911604       -24.8060 
  15   2.0000      -0.699112       -19.0238 
  16   2.0000      -0.680445       -18.5158 
  17   2.0000      -0.585480       -15.9317 
  18   2.0000      -0.578834       -15.7509 
  19   2.0000      -0.555520       -15.1165 
  20   2.0000      -0.499629       -13.5956 
  21   2.0000      -0.492754       -13.4085 
  22   2.0000      -0.460474       -12.5301 
  23   2.0000      -0.442393       -12.0381 
  24   2.0000      -0.428991       -11.6734 
  25   2.0000      -0.416107       -11.3228 
  26   2.0000      -0.412062       -11.2128 
  27   2.0000      -0.373912       -10.1747 
  28   2.0000      -0.365421        -9.9436 
  29   2.0000      -0.350806        -9.5459 
  30   2.0000      -0.336235        -9.1494 
  31   2.0000      -0.316226        -8.6049 
  32   2.0000      -0.287726        -7.8294 
  33   2.0000      -0.283937        -7.7263 
  34   2.0000      -0.277022        -7.5381 
  35   2.0000      -0.264002        -7.1839 
  36   2.0000      -0.250941        -6.8285 
  37   2.0000      -0.234200        -6.3729 
  38   2.0000      -0.207118        -5.6360 
  39   2.0000      -0.202017        -5.4972 
  40   0.0000       0.011830         0.3219 
  41   0.0000       0.025122         0.6836 
  42   0.0000       0.030277         0.8239 
  43   0.0000       0.049020         1.3339 
  44   0.0000       0.071829         1.9546 
  45   0.0000       0.074941         2.0392 
  46   0.0000       0.089605         2.4383 
  47   0.0000       0.106899         2.9089 
  48   0.0000       0.109454         2.9784 
  49   0.0000       0.118350         3.2205 
  50   0.0000       0.128534         3.4976 
*Only the first 10 virtual orbitals were printed.

                    ********************************
                    * MULLIKEN POPULATION ANALYSIS *
                    ********************************

-----------------------
MULLIKEN ATOMIC CHARGES
-----------------------
   0 C :    0.082067
   1 C :    0.004793
   2 H :    0.058263
   3 C :    0.038123
   4 H :    0.052284
   5 C :    0.065737
   6 H :    0.064434
   7 C :    0.140594
   8 H :    0.072238
   9 O :   -0.311751
  10 O :   -0.410391
  11 O :   -0.412180
  12 O :   -0.397543
  13 O :   -0.406038
  14 H :    0.100682
  15 H :    0.048777
  16 H :    0.313586
  17 H :    0.300723
  18 H :    0.296634
  19 H :    0.298968
Sum of atomic charges:   -0.0000000

--------------------------------
MULLIKEN REDUCED ORBITAL CHARGES
--------------------------------
  0 C s       :     3.002976  s :     3.002976
      pz      :     0.986861  p :     2.854715
      px      :     0.800305
      py      :     1.067548
      dz2     :     0.015310  d :     0.060242
      dxz     :     0.013082
      dyz     :     0.005224
      dx2y2   :     0.012493
      dxy     :     0.014134

  1 C s       :     3.053745  s :     3.053745
      pz      :     1.046768  p :     2.872103
      px      :     0.834869
      py      :     0.990466
      dz2     :     0.016443  d :     0.069360
      dxz     :     0.012855
      dyz     :     0.005781
      dx2y2   :     0.014491
      dxy     :     0.019789

  2 H s       :     0.941737  s :     0.941737

  3 C s       :     3.057745  s :     3.057745
      pz      :     1.085115  p :     2.834878
      px      :     0.935391
      py      :     0.814372
      dz2     :     0.015323  d :     0.069255
      dxz     :     0.007810
      dyz     :     0.009142
      dx2y2   :     0.018509
      dxy     :     0.018471

  4 H s       :     0.947716  s :     0.947716

  5 C s       :     3.026383  s :     3.026383
      pz      :     1.059124  p :     2.839348
      px      :     0.909547
      py      :     0.870678
      dz2     :     0.016011  d :     0.068531
      dxz     :     0.009088
      dyz     :     0.007129
      dx2y2   :     0.018850
      dxy     :     0.017453

  6 H s       :     0.935566  s :     0.935566

  7 C s       :     3.021460  s :     3.021460
      pz      :     0.801547  p :     2.737921
      px      :     1.009018
      py      :     0.927356
      dz2     :     0.025469  d :     0.100025
      dxz     :     0.024490
      dyz     :     0.017269
      dx2y2   :     0.016208
      dxy     :     0.016589

  8 H s       :     0.927762  s :     0.927762

  9 O s       :     3.756884  s :     3.756884
      pz      :     1.682311  p :     4.539238
      px      :     1.293618
      py      :     1.563310
      dz2     :     0.002206  d :     0.015629
      dxz     :     0.003725
      dyz     :     0.002518
      dx2y2   :     0.003688
      dxy     :     0.003492

 10 O s       :     3.778040  s :     3.778040
      pz      :     1.398032  p :     4.617411
      px      :     1.671810
      py      :     1.547569
      dz2     :     0.005680  d :     0.014940
      dxz     :     0.001844
      dyz     :     0.001948
      dx2y2   :     0.000888
      dxy     :     0.004581

 11 O s       :     3.786630  s :     3.786630
      pz      :     1.359326  p :     4.609960
      px      :     1.652374
      py      :     1.598261
      dz2     :     0.006869  d :     0.015589
      dxz     :     0.001414
      dyz     :     0.001783
      dx2y2   :     0.002194
      dxy     :     0.003330

 12 O s       :     3.780128  s :     3.780128
      pz      :     1.378990  p :     4.601928
      px      :     1.757506
      py      :     1.465431
      dz2     :     0.007375  d :     0.015488
      dxz     :     0.001284
      dyz     :     0.001878
      dx2y2   :     0.002306
      dxy     :     0.002644

 13 O s       :     3.783369  s :     3.783369
      pz      :     1.251741  p :     4.607164
      px      :     1.461264
      py      :     1.894158
      dz2     :     0.007320  d :     0.015505
      dxz     :     0.002315
      dyz     :     0.000462
      dx2y2   :     0.003316
      dxy     :     0.002092

 14 H s       :     0.899318  s :     0.899318

 15 H s       :     0.951223  s :     0.951223

 16 H s       :     0.686414  s :     0.686414

 17 H s       :     0.699277  s :     0.699277

 18 H s       :     0.703366  s :     0.703366

 19 H s       :     0.701032  s :     0.701032


------------------------
MULLIKEN OVERLAP CHARGES
------------------------
B(  0-C ,  1-C ) :   0.3657 B(  0-C ,  3-C ) :  -0.0962 B(  0-C ,  5-C ) :   0.0572 
B(  0-C ,  7-C ) :  -0.1891 B(  0-C ,  9-O ) :   0.5486 B(  0-C , 13-O ) :  -0.0851 
B(  0-C , 14-H ) :   0.6593 B(  0-C , 15-H ) :   0.6284 B(  1-C ,  2-H ) :   0.6023 
B(  1-C ,  3-C ) :   0.4038 B(  1-C ,  4-H ) :  -0.0644 B(  1-C ,  5-C ) :  -0.1185 
B(  1-C ,  7-C ) :   0.0961 B(  1-C ,  9-O ) :  -0.0730 B(  1-C , 12-O ) :  -0.1016 
B(  1-C , 13-O ) :   0.6234 B(  1-C , 19-H ) :  -0.1155 B(  2-H ,  3-C ) :  -0.0737 
B(  2-H , 13-O ) :  -0.0702 B(  3-C ,  4-H ) :   0.6042 B(  3-C ,  5-C ) :   0.2520 
B(  3-C ,  6-H ) :  -0.0552 B(  3-C , 11-O ) :  -0.0907 B(  3-C , 12-O ) :   0.7139 
B(  3-C , 13-O ) :  -0.0677 B(  3-C , 18-H ) :  -0.1235 B(  4-H , 12-O ) :  -0.0785 
B(  5-C ,  6-H ) :   0.6155 B(  5-C ,  7-C ) :   0.1875 B(  5-C ,  8-H ) :  -0.0599 
B(  5-C ,  9-O ) :  -0.0879 B(  5-C , 10-O ) :  -0.1267 B(  5-C , 11-O ) :   0.6116 
B(  5-C , 12-O ) :  -0.0922 B(  5-C , 17-H ) :  -0.1312 B(  6-H , 11-O ) :  -0.0671 
B(  7-C ,  8-H ) :   0.6800 B(  7-C ,  9-O ) :   0.6431 B(  7-C , 10-O ) :   0.6131 
B(  8-H ,  9-O ) :  -0.0726 B(  8-H , 10-O ) :  -0.0633 B(  9-O , 10-O ) :  -0.1362 
B(  9-O , 15-H ) :  -0.0656 B( 10-O , 16-H ) :   0.5067 B( 11-O , 17-H ) :   0.5484 
B( 12-O , 18-H ) :   0.5416 B( 13-O , 19-H ) :   0.5399 B( 14-H , 15-H ) :  -0.0784 



                     *******************************
                     * LOEWDIN POPULATION ANALYSIS *
                     *******************************

----------------------
LOEWDIN ATOMIC CHARGES
----------------------
   0 C :   -0.130123
   1 C :   -0.089059
   2 H :    0.111245
   3 C :   -0.089956
   4 H :    0.109701
   5 C :   -0.089564
   6 H :    0.115891
   7 C :   -0.012919
   8 H :    0.100940
   9 O :   -0.157815
  10 O :   -0.309768
  11 O :   -0.308537
  12 O :   -0.307424
  13 O :   -0.308816
  14 H :    0.119871
  15 H :    0.095695
  16 H :    0.295415
  17 H :    0.283404
  18 H :    0.286035
  19 H :    0.285783

-------------------------------
LOEWDIN REDUCED ORBITAL CHARGES
-------------------------------
  0 C s       :     2.931860  s :     2.931860
      pz      :     1.071312  p :     3.060252
      px      :     0.892541
      py      :     1.096399
      dz2     :     0.036954  d :     0.138012
      dxz     :     0.028830
      dyz     :     0.010292
      dx2y2   :     0.027344
      dxy     :     0.034591

  1 C s       :     2.894989  s :     2.894989
      pz      :     1.058508  p :     3.032760
      px      :     0.909848
      py      :     1.064405
      dz2     :     0.038504  d :     0.161310
      dxz     :     0.027381
      dyz     :     0.011732
      dx2y2   :     0.032347
      dxy     :     0.051346

  2 H s       :     0.888755  s :     0.888755

  3 C s       :     2.892837  s :     2.892837
      pz      :     1.099933  p :     3.035261
      px      :     1.017986
      py      :     0.917342
      dz2     :     0.035899  d :     0.161857
      dxz     :     0.019350
      dyz     :     0.017948
      dx2y2   :     0.043894
      dxy     :     0.044766

  4 H s       :     0.890299  s :     0.890299

  5 C s       :     2.897036  s :     2.897036
      pz      :     1.082547  p :     3.032438
      px      :     0.998119
      py      :     0.951773
      dz2     :     0.037395  d :     0.160090
      dxz     :     0.021191
      dyz     :     0.014250
      dx2y2   :     0.045895
      dxy     :     0.041359

  6 H s       :     0.884109  s :     0.884109

  7 C s       :     2.887873  s :     2.887873
      pz      :     0.899202  p :     2.899720
      px      :     1.021050
      py      :     0.979467
      dz2     :     0.060986  d :     0.225326
      dxz     :     0.054599
      dyz     :     0.033895
      dx2y2   :     0.035470
      dxy     :     0.040376

  8 H s       :     0.899060  s :     0.899060

  9 O s       :     3.476386  s :     3.476386
      pz      :     1.708259  p :     4.651211
      px      :     1.351663
      py      :     1.591289
      dz2     :     0.003564  d :     0.030218
      dxz     :     0.007309
      dyz     :     0.003591
      dx2y2   :     0.007922
      dxy     :     0.007832

 10 O s       :     3.530432  s :     3.530432
      pz      :     1.474588  p :     4.752478
      px      :     1.691593
      py      :     1.586297
      dz2     :     0.011137  d :     0.026858
      dxz     :     0.003649
      dyz     :     0.003310
      dx2y2   :     0.001328
      dxy     :     0.007434

 11 O s       :     3.531252  s :     3.531252
      pz      :     1.433466  p :     4.749886
      px      :     1.680421
      py      :     1.635999
      dz2     :     0.012189  d :     0.027399
      dxz     :     0.002660
      dyz     :     0.002916
      dx2y2   :     0.003421
      dxy     :     0.006214

 12 O s       :     3.533636  s :     3.533636
      pz      :     1.457512  p :     4.746516
      px      :     1.768507
      py      :     1.520497
      dz2     :     0.012857  d :     0.027272
      dxz     :     0.002011
      dyz     :     0.003303
      dx2y2   :     0.004107
      dxy     :     0.004993

 13 O s       :     3.534041  s :     3.534041
      pz      :     1.338599  p :     4.747510
      px      :     1.524465
      py      :     1.884445
      dz2     :     0.013151  d :     0.027266
      dxz     :     0.004681
      dyz     :     0.000875
      dx2y2   :     0.005614
      dxy     :     0.002944

 14 H s       :     0.880129  s :     0.880129

 15 H s       :     0.904305  s :     0.904305

 16 H s       :     0.704585  s :     0.704585

 17 H s       :     0.716596  s :     0.716596

 18 H s       :     0.713965  s :     0.713965

 19 H s       :     0.714217  s :     0.714217


---------------------------------
LOEWDIN BOND ORDERS (THRESH 0.050000)
---------------------------------
B(  0-C ,  1-C ) :   1.0485 B(  0-C ,  3-C ) :   0.0600 B(  0-C ,  7-C ) :   0.0661 
B(  0-C ,  9-O ) :   1.1507 B(  0-C , 13-O ) :   0.0905 B(  0-C , 14-H ) :   0.9132 
B(  0-C , 15-H ) :   0.9023 B(  1-C ,  2-H ) :   0.8717 B(  1-C ,  3-C ) :   1.0191 
B(  1-C ,  5-C ) :   0.0629 B(  1-C ,  9-O ) :   0.0671 B(  1-C , 12-O ) :   0.0785 
B(  1-C , 13-O ) :   1.2361 B(  3-C ,  4-H ) :   0.8650 B(  3-C ,  5-C ) :   1.0125 
B(  3-C ,  7-C ) :   0.0575 B(  3-C , 11-O ) :   0.0757 B(  3-C , 12-O ) :   1.2449 
B(  3-C , 13-O ) :   0.0731 B(  5-C ,  6-H ) :   0.8714 B(  5-C ,  7-C ) :   1.0087 
B(  5-C ,  9-O ) :   0.0682 B(  5-C , 10-O ) :   0.0574 B(  5-C , 11-O ) :   1.2476 
B(  5-C , 12-O ) :   0.0775 B(  7-C ,  8-H ) :   0.8852 B(  7-C ,  9-O ) :   1.2023 
B(  7-C , 10-O ) :   1.2507 B(  7-C , 11-O ) :   0.0857 B(  9-O , 10-O ) :   0.0935 
B( 10-O , 16-H ) :   0.8747 B( 11-O , 17-H ) :   0.8763 B( 12-O , 18-H ) :   0.8826 
B( 13-O , 19-H ) :   0.8830 

------------------------------------------
LOEWDIN REDUCED ORBITAL POPULATIONS PER MO
-------------------------------------------
THRESHOLD FOR PRINTING IS 0.1%%
                      0         1         2         3         4         5   
                 -18.78016 -18.77125 -18.75134 -18.74700 -18.74602  -9.98888
                   2.00000   2.00000   2.00000   2.00000   2.00000   2.00000
                  --------  --------  --------  --------  --------  --------
 7 C  s               0.0       0.0       0.0       0.0       0.0      99.6
 9 O  s               0.0      99.9       0.0       0.0       0.0       0.0
10 O  s              99.9       0.0       0.0       0.0       0.0       0.0
10 O  pz              0.0       0.0       0.0       0.0       0.0       0.1
11 O  s               0.0       0.0       0.0      99.9       0.0       0.0
12 O  s               0.0       0.0       0.0       0.0      99.9       0.0
13 O  s               0.0       0.0      99.9       0.0       0.0       0.0

                      6         7         8         9        10        11   
                  -9.94278  -9.94190  -9.93982  -9.93475  -0.98869  -0.94011
                   2.00000   2.00000   2.00000   2.00000   2.00000   2.00000
                  --------  --------  --------  --------  --------  --------
 0 C  s               0.0       0.0       0.0      99.6       3.5       0.3
 0 C  pz              0.0       0.0       0.0       0.0       0.5       0.0
 0 C  px              0.0       0.0       0.0       0.0       2.9       0.5
 0 C  py              0.0       0.1       0.0       0.0       0.1       0.4
 0 C  dxz             0.0       0.0       0.0       0.0       0.1       0.0
 0 C  dx2y2           0.0       0.0       0.0       0.0       0.1       0.0
 1 C  s               0.1      99.5       0.0       0.0       0.6       6.8
 1 C  pz              0.0       0.0       0.0       0.0       0.0       1.2
 1 C  px              0.0       0.0       0.0       0.0       0.2       1.8
 1 C  py              0.0       0.0       0.1       0.1       0.1       0.5
 1 C  dxz             0.0       0.0       0.0       0.0       0.0       0.2
 1 C  dx2y2           0.0       0.0       0.0       0.0       0.0       0.1
 2 H  s               0.0       0.1       0.0       0.0       0.1       0.9
 3 C  s               0.0       0.0      99.6       0.0       0.6       7.8
 3 C  pz              0.0       0.0       0.0       0.0       0.1       0.3
 3 C  px              0.1       0.0       0.0       0.0       0.1       1.2
 3 C  py              0.0       0.1       0.0       0.0       0.1       1.5
 3 C  dz2             0.0       0.0       0.0       0.0       0.0       0.1
 4 H  s               0.0       0.0       0.1       0.0       0.2       1.0
 5 C  s              99.5       0.1       0.0       0.0       2.4       2.3
 5 C  pz              0.0       0.0       0.0       0.0       0.3       0.3
 5 C  px              0.0       0.0       0.1       0.0       0.3       0.2
 5 C  py              0.0       0.0       0.0       0.0       0.8       1.1
 6 H  s               0.1       0.0       0.0       0.0       0.3       0.3
 7 C  s               0.0       0.0       0.0       0.0      16.0       0.2
 7 C  pz              0.0       0.0       0.0       0.0       2.3       0.4
 7 C  px              0.0       0.0       0.0       0.0       0.6       0.1
 7 C  py              0.1       0.0       0.0       0.0       1.5       0.5
 7 C  dz2             0.0       0.0       0.0       0.0       0.1       0.0
 7 C  dxz             0.0       0.0       0.0       0.0       0.2       0.0
 7 C  dxy             0.0       0.0       0.0       0.0       0.2       0.0
 8 H  s               0.0       0.0       0.0       0.0       1.9       0.0
 9 O  s               0.0       0.0       0.0       0.0      22.9       0.1
 9 O  pz              0.0       0.0       0.0       0.0       0.9       0.0
 9 O  py              0.0       0.0       0.0       0.0       1.2       0.0
10 O  s               0.0       0.0       0.0       0.0      27.1       2.8
10 O  pz              0.0       0.0       0.0       0.0       1.8       0.1
10 O  py              0.0       0.0       0.0       0.0       0.5       0.1
11 O  s               0.0       0.0       0.0       0.0       1.6       6.2
11 O  px              0.0       0.0       0.0       0.0       0.0       0.1
11 O  py              0.1       0.0       0.0       0.0       0.1       0.3
12 O  s               0.0       0.0       0.0       0.0       0.2      22.6
12 O  pz              0.0       0.0       0.0       0.0       0.0       0.6
12 O  px              0.0       0.0       0.0       0.0       0.0       0.1
12 O  py              0.0       0.0       0.1       0.0       0.0       0.8
13 O  s               0.0       0.0       0.0       0.0       0.2      22.9
13 O  pz              0.0       0.0       0.0       0.0       0.0       0.2
13 O  px              0.0       0.1       0.0       0.0       0.0       1.3
14 H  s               0.0       0.0       0.0       0.1       0.4       0.1
15 H  s               0.0       0.0       0.0       0.1       0.6       0.0
16 H  s               0.0       0.0       0.0       0.0       5.2       0.6
17 H  s               0.0       0.0       0.0       0.0       0.5       1.2
18 H  s               0.0       0.0       0.0       0.0       0.1       4.6
19 H  s               0.0       0.0       0.0       0.0       0.1       4.7

                     12        13        14        15        16        17   
                  -0.93089  -0.91827  -0.91160  -0.69911  -0.68044  -0.58548
                   2.00000   2.00000   2.00000   2.00000   2.00000   2.00000
                  --------  --------  --------  --------  --------  --------
 0 C  s               3.1       2.1       0.2       2.9      16.6       6.6
 0 C  pz              0.4       0.7       0.0       0.0       0.1       0.1
 0 C  px              0.6       3.1       0.0       1.5       0.3       2.2
 0 C  py              0.1       0.1       0.0       2.4       0.0       0.1
 0 C  dxz             0.1       0.1       0.0       0.0       0.0       0.1
 0 C  dx2y2           0.1       0.1       0.0       0.1       0.0       0.0
 1 C  s               2.8       0.9       0.7      11.4       4.0       0.4
 1 C  pz              0.4       0.5       0.2       0.0       0.0       0.6
 1 C  px              1.0       3.5       1.3       5.3       0.8       0.2
 1 C  py              0.4       0.0       0.6       0.2       2.6       7.1
 1 C  dxz             0.1       0.1       0.1       0.1       0.0       0.0
 1 C  dx2y2           0.1       0.1       0.1       0.0       0.0       0.0
 1 C  dxy             0.0       0.0       0.0       0.0       0.1       0.1
 2 H  s               0.3       0.1       0.1       2.5       0.9       0.3
 3 C  s               0.4       0.3       2.9      14.1       0.2      11.9
 3 C  pz              0.0       0.1       0.0       0.5       0.1       1.9
 3 C  px              0.8       0.2       1.7       1.0       1.7       0.0
 3 C  py              1.2       0.4       4.5       5.5       0.2       0.0
 3 C  dx2y2           0.0       0.0       0.2       0.0       0.0       0.0
 3 C  dxy             0.0       0.0       0.3       0.1       0.0       0.0
 4 H  s               0.1       0.0       0.3       3.0       0.0       5.2
 5 C  s               4.7       1.0       1.8       8.6       7.0       0.9
 5 C  pz              0.7       0.0       0.1       0.2       0.1       1.3
 5 C  px              1.7       0.0       2.8       3.5       0.0       4.8
 5 C  py              3.1       0.3       1.2       1.5       3.3       1.6
 5 C  dxy             0.2       0.0       0.2       0.0       0.1       0.0
 6 H  s               0.5       0.2       0.2       1.9       1.7       0.6
 7 C  s               0.0       0.0       0.0       0.4      13.2       4.4
 7 C  pz              1.5       6.1       0.5       0.0       2.1       0.1
 7 C  px              1.1       3.3       0.1       0.6       0.2       0.7
 7 C  py              3.1       0.7       0.3       4.3       0.7       3.9
 7 C  dz2             0.1       0.7       0.1       0.0       0.1       0.0
 7 C  dxy             0.2       0.2       0.0       0.2       0.0       0.1
 8 H  s               0.0       0.0       0.0       0.0       3.4       1.6
 9 O  s              11.9      19.3       0.2       3.9       0.0       2.8
 9 O  pz              0.2       0.3       0.0       0.0       0.3       0.2
 9 O  px              0.3       0.3       0.0       0.6      11.0       0.6
 9 O  py              0.2       0.3       0.0       0.1       3.4       0.1
10 O  s               4.9      23.9       2.2       0.1       2.0       0.3
10 O  pz              0.1       0.2       0.0       0.1       3.1       4.1
10 O  px              0.1       0.3       0.0       0.2       1.0       1.0
10 O  py              0.0       0.5       0.1       0.3       0.9       2.4
11 O  s              26.2       4.2      19.8       2.6       2.1       0.2
11 O  pz              0.4       0.1       0.4       0.7       0.9       0.9
11 O  px              0.2       0.0       0.1       0.7       0.4       0.0
11 O  py              1.0       0.1       0.6       0.5       0.7       0.8
12 O  s               1.8       1.6      32.1       3.7       0.1       1.7
12 O  pz              0.1       0.0       1.0       0.8       0.0       5.2
12 O  px              0.0       0.0       0.1       0.5       0.0       2.2
12 O  py              0.0       0.0       0.6       1.6       0.0       6.3
12 O  dz2             0.0       0.0       0.0       0.0       0.0       0.1
13 O  s              12.5      13.8       8.9       3.2       1.3       0.0
13 O  pz              0.1       0.2       0.1       1.5       0.8       0.8
13 O  px              0.6       0.5       0.3       1.0       0.5       0.1
13 O  py              0.0       0.0       0.0       0.0       0.0       0.4
14 H  s               0.4       0.2       0.0       0.4       4.1       2.8
15 H  s               0.3       0.1       0.0       0.7       3.4       1.9
16 H  s               0.9       4.9       0.5       0.2       1.9       2.1
17 H  s               5.4       0.7       3.8       1.1       1.1       0.4
18 H  s               0.4       0.3       6.5       1.6       0.0       4.7
19 H  s               2.5       2.7       1.8       1.4       0.7       0.3

                     18        19        20        21        22        23   
                  -0.57883  -0.55552  -0.49963  -0.49275  -0.46047  -0.44239
                   2.00000   2.00000   2.00000   2.00000   2.00000   2.00000
                  --------  --------  --------  --------  --------  --------
 0 C  s               2.5       1.8       3.8       0.2       0.0       0.1
 0 C  pz              0.1       1.8       3.1       2.8      12.3       0.5
 0 C  px              1.7       0.0       4.9       0.7       0.1       1.2
 0 C  py              3.4       0.2       1.2       3.8       1.4       0.8
 0 C  dxz             0.0       0.0       0.1       0.0       0.1       0.0
 0 C  dx2y2           0.0       0.0       0.1       0.1       0.0       0.0
 1 C  s              10.5       1.6       0.1       0.0       0.1       1.3
 1 C  pz              1.2       3.3       2.4       1.6       3.7       0.1
 1 C  px              0.6       1.0       0.0      10.4       0.3       7.0
 1 C  py              0.6       0.2       2.4       0.2       0.1       5.5
 1 C  dx2y2           0.0       0.0       0.1       0.1       0.0       0.2
 2 H  s               4.6       2.4       1.0       0.6       1.0       0.7
 3 C  s               0.0       1.0       0.2       0.0       0.1       0.0
 3 C  pz              0.0       5.9       3.2       0.8       0.3       1.2
 3 C  px              5.3       0.0       1.2       0.4       0.2      11.7
 3 C  py              1.4       0.1       2.4       6.1       0.3       2.5
 3 C  dxz             0.1       0.0       0.0       0.0       0.0       0.1
 3 C  dxy             0.0       0.1       0.0       0.0       0.1       0.1
 4 H  s               0.1       2.8       0.7       0.0       0.1       0.7
 5 C  s               7.6       3.5       0.1       0.0       0.1       1.2
 5 C  pz              0.3       7.2       1.3       0.1       0.1       2.9
 5 C  px              0.4       0.2       2.0       1.6       0.1       1.9
 5 C  py              0.7       1.8       0.6       2.5       7.6       3.2
 5 C  dxy             0.0       0.1       0.0       0.0       0.3       0.2
 6 H  s               2.9       5.1       0.1       0.0       0.1       0.1
 7 C  s               2.1       1.8       2.0       0.0       0.7       0.0
 7 C  pz              0.3       4.7       8.3       3.1       4.6       1.2
 7 C  px              0.8       0.1       6.7       1.4       4.0       6.5
 7 C  py              3.4       0.4       1.7       0.4       7.5       0.6
 7 C  dz2             0.0       0.1       0.1       0.1       0.0       0.1
 7 C  dxy             0.1       0.0       0.0       0.0       0.2       0.0
 8 H  s               1.4       0.1       8.5       0.1       4.3       0.9
 9 O  s               0.0       1.0       0.4       1.1       0.1       0.0
 9 O  pz              0.3       1.3       0.2       0.0       5.8       0.1
 9 O  px              8.0       0.2       5.2       2.0       7.1       0.8
 9 O  py              2.2       0.0       0.0       4.9       1.3       1.5
10 O  s               0.4       0.2       1.0       0.1       0.0       0.1
10 O  pz              1.2       8.9       0.3       3.8       0.5       6.6
10 O  px              0.1       6.1       4.4       1.2       5.5       0.0
10 O  py              0.0       6.4       4.0       3.1       0.9       0.1
10 O  dz2             0.0       0.2       0.0       0.1       0.0       0.1
11 O  s               1.2       0.0       0.1       0.1       0.4       1.3
11 O  pz              4.1       5.7       1.9       3.6       7.6       9.0
11 O  px              3.2       2.0       0.1       2.1       5.0       0.1
11 O  py              1.6       0.4       0.1       1.5       0.2       0.1
12 O  s               0.0       0.1       0.1       0.0       0.0       0.3
12 O  pz              0.0       2.0       6.1       5.3       0.7       0.2
12 O  px              0.4       0.2       1.2       1.7       0.1       1.0
12 O  py              0.0       0.6       2.6       3.6       1.0       1.5
13 O  s               1.2       0.0       0.4       0.3       0.1       1.0
13 O  pz              9.6       3.5       0.1      13.7       1.1      12.5
13 O  px              3.9       0.4       0.3       1.2       1.9       0.6
13 O  py              0.0       0.0       0.3       0.0       0.1       1.9
14 H  s               1.2       0.4       3.2       0.3       1.5       0.7
15 H  s               1.1       1.9       3.9       1.2       3.8       0.4
16 H  s               0.3       6.6       1.9       2.2       0.5       0.8
17 H  s               2.8       2.2       0.7       2.0       3.4       2.1
18 H  s               0.0       0.7       2.7       3.1       0.5       0.0
19 H  s               4.3       1.1       0.0       4.0       0.7       3.7

                     24        25        26        27        28        29   
                  -0.42899  -0.41611  -0.41206  -0.37391  -0.36542  -0.35081
                   2.00000   2.00000   2.00000   2.00000   2.00000   2.00000
                  --------  --------  --------  --------  --------  --------
 0 C  s               0.5       0.0       0.1       0.2       0.2       0.0
 0 C  pz              0.0       3.8       7.0       1.0       2.0       0.6
 0 C  px              2.2       3.1       3.7       8.4       0.5       0.1
 0 C  py              3.0       9.9       0.3       4.2       8.0       2.4
 0 C  dxz             0.1       0.0       0.0       0.0       0.2       0.1
 0 C  dyz             0.0       0.1       0.0       0.1       0.0       0.0
 0 C  dx2y2           0.0       0.0       0.0       0.1       0.0       0.0
 0 C  dxy             0.0       0.0       0.0       0.0       0.2       0.1
 1 C  s               0.1       0.4       0.3       0.0       0.1       0.3
 1 C  pz              7.3       4.0       0.1       3.4       8.9       5.0
 1 C  px              0.1       1.6       0.7       0.0       0.4       0.1
 1 C  py              0.2      10.4       3.1       0.0       5.4       0.3
 1 C  dz2             0.0       0.0       0.0       0.0       0.2       0.1
 1 C  dxz             0.0       0.0       0.0       0.0       0.1       0.1
 1 C  dx2y2           0.1       0.1       0.0       0.1       0.1       0.0
 1 C  dxy             0.0       0.2       0.0       0.1       0.0       0.0
 2 H  s               2.3       1.7       0.1       1.3       6.3       3.1
 3 C  s               0.2       1.5       0.6       0.0       0.0       0.4
 3 C  pz             12.0       0.4       3.2       0.1       0.1      13.7
 3 C  px              2.7       0.3       7.3       1.1       1.3       0.5
 3 C  py              3.2       4.1       1.1       0.6       0.2       2.3
 3 C  dz2             0.0       0.1       0.1       0.0       0.0       0.7
 3 C  dxz             0.1       0.0       0.0       0.0       0.1       0.0
 3 C  dx2y2           0.0       0.2       0.0       0.0       0.1       0.0
 3 C  dxy             0.0       0.2       0.2       0.0       0.0       0.0
 4 H  s               3.1       0.4       3.8       0.4       0.1      11.6
 5 C  s               0.0       0.2       0.2       0.1       0.1       0.1
 5 C  pz              0.2       0.3      12.8       5.7       6.5       5.1
 5 C  px             13.6       1.2       0.1       0.4       4.3       0.0
 5 C  py              2.3       0.0       3.9       0.1       0.5       0.4
 5 C  dz2             0.0       0.0       0.0       0.1       0.2       0.2
 5 C  dx2y2           0.1       0.1       0.0       0.0       0.0       0.0
 6 H  s               0.7       0.0       5.8       4.2       5.3       3.5
 7 C  s               0.1       0.1       0.0       0.5       0.0       0.0
 7 C  pz              1.5       0.2       0.0       0.0       1.0       0.2
 7 C  px              0.6       6.0       3.6       1.2       3.1       0.2
 7 C  py              7.1       0.1       1.3       0.2       0.2       0.5
 7 C  dz2             0.1       0.0       0.0       0.3       0.1       0.0
 7 C  dyz             0.0       0.0       0.2       0.2       0.1       0.2
 7 C  dx2y2           0.0       0.0       0.0       0.1       0.3       0.0
 8 H  s               0.0       2.9       1.0       1.6       0.5       0.0
 9 O  s               0.2       0.3       1.0       2.2       0.0       0.7
 9 O  pz              0.3       0.4       5.0      11.9       0.0       1.2
 9 O  px              3.7       0.1       0.7       5.4       5.1       0.0
 9 O  py              0.2      11.7       1.2       1.3       0.1       0.0
10 O  s               0.3       0.7       0.1       4.8       0.4       0.4
10 O  pz              5.8       0.6       0.6       2.7       7.8       1.1
10 O  px              0.5       1.7       0.9       4.6       1.4       1.2
10 O  py              0.6       0.2       0.1      10.4       0.3       4.4
11 O  s               0.0       0.2       0.2       0.2       0.2       1.2
11 O  pz              2.2       1.5       0.4       0.4       0.1       2.2
11 O  px              0.2       0.1       6.6       0.9       0.7       2.5
11 O  py              4.1       0.0       1.7       2.0       7.6       5.3
12 O  s               1.0       1.8       0.1       0.1       0.1       0.6
12 O  pz              0.8       9.8       2.6       0.3       0.1       2.6
12 O  px              4.5       1.4       0.1       0.6       1.5       3.8
12 O  py              1.5       0.7       6.9       0.1       1.3       8.3
13 O  s               0.4       0.0       0.1       1.2       0.0       0.8
13 O  pz              0.4       3.2       0.8       1.2       0.4       1.1
13 O  px              3.9       1.7       0.1       4.2       5.8       7.6
13 O  py              0.4       2.0       1.1       0.0       2.6       0.4
14 H  s               3.0       0.3       0.6       5.7       3.3       1.5
15 H  s               0.2       2.4       4.2       0.6       2.9       0.1
16 H  s               0.4       0.2       0.0       2.5       0.1       0.1
17 H  s               0.7       0.4       1.2       0.2       0.4       0.0
18 H  s               0.2       3.0       2.1       0.1       0.0       0.5
19 H  s               0.4       1.3       0.3       0.1       0.6       0.1

                     30        31        32        33        34        35   
                  -0.33623  -0.31623  -0.28773  -0.28394  -0.27702  -0.26400
                   2.00000   2.00000   2.00000   2.00000   2.00000   2.00000
                  --------  --------  --------  --------  --------  --------
 0 C  s               0.0       0.4       0.0       0.2       0.7       0.0
 0 C  pz              8.1       1.1       0.4       0.4       1.6       1.9
 0 C  px              2.8       0.1       1.2       0.4       0.1       0.2
 0 C  py              4.2       0.0       2.1       0.0       0.1       0.6
 0 C  dz2             0.2       0.0       0.0       0.0       0.0       0.1
 0 C  dyz             0.1       0.0       0.0       0.0       0.0       0.0
 0 C  dx2y2           0.0       0.0       0.0       0.1       0.0       0.0
 0 C  dxy             0.2       0.2       0.1       0.0       0.2       0.1
 1 C  s               0.1       1.0       0.1       0.0       0.2       0.1
 1 C  pz              2.8       0.8       0.6       1.9       0.3       1.2
 1 C  px              0.1       0.2       2.4       2.2       0.1       1.3
 1 C  py              0.5       0.0       1.6       1.5       0.1       0.0
 1 C  dz2             0.1       0.5       0.2       0.4       0.1       0.2
 1 C  dxz             0.1       0.0       0.2       0.0       0.0       0.0
 1 C  dxy             0.0       0.0       0.1       0.0       0.2       0.0
 2 H  s               2.7       3.1       1.2       3.2       0.6       1.9
 3 C  s               0.1       1.3       0.3       0.0       0.2       0.0
 3 C  pz              0.4       0.1       0.1       4.5       1.7       1.8
 3 C  px              1.1       0.1       1.3       0.1       1.4       0.1
 3 C  py              0.2       0.2       0.5       2.9       0.0       0.5
 3 C  dz2             0.1       0.0       0.0       0.4       0.1       0.1
 3 C  dxz             0.0       0.1       0.0       0.2       0.0       0.0
 3 C  dyz             0.0       0.1       0.0       0.3       0.0       0.0
 3 C  dxy             0.0       0.0       0.1       0.0       0.1       0.0
 4 H  s               1.2       0.2       0.3       6.0       1.2       1.6
 5 C  s               0.5       1.6       0.1       0.1       0.1       0.0
 5 C  pz              1.1       0.5       1.0       1.1       3.3       0.1
 5 C  px              0.4       0.0       1.3       2.0       0.2       0.0
 5 C  py              1.5       0.1       0.2       0.1       6.0       0.1
 5 C  dz2             0.1       0.4       0.1       0.1       0.4       0.0
 5 C  dxz             0.0       0.2       0.1       0.0       0.2       0.0
 5 C  dyz             0.0       0.0       0.0       0.0       0.2       0.0
 5 C  dx2y2           0.0       0.0       0.2       0.0       0.0       0.0
 6 H  s               0.9       2.9       1.1       0.9       4.6       0.1
 7 C  s               0.6       0.5       0.8       0.0       0.1       0.2
 7 C  pz              1.8       1.0       1.7       0.1       0.1       1.1
 7 C  px              5.3       0.0       0.1       0.1       0.6       1.7
 7 C  py              0.0       0.1       0.0       0.0       4.3       0.4
 7 C  dxz             0.1       0.0       0.2       0.2       0.0       1.5
 7 C  dyz             0.2       0.0       0.0       0.2       0.0       0.2
 7 C  dx2y2           0.0       0.3       0.3       0.0       0.1       0.0
 7 C  dxy             0.1       0.0       0.0       0.0       0.2       0.2
 8 H  s               3.9       1.2       2.9       0.2       0.5       6.4
 9 O  s               0.6       0.9       1.6       0.1       1.3       0.3
 9 O  pz              0.5       0.1       2.3       4.4       1.8       0.1
 9 O  px              0.2       2.7       2.3       0.2       1.2       0.2
 9 O  py              1.9       9.6       4.6       0.3      12.4       5.5
10 O  s               3.1       0.4       0.3       0.0       0.4       0.3
10 O  pz              6.7       1.4       3.2       0.9       0.1       7.8
10 O  px              0.0       0.0       0.6       5.0       0.0      43.1
10 O  py             19.4       0.9       0.7       2.4       1.8       9.5
11 O  s               0.0       3.6       0.6       0.3       3.7       0.1
11 O  pz              0.0      10.7       0.5       0.1      13.2       0.8
11 O  px              0.0       0.8       4.3       2.6      11.6       0.7
11 O  py              0.8       7.9      11.6       1.8       5.2       0.1
12 O  s               0.0       2.5       0.2       4.3       0.5       0.5
12 O  pz              0.0      11.3       1.3      17.3       0.5       1.4
12 O  px              1.2       0.9       1.7       4.7       3.0       0.4
12 O  py              1.2       6.2       5.4       5.5       1.0       0.1
13 O  s               0.4       2.7       2.5       1.9       0.2       0.5
13 O  pz              0.4       5.5       4.2       3.7       0.7       0.6
13 O  px              4.3       7.3      16.7       6.1       1.2       1.1
13 O  py              0.7       0.0       9.5       3.6       5.6       0.4
14 H  s               8.3       0.9       0.6       0.3       0.8       0.0
15 H  s               5.6       0.4       0.0       0.3       0.7       1.2
16 H  s               2.0       0.1       0.1       0.0       0.4       0.2
17 H  s               0.4       1.9       0.4       0.2       2.2       0.1
18 H  s               0.0       0.9       0.2       2.4       0.3       0.4
19 H  s               0.0       1.5       1.3       1.1       0.2       0.4

                     36        37        38        39        40        41   
                  -0.25094  -0.23420  -0.20712  -0.20202   0.01183   0.02512
                   2.00000   2.00000   2.00000   2.00000   0.00000   0.00000
                  --------  --------  --------  --------  --------  --------
 0 C  s               0.1       0.2       0.6       0.2       0.9       0.9
 0 C  pz              2.3       0.3       0.6       0.0       0.6       1.0
 0 C  px              0.2       0.4       1.7       0.0       0.1       3.3
 0 C  py              0.7       0.2       4.5       0.5       0.4       0.2
 0 C  dz2             1.0       0.0       0.2       0.1       0.0       0.0
 0 C  dxz             0.1       0.0       0.1       0.0       0.0       0.2
 0 C  dx2y2           0.0       0.1       0.0       0.0       0.0       0.6
 0 C  dxy             0.0       0.0       0.4       0.0       0.1       0.0
 1 C  s               0.2       0.2       0.1       0.8       0.1       0.0
 1 C  pz              0.1       0.6       0.0       0.6       0.1       0.3
 1 C  px              0.3       0.8       0.2       1.4       0.0       2.5
 1 C  py              0.0       0.1       7.0       2.2       0.1       0.0
 1 C  dz2             0.0       0.0       0.0       0.0       0.0       0.1
 1 C  dxz             0.0       0.0       0.0       0.1       0.0       0.2
 1 C  dx2y2           0.0       0.0       0.0       0.0       0.0       0.4
 1 C  dxy             0.3       0.3       1.0       0.2       0.0       0.0
 2 H  s               0.5       0.6       0.1       0.0       0.3       1.6
 3 C  s               0.5       0.0       0.6       0.1       0.8       0.1
 3 C  pz              0.9       0.1       0.7       0.5       0.5       3.2
 3 C  px              0.0       0.3       0.3       7.4       0.3       1.2
 3 C  py              0.9       0.0       1.5       1.1       0.1       0.3
 3 C  dz2             0.0       0.0       0.0       0.0       0.0       0.2
 3 C  dxz             0.0       0.0       0.0       0.1       0.0       0.2
 3 C  dx2y2           0.0       0.5       0.0       0.7       0.0       0.1
 3 C  dxy             0.0       0.3       0.2       0.3       0.0       0.1
 4 H  s               0.3       0.1       0.0       0.0       2.0       6.5
 5 C  s               0.0       0.2       0.7       0.2       0.2       1.3
 5 C  pz              0.0       0.3       0.1       1.2       0.5       0.6
 5 C  px              0.2       0.3       0.2       5.9       0.0       0.3
 5 C  py              0.0       0.2       1.6       1.1       0.6       0.3
 5 C  dz2             0.0       0.0       0.0       0.0       0.0       0.2
 5 C  dyz             0.0       0.0       0.0       0.0       0.3       0.0
 5 C  dx2y2           0.2       0.4       0.2       0.8       0.0       0.0
 5 C  dxy             0.0       0.0       0.2       0.1       0.0       0.2
 6 H  s               0.1       0.0       0.0       0.0       1.6       5.2
 7 C  s               0.0       0.2       0.1       0.6       0.3       0.6
 7 C  pz              0.8       0.1       0.1       0.0       3.9       0.2
 7 C  px              0.4       0.1       0.3       1.3       1.2       0.6
 7 C  py              1.2       0.6       1.4       2.4       0.2       0.7
 7 C  dz2             0.6       0.0       0.2       0.0       0.2       0.0
 7 C  dxz             0.1       0.0       0.0       0.0       0.2       0.0
 7 C  dyz             0.0       0.0       0.0       0.1       0.3       0.1
 7 C  dx2y2           0.0       0.0       0.3       0.1       0.0       0.0
 7 C  dxy             0.1       0.0       0.1       0.0       0.0       0.1
 8 H  s               0.2       0.1       0.3       1.2       5.5       2.0
 9 O  s               0.4       0.0       0.1       0.0       0.0       1.2
 9 O  pz             41.0       0.0       5.6       1.0       0.2       0.6
 9 O  px              3.1       0.4       5.6       0.5       0.0       0.6
 9 O  py              0.7       0.1      13.1       1.6       0.2       0.1
10 O  s               0.1       0.0       0.1       0.0      10.1       0.1
10 O  pz              3.7       0.0       0.3       0.0       0.2       0.0
10 O  px              4.1       0.2       0.7       0.5       1.9       0.0
10 O  py              8.8       0.0       0.2       0.0       4.0       0.5
10 O  dxy             0.0       0.0       0.0       0.0       0.1       0.0
11 O  s               0.0       0.2       0.1       0.0       0.9       0.1
11 O  pz              0.9       0.5       0.0       2.9       1.0       0.0
11 O  px              3.5      13.8       1.6      20.0       0.0       0.1
11 O  py              1.3      11.4       7.3       5.8       0.1       0.0
12 O  s               0.4       0.0       0.2       0.0       0.0       0.2
12 O  pz              1.2       0.1       0.8       0.7       0.2       0.0
12 O  px              0.6      31.7       1.4      23.4       0.1       0.0
12 O  py              0.5       9.4       5.1       3.9       0.0       0.9
13 O  s               0.0       0.2       0.0       0.1       0.1       6.8
13 O  pz              0.0       0.4       0.0       0.1       0.2       6.1
13 O  px              0.0       0.6       0.6       2.2       0.0       1.2
13 O  py              9.0      22.4      28.9       4.8       0.0       0.0
14 H  s               1.6       0.3       0.5       0.3       0.8       0.1
[...]
12 O  px              0.0       0.0       0.2       0.2       0.0       0.1
12 O  py              0.0       0.0       0.1       0.0       0.1       0.4
12 O  dz2             0.2      18.6       0.3       0.0       0.3       3.0
12 O  dxz             0.0       6.5       0.0       0.0       0.0       0.0
12 O  dyz             0.3      10.8       0.7       0.2       0.1       0.1
12 O  dx2y2           0.0       0.0      15.2       7.8       0.7       1.5
12 O  dxy             0.0       1.9       4.6       5.7       1.1       4.3
13 O  s               0.2       0.0       0.2       0.1       0.0       0.4
13 O  pz              0.2       0.2       0.0       0.1       0.0       0.2
13 O  px              0.0       0.0       0.0       0.0       0.0       0.3
13 O  py              0.4       0.1       0.0       0.0       0.1       0.0
13 O  dz2            14.8      11.4       4.9       3.3       0.1       0.4
13 O  dxz             0.1       0.3       1.3       0.1       0.0       3.2
13 O  dyz             1.7       2.0       0.6       0.4       0.2       0.1
13 O  dx2y2           0.0       0.0       0.2       0.2       0.2       2.8
13 O  dxy            19.0       7.7       1.3       0.2       2.3       0.1
16 H  s               1.6       0.0       0.6       0.2       0.0       0.3
17 H  s               0.5       0.5       0.0       0.7       0.0       0.1
18 H  s               0.0       3.2       0.0       0.0       0.0       0.1
19 H  s               1.3       1.0       0.4       0.3       0.0       0.1

                    156       157       158       159   
                   3.31524   3.33684   3.35516   3.39273
                   0.00000   0.00000   0.00000   0.00000
                  --------  --------  --------  --------
 0 C  s               0.1       0.0       0.0       1.3
 0 C  pz              0.0       0.0       0.0       0.3
 0 C  px              0.0       0.0       0.0       1.8
 0 C  dz2             0.1       0.0       0.0       0.2
 0 C  dxz             0.0       0.0       0.0       2.1
 0 C  dyz             0.0       0.0       0.0       0.1
 0 C  dx2y2           0.1       0.2       0.0       2.7
 0 C  dxy             0.2       0.3       0.0       0.2
 1 C  s               1.2       0.5       0.4       0.1
 1 C  pz              0.4       0.1       0.1       0.0
 1 C  px              1.9       0.7       0.2       0.3
 1 C  dz2             0.2       0.2       0.1       0.0
 1 C  dxz             3.1       0.8       0.7       0.4
 1 C  dx2y2           3.3       3.1       0.2       0.3
 1 C  dxy             0.0       0.0       0.2       0.1
 3 C  s               0.1       0.6       1.4       0.0
 3 C  px              0.3       0.2       0.4       0.0
 3 C  py              0.1       0.9       1.8       0.0
 3 C  dz2             0.3       0.5       1.7       0.0
 3 C  dxz             0.3       0.0       0.1       0.0
 3 C  dyz             0.0       0.1       0.5       0.0
 3 C  dx2y2           0.1       1.7       1.1       0.0
 3 C  dxy             0.1       3.7       2.9       0.0
 5 C  s               0.4       0.9       0.8       0.0
 5 C  px              0.4       0.8       0.2       0.1
 5 C  py              0.6       0.7       1.0       0.1
 5 C  dz2             0.2       1.0       0.4       0.0
 5 C  dxz             0.1       0.3       0.1       0.1
 5 C  dyz             0.5       0.1       1.2       0.0
 5 C  dx2y2           0.7       0.2       0.0       0.1
 5 C  dxy             1.8       4.4       2.4       0.1
 7 C  s               0.0       0.4       0.3       1.6
 7 C  pz              0.6       0.2       0.4       0.3
 7 C  px              0.1       0.0       0.0       1.2
 7 C  py              0.0       0.0       0.1       1.4
 7 C  dz2             2.1       0.4       1.4       1.8
 7 C  dxz             0.3       0.0       0.8       0.5
 7 C  dyz             0.1       0.0       0.0       0.5
 7 C  dx2y2           0.4       0.4       0.2       0.1
 7 C  dxy             0.3       0.0       0.3       4.6
 8 H  s               0.0       0.0       0.0       0.1
 9 O  s               0.1       0.1       0.1       0.1
 9 O  px              0.3       0.0       0.0       4.5
 9 O  py              0.1       0.0       0.1       1.3
 9 O  dz2             0.3       0.0       0.8       1.2
 9 O  dxz             2.0       0.1       0.1      22.0
 9 O  dyz             1.4       0.0       0.0       4.2
 9 O  dx2y2           0.0       0.2       0.6      18.2
 9 O  dxy             0.5       1.0       0.2      18.6
10 O  s               0.7       0.6       0.5       0.1
10 O  pz              0.6       0.2       0.5       0.1
10 O  px              0.1       0.1       0.2       0.0
10 O  py              0.0       0.0       0.2       0.0
10 O  dz2             7.1       1.7       7.8       0.4
10 O  dxz             1.3       1.1       0.5       0.4
10 O  dyz             0.0       0.2       0.1       0.1
10 O  dx2y2           0.1       0.0       0.3       0.0
10 O  dxy             0.0       0.0       0.1       0.1
11 O  s               1.0       2.0       1.6       0.2
11 O  pz              0.2       0.4       0.2       0.0
11 O  px              0.5       0.6       0.5       0.0
11 O  py              0.3       0.9       0.5       0.1
11 O  dz2             3.2       5.4       4.5       0.3
11 O  dxz             0.7       1.9       0.4       0.0
11 O  dyz             1.3       2.8       1.3       0.1
11 O  dx2y2           0.0       1.6       0.2       0.5
11 O  dxy            10.4      15.1      11.3       0.5
12 O  s               0.3       1.3       3.3       0.0
12 O  pz              0.0       0.1       0.2       0.0
12 O  px              0.0       0.3       0.6       0.0
12 O  py              0.2       1.0       1.7       0.0
12 O  dz2             1.3       4.6      10.6       0.0
12 O  dxz             0.0       0.2       0.0       0.0
12 O  dyz             0.0       0.7       0.0       0.0
12 O  dx2y2           1.2       4.9       6.7       0.0
12 O  dxy             0.9      10.2      14.8       0.1
13 O  s               2.8       0.9       0.7       0.4
13 O  pz              1.0       0.4       0.1       0.1
13 O  px              1.7       0.6       0.3       0.2
13 O  dz2             4.8       0.6       1.0       0.5
13 O  dxz            13.6       6.8       1.7       0.9
13 O  dx2y2          18.4       6.9       3.0       1.8
13 O  dxy             0.3       0.0       0.0       0.2
16 H  s               0.1       0.0       0.2       0.0
17 H  s               0.1       0.2       0.2       0.0
18 H  s               0.0       0.1       0.4       0.0
19 H  s               0.4       0.1       0.1       0.0


                      *****************************
                      * MAYER POPULATION ANALYSIS *
                      *****************************

  NA   - Mulliken gross atomic population
  ZA   - Total nuclear charge
  QA   - Mulliken gross atomic charge
  VA   - Mayer's total valence
  BVA  - Mayer's bonded valence
  FA   - Mayer's free valence

  ATOM       NA         ZA         QA         VA         BVA        FA
  0 C      5.9179     6.0000     0.0821     3.9326     3.9326     0.0000
  1 C      5.9952     6.0000     0.0048     4.0627     4.0627     0.0000
  2 H      0.9417     1.0000     0.0583     0.9701     0.9701     0.0000
  3 C      5.9619     6.0000     0.0381     4.0025     4.0025     0.0000
  4 H      0.9477     1.0000     0.0523     0.9964     0.9964     0.0000
  5 C      5.9343     6.0000     0.0657     3.9682     3.9682    -0.0000
  6 H      0.9356     1.0000     0.0644     0.9715     0.9715    -0.0000
  7 C      5.8594     6.0000     0.1406     4.1627     4.1627    -0.0000
  8 H      0.9278     1.0000     0.0722     0.9652     0.9652    -0.0000
  9 O      8.3118     8.0000    -0.3118     2.1560     2.1560     0.0000
 10 O      8.4104     8.0000    -0.4104     2.0353     2.0353    -0.0000
 11 O      8.4122     8.0000    -0.4122     2.0120     2.0120    -0.0000
 12 O      8.3975     8.0000    -0.3975     2.0302     2.0302    -0.0000
 13 O      8.4060     8.0000    -0.4060     2.0120     2.0120    -0.0000
 14 H      0.8993     1.0000     0.1007     0.9571     0.9571     0.0000
 15 H      0.9512     1.0000     0.0488     0.9898     0.9898     0.0000
 16 H      0.6864     1.0000     0.3136     0.8824     0.8824     0.0000
 17 H      0.6993     1.0000     0.3007     0.9005     0.9005    -0.0000
 18 H      0.7034     1.0000     0.2966     0.8873     0.8873    -0.0000
 19 H      0.7010     1.0000     0.2990     0.8871     0.8871    -0.0000

  Mayer bond orders larger than 0.100000
B(  0-C ,  1-C ) :   1.0357 B(  0-C ,  9-O ) :   0.9928 B(  0-C , 14-H ) :   0.9235 
B(  0-C , 15-H ) :   0.8907 B(  1-C ,  2-H ) :   0.8699 B(  1-C ,  3-C ) :   0.9956 
B(  1-C , 13-O ) :   1.0584 B(  3-C ,  4-H ) :   0.8705 B(  3-C ,  5-C ) :   0.9707 
B(  3-C , 12-O ) :   1.0931 B(  5-C ,  6-H ) :   0.8790 B(  5-C ,  7-C ) :   0.9788 
B(  5-C , 11-O ) :   1.0684 B(  7-C ,  8-H ) :   0.9034 B(  7-C ,  9-O ) :   1.0641 
B(  7-C , 10-O ) :   1.0829 B( 10-O , 16-H ) :   0.8383 B( 11-O , 17-H ) :   0.8421 
B( 12-O , 18-H ) :   0.8513 B( 13-O , 19-H ) :   0.8489 

-------
TIMINGS
-------

Total SCF time: 0 days 0 hours 0 min 8 sec 

Total time                  ....       8.481 sec
Sum of individual times     ....       8.008 sec  ( 94.4%)

SCF preparation             ....       0.203 sec  (  2.4%)
Fock matrix formation       ....       7.068 sec  ( 83.3%)
  Startup                   ....       0.060 sec  (  0.8% of F)
  Split-RI-J                ....       2.660 sec  ( 37.6% of F)
  XC integration            ....       3.917 sec  ( 55.4% of F)
    XC Preparation          ....       0.000 sec  (  0.0% of XC)
    Basis function eval.    ....       1.195 sec  ( 30.5% of XC)
    Density eval.           ....       0.718 sec  ( 18.3% of XC)
    XC-Functional eval.     ....       0.258 sec  (  6.6% of XC)
    XC-Potential eval.      ....       0.867 sec  ( 22.1% of XC)
Diagonalization             ....       0.000 sec  (  0.0%)
Density matrix formation    ....       0.159 sec  (  1.9%)
Total Energy calculation    ....       0.026 sec  (  0.3%)
Population analysis         ....       0.083 sec  (  1.0%)
Orbital Transformation      ....       0.055 sec  (  0.7%)
Orbital Orthonormalization  ....       0.000 sec  (  0.0%)
DIIS solution               ....       0.338 sec  (  4.0%)
  MO trafo                  ....       0.000 sec  (  0.0 % of DIIS)
  Orb grad                  ....       0.000 sec  (  0.0 % of DIIS)
  Energy W gradient         ....       0.000 sec  (  0.0 % of DIIS)
  DIIS error                ....       0.004 sec  (  1.3 % of DIIS)
  DIIS work                 ....       0.290 sec  ( 85.6 % of DIIS)
  Form Q                    ....       0.000 sec  (  0.0 % of DIIS)
  Form QpQm                 ....       0.000 sec  (  0.0 % of DIIS)
  Exp/Cayley                ....       0.000 sec  (  0.0 % of DIIS)
  Orb update                ....       0.000 sec  (  0.0 % of DIIS)
  Wake-sleep                ....       0.016 sec  (  4.7 % of DIIS)
SOSCF solution              ....       0.075 sec  (  0.9%)
  MO trafo                  ....       0.042 sec  ( 55.6 % of SOSCF)
  Orb grad                  ....       0.001 sec  (  1.8 % of SOSCF)
  Rot update                ....       0.016 sec  ( 21.9 % of SOSCF)
  Step                      ....       0.015 sec  ( 20.6 % of SOSCF)
Finished LeanSCF after   8.8 sec

Maximum memory used throughout the entire LEANSCF-calculation: 15.0 MB


-------------------------------------------------------------------------------
                          DFT DISPERSION CORRECTION                            
                                                                               
                                DFTD4 V3.4.0                                   
-------------------------------------------------------------------------------
The PBE functional is recognized
Active option DFTDOPT                   ...         5   

-------------------------   ----------------
Dispersion correction           -0.019188771
-------------------------   ----------------

------------------   -----------------
gCP correction             0.126973545
------------------   -----------------

-------------------------   --------------------
FINAL SINGLE POINT ENERGY      -571.414741874795
-------------------------   --------------------


------------------------------------------------------------------------------
                              ORCA PROPERTY CALCULATIONS
------------------------------------------------------------------------------

GBWName                                 ... sp.gbw
Number of atoms                         ...     20
Number of basis functions               ...    160
Max core memory                         ...   1024 MB

Electric properties:
Dipole moment                           ... YES
Quadrupole moment                       ...  NO
Static polarizability (Dipole/Dipole)   ...  NO
Static polarizability (Dipole/Quad.)    ...  NO
Static polarizability (Quad./Quad.)     ...  NO
Static polarizability (Velocity)        ...  NO

Atomic electric properties:
Dipole moment                           ...  NO
Quadrupole moment                       ...  NO
Static polarizability                   ...  NO

Choice of electric origin               ... Center of mass
Position of electric origin             ...     0.000002     0.000007    -0.000003

General magnetic properties:
Magnetizability                         ...  NO

EPR properties:
g-Tensor (aka g-matrix)                 ...  NO
Zero-Field splitting spin-orbit         ...  NO
Zero-field splitting spin-spin          ...  NO
Hyperfine couplings                     ...  NO (   0 nuclei)
Quadrupole couplings                    ...  NO (   0 nuclei)
Contact density                         ...  NO (   0 nuclei)

NMR properties:
Chemical shifts                         ...  NO (   0 nuclei)
Spin-rotation constants                 ...  NO (   0 nuclei)
Spin-spin couplings                     ...  NO (   0 nuclei,    0 pairs)

Choice of magnetic origin               ... GIAO
Position of magnetic origin             ...     0.000000     0.000000     0.000000

Properties with geometric perturbations:
SCF Hessian                             ...  NO
IR spectrum                             ...  NO
VCD spectrum                            ...  NO
X-ray spectroscopy properties:
SCF XES/XAS/RIXS spectra                ...  NO


-------------
DIPOLE MOMENT
-------------

Method             : SCF
Type of density    : Electron Density
Multiplicity       :   1
Irrep              :   0
Energy             :  -571.5225266487393583 Eh
Relativity type    : 
Basis              : AO
                                X                 Y                 Z
Electronic contribution:     -0.798934542      -0.959126502      -0.091958298
Nuclear contribution   :      0.257121863       1.660456567       0.486247603
                        -----------------------------------------
Total Dipole Moment    :     -0.541812679       0.701330066       0.394289304
                        -----------------------------------------
Magnitude (a.u.)       :      0.969994276
Magnitude (Debye)      :      2.465529512



--------------------
Rotational spectrum 
--------------------
 
Rotational constants in cm-1:             0.056803             0.044361             0.028889 
Rotational constants in MHz :          1702.917787          1329.905026           866.055681 

Dipole components along the rotational axes: 
x,y,z [a.u.] :    -0.526957    -0.711015     0.397068 
x,y,z [Debye]:    -1.339418    -1.807257     1.009266 

 

Dipole moment calculation done in   0.0 sec 

Maximum memory used throughout the entire PROP-calculation: 9.6 MB

--------------------------------
SUGGESTED CITATIONS FOR THIS RUN
--------------------------------

Below you find a list of papers that are relevant to this ORCA run
We neither can nor want to force you to cite these papers, but we appreciate if you do
You receive ORCA, which is the product of decades of hard work by many enthusiastic individuals, for free
The only thing we kindly ask in return is that you cite our papers,
We deeply appreciate it, if you show your appreciation for ORCA by not just citing the generic ORCA reference.

Please note that relegating all ORCA citations to the supporting information does *not* help us.
SI sections are not indexed - citations you put there will not count into any citation statistics
But we need these citations in order to attract the funding resources that allow us to do what we are doing

Therefore, if you are a happy ORCA user, please consider citing a few of the papers listed below in the main body of your paper

In addition to the list printed below, the program has created the file sp.bibtex that contains the list in bibtex format
You can import this file easily into all common literature databanks and citation aid programs


List of essential papers. We consider these as the minimum necessary citations

  1. Neese,F.
     Software update: the ORCA program system, version 5.0
     WIRES Comput. Molec. Sci., 2022 12(1)e1606
     doi.org/10.1002/wcms.1606

List of papers to cite with high priority. The work reported in these papers was absolutely
necessary for this run to complete.
Our perspective: the developers of density functionals and basis sets usually get cited in chemistry papers
Good! But without the algorithms to do something with them, the functionals or basis sets would not do anything.
Hence, in our opinion, the algorithm design and method developments papers are equally worthy of getting cited

  1. Neese,F.
     An improvement of the resolution of the identity approximation for the formation of the Coulomb matrix
     J. Comp. Chem., 2003 24(14)1740-1747
     doi.org/10.1002/jcc.10318
  2. Neese,F.
     The SHARK Integral Generation and Digestion System
     J. Comp. Chem., 2022  1-16
     doi.org/10.1002/jcc.26942
  3. Caldeweyher,E.; Bannwarth,C.; Grimme,S.
     Extension of the D3 dispersion coefficient model
     J. Chem. Phys., 2017 147 034112-XXXX
     doi.org/10.1063/1.4993215
  4. Caldeweyher,E.; Ehlert,S.; Hansen,A.; Neugebauer,H.; Spicher,S.; Bannwarth,C.; Grimme,S.
     A generally applicable atomic-charge dependent London dispersion correction
     J. Chem. Phys., 2019 150 154122-XXXX
     doi.org/10.1063/1.5090222
  5. Caldeweyher,E.; Mewes,J.; Ehlert,S.; Grimme,S.
     Extension and evaluation of the D4 London-dispersion model for periodic systems
     Phys. Chem. Chem. Phys., 2020 22(16)8499-8512
     doi.org/10.1039/D0CP00502A

List of suggested additional citations. These are papers that are important in the 'surrounding' of 
of this run, or papers that preceded the highly important papers. If you like your results we are grateful for a citation.

  1. Neese,F.
     The ORCA program system
     WIRES Comput. Molec. Sci., 2012 2(1)73-78
     doi.org/10.1002/wcms.81
  2. Neese,F.
     Software update: the ORCA program system, version 4.0
     WIRES Comput. Molec. Sci., 2018 8(1)1-6
     doi.org/10.1002/wcms.1327
  3. Neese,F.; Wennmohs,F.; Becker,U.; Riplinger,C.
     The ORCA quantum chemistry program package
     J. Chem. Phys., 2020 152 Art. No. L224108
     doi.org/10.1063/5.0004608

List of optional additional citations

  1. Neese,F.
     Approximate second-order SCF convergence for spin unrestricted wavefunctions
     Chem. Phys. Lett., 2000 325(1-3)93-98
     doi.org/10.1016/s0009-2614(00)00662-x

Timings for individual modules:

Sum of individual times          ...       10.739 sec (=   0.179 min)
Startup calculation              ...        0.847 sec (=   0.014 min)   7.9 %
SCF iterations                   ...        9.791 sec (=   0.163 min)  91.2 %
Property calculations            ...        0.102 sec (=   0.002 min)   0.9 %
                             ****ORCA TERMINATED NORMALLY****
TOTAL RUN TIME: 0 days 0 hours 0 minutes 11 seconds 418 msec
