
                                 *****************
                                 * O   R   C   A *
                                 *****************

                                            #,                                       
                                            ###                                      
                                            ####                                     
                                            #####                                    
                                            ######                                   
                                           ########,                                 
                                     ,,################,,,,,                         
                               ,,#################################,,                 
                          ,,##########################################,,             
                       ,#########################################, ''#####,          
                    ,#############################################,,   '####,        
                  ,##################################################,,,,####,       
                ,###########''''           ''''###############################       
              ,#####''   ,,,,##########,,,,          '''####'''          '####       
            ,##' ,,,,###########################,,,                        '##       
           ' ,,###''''                  '''############,,,                           
         ,,##''                                '''############,,,,        ,,,,,,###''
      ,#''                                            '''#######################'''  
     '                                                          ''''####''''         
             ,#######,   #######,   ,#######,      ##                                
            ,#'     '#,  ##    ##  ,#'     '#,    #''#        ,####,   ,####,        
            ##       ##  ##   ,#'  ##            #'  '#       #'       #'  '#        
            ##       ##  #######   ##           ,######,      #####,   #    #        
            '#,     ,#'  ##    ##  '#,     ,#' ,#      #,     #,   #   #,  ,#        
             '#######'   ##     ##  '#######'  #'      '#     '####' # '####'        



                #########################################################
                #                        -***-                          #
                #          Department of theory and spectroscopy        #
                #                                                       #
                #                      Frank Neese                      #
                #                                                       #
                #     Directorship, Architecture, Infrastructure        #
                #                    SHARK, DRIVERS                     #
                #        Core code/Algorithms in most modules           #
                #                                                       #
                #        Max Planck Institute fuer Kohlenforschung      #
                #                Kaiser Wilhelm Platz 1                 #
                #                 D-45470 Muelheim/Ruhr                 #
                #                      Germany                          #
                #                                                       #
                #                  All rights reserved                  #
                #                        -***-                          #
                #########################################################


                         Program Version 6.0.0  -   RELEASE  -


 With contributions from (in alphabetic order):
   Daniel Aravena         : Magnetic Suceptibility
   Michael Atanasov       : Ab Initio Ligand Field Theory (pilot matlab implementation)
   Alexander A. Auer      : GIAO ZORA, VPT2 properties, NMR spectrum
   Ute Becker             : All parallelization in ORCA, NUMFREQ, NUMCALC
   Giovanni Bistoni       : ED, misc. LED, open-shell LED, HFLD
   Martin Brehm           : Molecular dynamics
   Dmytro Bykov           : pre 5.0 version of the SCF Hessian
   Marcos Casanova-Páez   : Triplet and SCS-CIS(D). UHF-(DLPNO)-IP/EA/STEOM-CCSD. UHF-CVS-IP/STEOM-CCSD
   Vijay G. Chilkuri      : MRCI spin determinant printing, contributions to CSF-ICE
   Pauline Colinet        : FMM embedding
   Dipayan Datta          : RHF DLPNO-CCSD density
   Achintya Kumar Dutta   : EOM-CC, STEOM-CC
   Nicolas Foglia         : Exact transition moments, OPA infrastructure, MCD improvements
   Dmitry Ganyushin       : Spin-Orbit,Spin-Spin,Magnetic field MRCI
   Miquel Garcia          : C-PCM and meta-GGA Hessian, CCSD/C-PCM, Gaussian charge scheme
   Tiago L. C. Gouveia    : GS-ROHF, GS-ROCIS
   Yang Guo               : DLPNO-NEVPT2, F12-NEVPT2, CIM, IAO-localization
   Andreas Hansen         : Spin unrestricted coupled pair/coupled cluster methods
   Ingolf Harden          : AUTO-CI MPn and infrastructure 
   Benjamin Helmich-Paris : MC-RPA, TRAH-(SCF,CASSCF), AVAS, COSX integrals, SCF dyn. polar.
   Lee Huntington         : MR-EOM, pCC
   Robert Izsak           : Overlap fitted RIJCOSX, COSX-SCS-MP3, EOM
   Riya Kayal             : Wick's Theorem for AUTO-CI, AUTO-CI UHF-CCSDT
   Emily Kempfer          : AUTO-CI, RHF CISDT and CCSDT
   Christian Kollmar      : KDIIS, OOCD, Brueckner-CCSD(T), CCSD density, CASPT2, CASPT2-K, improved NEVPT2
   Axel Koslowski         : Symmetry handling
   Simone Kossmann        : Meta GGA functionals, TD-DFT gradient, OOMP2, (MP2 Hessian; deprecated post 5.0)
   Lucas Lang             : DCDCAS
   Marvin Lechner         : AUTO-CI (C++ implementation), FIC-MRCC
   Spencer Leger          : CASSCF response
   Dagmar Lenk            : GEPOL surface, SMD, ORCA-2-JSON
   Dimitrios Liakos       : Extrapolation schemes; Compound Job, initial MDCI parallelization
   Dimitrios Manganas     : Further ROCIS development; embedding schemes. LFT, Crystal Embedding
   Dimitrios Pantazis     : SARC Basis sets
   Anastasios Papadopoulos: AUTO-CI, single reference methods and gradients
   Taras Petrenko         : pre 6.0 DFT Hessian and TD-DFT gradient, (ASA, deprecated), ECA, 1-Electron XAS/XES, NRVS
   Peter Pinski           : DLPNO-MP2, DLPNO-MP2 Gradient
   Christoph Reimann      : Effective Core Potentials
   Marius Retegan         : Local ZFS, SOC
   Christoph Riplinger    : Optimizer, TS searches, QM/MM, DLPNO-CCSD(T), (RO)-DLPNO pert. Triples
   Michael Roemelt        : Original ROCIS implementation
   Masaaki Saitow         : Open-shell DLPNO-CCSD energy and density
   Barbara Sandhoefer     : DKH picture change effects
   Kantharuban Sivalingam : CASSCF convergence/infrastructure, NEVPT2 and variants, FIC-MRCI
   Bernardo de Souza      : ESD, SOC TD-DFT
   Georgi Stoychev        : AutoAux, RI-MP2 NMR, DLPNO-MP2 response, X2C
   Van Anh Tran           : RI-MP2 g-tensors
   Willem Van den Heuvel  : Paramagnetic NMR
   Zikuan Wang            : NOTCH, Electric field optimization 
   Frank Wennmohs         : Technical directorship and infrastructure
   Hang Xu                : AUTO-CI-Response properties 


 We gratefully acknowledge several colleagues who have allowed us to
 interface, adapt or use parts of their codes:
   Stefan Grimme, W. Hujo, H. Kruse, P. Pracht,  : VdW corrections, initial TS optimization,
                  C. Bannwarth, S. Ehlert,         DFT functionals, gCP, sTDA/sTD-DF
                  L. Wittmann, M. Mueller
   Ed Valeev, F. Pavosevic, A. Kumar             : LibInt (2-el integral package), F12 methods
   Garnet Chan, S. Sharma, J. Yang, R. Olivares  : DMRG
   Ulf Ekstrom                                   : XCFun DFT Library
   Mihaly Kallay                                 : mrcc  (arbitrary order and MRCC methods)
   Frank Weinhold                                : gennbo (NPA and NBO analysis)
   Simon Mueller                                 : openCOSMO-RS
   Christopher J. Cramer and Donald G. Truhlar   : smd solvation model
   Lars Goerigk                                  : TD-DFT with DH, B97 family of functionals
   V. Asgeirsson, H. Jonsson                     : NEB implementation
   FAccTs GmbH                                   : IRC, NEB, NEB-TS, DLPNO-Multilevel, CI-OPT
                                                   MM, QMMM, 2- and 3-layer-ONIOM, Crystal-QMMM,
                                                   LR-CPCM, SF, NACMEs, symmetry and pop. for TD-DFT,
                                                   nearIR, NL-DFT gradient (VV10), updates on ESD,
                                                   ML-optimized integration grids, MBIS, APM,
                                                   GOAT, DOCKER, SOLVATOR, interface openCOSMO-RS
   S Lehtola, MJT Oliveira, MAL Marques          : LibXC Library
   Liviu Ungur et al                             : ANISO software


 Your calculation uses the libint2 library for the computation of 2-el integrals
 For citations please refer to: http://libint.valeyev.net

 Your ORCA version has been built with support for libXC version: 6.2.2
 For citations please refer to: https://libxc.gitlab.io

 This ORCA versions uses:
   CBLAS   interface :  Fast vector & matrix operations
   LAPACKE interface :  Fast linear algebra routines
   SCALAPACK package :  Parallel linear algebra routines
   Shared memory     :  Shared parallel matrices
   BLAS/LAPACK       :  OpenBLAS 0.3.27  USE64BITINT DYNAMIC_ARCH NO_AFFINITY SapphireRapids SINGLE_THREADED
        Core in use  :  SapphireRapids
   Copyright (c) 2011-2014, The OpenBLAS Project


Your calculation utilizes the geometrical counterpoise correction gCP
Please cite in your paper:
H.Kruse, S. Grimme J.Chem.Phys., 136, (2012), 154101 
   

Your calculation utilizes the atom-pairwise dispersion correction
based on EEQ partial charges (D4)


================================================================================

----- Orbital basis set information -----
Your calculation utilizes the basis: def2-SV(P)
   F. Weigend and R. Ahlrichs, Phys. Chem. Chem. Phys. 7, 3297 (2005).

----- AuxJ basis set information -----
Your calculation utilizes the auxiliary basis: def2/J
   F. Weigend, Phys. Chem. Chem. Phys. 8, 1057 (2006).

================================================================================
                                        WARNINGS
                       Please study these warnings very carefully!
================================================================================


================================================================================
                                       INPUT FILE
================================================================================
NAME = sp.inp
|  1> ! pbe def2-sv(p) def2/J RI DEFGRID1 loosescf d4 GCP(DFT/SV(P)) printgap
|  2> %output
|  3>     printlevel normal
|  4> end
|  5> * xyz 0 1
|  6> C 3.2933104273 1.3143318489 -2.0982744855
|  7> C 2.1719512176 0.3495028248 -1.7781310049
|  8> O 1.5879227141 0.6620754663 -0.4842980637
|  9> P 2.0079089073 -0.0677433535 0.8452242758
| 10> S 1.3933196482 0.84845281 2.459323631
| 11> O 3.5873237558 -0.1752071024 0.7276815503
| 12> C 4.3678464986 -0.7561433288 1.7923350583
| 13> C 5.8213131053 -0.4075113868 1.5446708346
| 14> S 1.4483902978 -2.1259848769 0.5801868492
| 15> C -0.2226915879 -1.9286411538 -0.081829295
| 16> S -1.2719957256 -0.851060843 0.957896157
| 17> P -2.3629468701 0.0405196498 -0.6096340652
| 18> S -1.4351960867 0.4008299009 -2.3014847403
| 19> O -3.0830456836 1.2895234955 0.0552941705
| 20> C -2.5406834766 2.6200624629 0.0044823914
| 21> C -1.2601719673 2.7492129654 0.80136496
| 22> O -3.5324931951 -1.0227657276 -0.7083114263
| 23> C -4.4018258169 -1.1184020105 -1.8574031383
| 24> C -5.3105383739 0.0860615869 -1.9836927972
| 25> H 3.6669672453 1.101155248 -3.0948599127
| 26> H 2.9256663135 2.3361024113 -2.0642823481
| 27> H 4.0999024465 1.2055125173 -1.3782881252
| 28> H 2.5294326502 -0.6831607498 -1.7667498543
| 29> H 1.3438161538 0.4516745524 -2.4838236581
| 30> H 4.0116933027 -0.3506868541 2.7449898446
| 31> H 4.2060813308 -1.8376521555 1.7811326259
| 32> H 5.9526033106 0.6708596732 1.5510013695
| 33> H 6.4297634537 -0.8460016596 2.328578405
| 34> H 6.1389441963 -0.7979445599 0.582262912
| 35> H -0.6472490394 -2.9297417044 -0.1050231919
| 36> H -0.174017898 -1.4961573649 -1.0841468878
| 37> H -2.3654058698 2.8830072594 -1.0439476818
| 38> H -3.3351743675 3.2424000183 0.4182312896
| 39> H -0.9491228746 3.7885235475 0.8275451803
| 40> H -1.3995875269 2.3935624805 1.8200448135
| 41> H -0.4651073459 2.161230673 0.3412807213
| 42> H -3.7799801561 -1.2294386292 -2.7514559592
| 43> H -4.9657214539 -2.0346256378 -1.6789866896
| 44> H -5.8482389772 0.2499715338 -1.0534484766
| 45> H -4.7226696858 0.974520925 -2.2109314709
| 46> H -6.0201914779 -0.0815095024 -2.7878888135
| 47> *
| 48> 
| 49>                          ****END OF INPUT****
================================================================================

                       ****************************
                       * Single Point Calculation *
                       ****************************

---------------------------------
CARTESIAN COORDINATES (ANGSTROEM)
---------------------------------
  C      3.293310    1.314332   -2.098274
  C      2.171951    0.349503   -1.778131
  O      1.587923    0.662075   -0.484298
  P      2.007909   -0.067743    0.845224
  S      1.393320    0.848453    2.459324
  O      3.587324   -0.175207    0.727682
  C      4.367846   -0.756143    1.792335
  C      5.821313   -0.407511    1.544671
  S      1.448390   -2.125985    0.580187
  C     -0.222692   -1.928641   -0.081829
  S     -1.271996   -0.851061    0.957896
  P     -2.362947    0.040520   -0.609634
  S     -1.435196    0.400830   -2.301485
  O     -3.083046    1.289523    0.055294
  C     -2.540683    2.620062    0.004482
  C     -1.260172    2.749213    0.801365
  O     -3.532493   -1.022766   -0.708311
  C     -4.401826   -1.118402   -1.857403
  C     -5.310538    0.086062   -1.983693
  H      3.666967    1.101155   -3.094860
  H      2.925666    2.336102   -2.064282
  H      4.099902    1.205513   -1.378288
  H      2.529433   -0.683161   -1.766750
  H      1.343816    0.451675   -2.483824
  H      4.011693   -0.350687    2.744990
  H      4.206081   -1.837652    1.781133
  H      5.952603    0.670860    1.551001
  H      6.429763   -0.846002    2.328578
  H      6.138944   -0.797945    0.582263
  H     -0.647249   -2.929742   -0.105023
  H     -0.174018   -1.496157   -1.084147
  H     -2.365406    2.883007   -1.043948
  H     -3.335174    3.242400    0.418231
  H     -0.949123    3.788524    0.827545
  H     -1.399588    2.393562    1.820045
  H     -0.465107    2.161231    0.341281
  H     -3.779980   -1.229439   -2.751456
  H     -4.965721   -2.034626   -1.678987
  H     -5.848239    0.249972   -1.053448
  H     -4.722670    0.974521   -2.210931
  H     -6.020191   -0.081510   -2.787889

----------------------------
CARTESIAN COORDINATES (A.U.)
----------------------------
  NO LB      ZA    FRAG     MASS         X           Y           Z
   0 C     6.0000    0    12.011    6.223455    2.483727   -3.965164
   1 C     6.0000    0    12.011    4.104393    0.660465   -3.360181
   2 O     8.0000    0    15.999    3.000739    1.251141   -0.915191
   3 P    15.0000    0    30.974    3.794398   -0.128016    1.597242
   4 S    16.0000    0    32.060    2.632993    1.603343    4.647448
   5 O     8.0000    0    15.999    6.779059   -0.331093    1.375119
   6 C     6.0000    0    12.011    8.254034   -1.428904    3.387022
   7 C     6.0000    0    12.011   11.000688   -0.770085    2.919005
   8 S    16.0000    0    32.060    2.737061   -4.017529    1.096394
   9 C     6.0000    0    12.011   -0.420826   -3.644604   -0.154635
  10 S    16.0000    0    32.060   -2.403724   -1.608272    1.810161
  11 P    15.0000    0    30.974   -4.465322    0.076571   -1.152041
  12 S    16.0000    0    32.060   -2.712128    0.757459   -4.349176
  13 O     8.0000    0    15.999   -5.826112    2.436846    0.104491
  14 C     6.0000    0    12.011   -4.801196    4.951201    0.008470
  15 C     6.0000    0    12.011   -2.381380    5.195260    1.514360
  16 O     8.0000    0    15.999   -6.675445   -1.932747   -1.338515
  17 C     6.0000    0    12.011   -8.318245   -2.113474   -3.509983
  18 C     6.0000    0    12.011  -10.035463    0.162633   -3.748636
  19 H     1.0000    0     1.008    6.929564    2.080882   -5.848438
  20 H     1.0000    0     1.008    5.528708    4.414594   -3.900928
  21 H     1.0000    0     1.008    7.747693    2.278089   -2.604587
  22 H     1.0000    0     1.008    4.779935   -1.290987   -3.338673
  23 H     1.0000    0     1.008    2.539445    0.853541   -4.693746
  24 H     1.0000    0     1.008    7.581002   -0.662702    5.187279
  25 H     1.0000    0     1.008    7.948342   -3.472659    3.365853
  26 H     1.0000    0     1.008   11.248790    1.267741    2.930968
  27 H     1.0000    0     1.008   12.150492   -1.598711    4.400375
  28 H     1.0000    0     1.008   11.600923   -1.507897    1.100317
  29 H     1.0000    0     1.008   -1.223123   -5.536409   -0.198465
  30 H     1.0000    0     1.008   -0.328846   -2.827328   -2.048741
  31 H     1.0000    0     1.008   -4.469969    5.448094   -1.972775
  32 H     1.0000    0     1.008   -6.302566    6.127248    0.790343
  33 H     1.0000    0     1.008   -1.793582    7.159272    1.563834
  34 H     1.0000    0     1.008   -2.644837    4.523178    3.439386
  35 H     1.0000    0     1.008   -0.878926    4.084134    0.644927
  36 H     1.0000    0     1.008   -7.143127   -2.323302   -5.199498
  37 H     1.0000    0     1.008   -9.383854   -3.844885   -3.172825
  38 H     1.0000    0     1.008  -11.051570    0.472378   -1.990729
  39 H     1.0000    0     1.008   -8.924552    1.841578   -4.178055
  40 H     1.0000    0     1.008  -11.376513   -0.154031   -5.268346

--------------------------------
INTERNAL COORDINATES (ANGSTROEM)
--------------------------------
 C      0   0   0     0.000000000000     0.00000000     0.00000000
 C      1   0   0     1.513549923556     0.00000000     0.00000000
 O      2   1   0     1.453545537246   110.41876988     0.00000000
 P      3   2   1     1.573738721466   123.02724796   263.68371812
 S      4   3   2     1.955109228629   113.34417163   165.71254018
 O      4   3   2     1.587424333097   103.55412979    41.76146689
 C      6   4   3     1.442286290328   120.73371188   177.92398189
 C      7   6   4     1.515073257462   107.80711089   193.80323691
 S      4   3   2     2.149340382658   105.69074630   296.36832891
 C      9   4   3     1.808237979068   100.44029675   313.81901609
 S     10   9   4     1.828454953001   112.73565248   307.73591482
 P     11  10   9     2.107662490139    97.09036505   144.93186654
 S     12  11  10     1.962881478843   118.29678338   324.53872262
 O     12  11  10     1.587665728801   104.83712602   194.07766744
 C     14  12  11     1.437731735842   122.82939754    95.91282846
 C     15  14  12     1.513740864839   112.30054478   292.84276946
 O     12  11  10     1.583714501325    98.31286172    88.53207954
 C     17  12  11     1.444055839820   122.58956182   196.93798694
 C     18  17  12     1.514080627528   112.02417387   291.61016523
 H      1   2   3     1.085470494540   108.90761136   183.72645731
 H      1   2   3     1.086431195246   110.01051218   303.45416136
 H      1   2   3     1.086652056265   110.23993532    63.62020949
 H      2   1   3     1.092847914190   111.23590833   238.86019626
 H      2   1   3     1.092816941027   111.42297556   115.64986291
 H      7   6   4     1.094893233921   108.48644687   314.87610864
 H      7   6   4     1.093597186461   108.10289552    73.04448657
 H      8   7   6     1.086352307829   110.08450760    60.88050543
 H      8   7   6     1.084894752840   109.08149231   180.70848161
 H      8   7   6     1.086073930315   110.04131695   300.64064080
 H     10   9   4     1.087653115147   105.55070049   188.48489901
 H     10   9   4     1.092726824319   109.74592077    68.53473960
 H     15  14  12     1.095019554091   108.44812453    55.08424249
 H     15  14  12     1.090737346636   103.87728841   172.12490405
 H     16  15  14     1.085174376803   109.68721066   186.35546384
 H     16  15  14     1.087948808352   110.89294394   306.92478556
 H     16  15  14     1.090655048619   110.40134758    66.82340589
 H     18  17  12     1.094692469650   108.33889567    54.00940719
 H     18  17  12     1.090539524188   103.69429021   170.86540847
 H     19  18  17     1.086895995710   110.21184472   306.93681032
 H     19  18  17     1.089305744376   110.01916828    66.93221871
 H     19  18  17     1.085550012951   109.35032152   186.51069890

---------------------------
INTERNAL COORDINATES (A.U.)
---------------------------
 C      0   0   0     0.000000000000     0.00000000     0.00000000
 C      1   0   0     2.860194845538     0.00000000     0.00000000
 O      2   1   0     2.746802988579   110.41876988     0.00000000
 P      3   2   1     2.973935189919   123.02724796   263.68371812
 S      4   3   2     3.694621004011   113.34417163   165.71254018
 O      4   3   2     2.999797247876   103.55412979    41.76146689
 C      6   4   3     2.725526095429   120.73371188   177.92398189
 C      7   6   4     2.863073529431   107.80711089   193.80323691
 S      4   3   2     4.061664691801   105.69074630   296.36832891
 C      9   4   3     3.417074565393   100.44029675   313.81901609
 S     10   9   4     3.455279109384   112.73565248   307.73591482
 P     11  10   9     3.982904889101    97.09036505   144.93186654
 S     12  11  10     3.709308428359   118.29678338   324.53872262
 O     12  11  10     3.000253419646   104.83712602   194.07766744
 C     14  12  11     2.716919234788   122.82939754    95.91282846
 C     15  14  12     2.860555672271   112.30054478   292.84276946
 O     12  11  10     2.992786681824    98.31286172    88.53207954
 C     17  12  11     2.728870059350   122.58956182   196.93798694
 C     18  17  12     2.861197730704   112.02417387   291.61016523
 H      1   2   3     2.051241961132   108.90761136   183.72645731
 H      1   2   3     2.053057422364   110.01051218   303.45416136
 H      1   2   3     2.053474789203   110.23993532    63.62020949
 H      2   1   3     2.065183263845   111.23590833   238.86019626
 H      2   1   3     2.065124733051   111.42297556   115.64986291
 H      7   6   4     2.069048357994   108.48644687   314.87610864
 H      7   6   4     2.066599183238   108.10289552    73.04448657
 H      8   7   6     2.052908346750   110.08450760    60.88050543
 H      8   7   6     2.050153966995   109.08149231   180.70848161
 H      8   7   6     2.052382289487   110.04131695   300.64064080
 H     10   9   4     2.055366516334   105.55070049   188.48489901
 H     10   9   4     2.064954437152   109.74592077    68.53473960
 H     15  14  12     2.069287068521   108.44812453    55.08424249
 H     15  14  12     2.061194869182   103.87728841   172.12490405
 H     16  15  14     2.050682379706   109.68721066   186.35546384
 H     16  15  14     2.055925295512   110.89294394   306.92478556
 H     16  15  14     2.061039348468   110.40134758    66.82340589
 H     18  17  12     2.068668968503   108.33889567    54.00940719
 H     18  17  12     2.060821038933   103.69429021   170.86540847
 H     19  18  17     2.053935767948   110.21184472   306.93681032
 H     19  18  17     2.058489532978   110.01916828    66.93221871
 H     19  18  17     2.051392229153   109.35032152   186.51069890

---------------------
BASIS SET INFORMATION
---------------------
There are 5 groups of distinct atoms

 Group   1 Type C   : 7s4p1d contracted to 3s2p1d pattern {511/31/1}
 Group   2 Type O   : 7s4p1d contracted to 3s2p1d pattern {511/31/1}
 Group   3 Type P   : 10s7p1d contracted to 4s3p1d pattern {5311/511/1}
 Group   4 Type S   : 10s7p1d contracted to 4s3p1d pattern {5311/511/1}
 Group   5 Type H   : 4s contracted to 2s pattern {31}

Atom   0C    basis set group =>   1
Atom   1C    basis set group =>   1
Atom   2O    basis set group =>   2
Atom   3P    basis set group =>   3
Atom   4S    basis set group =>   4
Atom   5O    basis set group =>   2
Atom   6C    basis set group =>   1
Atom   7C    basis set group =>   1
Atom   8S    basis set group =>   4
Atom   9C    basis set group =>   1
Atom  10S    basis set group =>   4
Atom  11P    basis set group =>   3
Atom  12S    basis set group =>   4
Atom  13O    basis set group =>   2
Atom  14C    basis set group =>   1
Atom  15C    basis set group =>   1
Atom  16O    basis set group =>   2
Atom  17C    basis set group =>   1
Atom  18C    basis set group =>   1
Atom  19H    basis set group =>   5
Atom  20H    basis set group =>   5
Atom  21H    basis set group =>   5
Atom  22H    basis set group =>   5
Atom  23H    basis set group =>   5
Atom  24H    basis set group =>   5
Atom  25H    basis set group =>   5
Atom  26H    basis set group =>   5
Atom  27H    basis set group =>   5
Atom  28H    basis set group =>   5
Atom  29H    basis set group =>   5
Atom  30H    basis set group =>   5
Atom  31H    basis set group =>   5
Atom  32H    basis set group =>   5
Atom  33H    basis set group =>   5
Atom  34H    basis set group =>   5
Atom  35H    basis set group =>   5
Atom  36H    basis set group =>   5
Atom  37H    basis set group =>   5
Atom  38H    basis set group =>   5
Atom  39H    basis set group =>   5
Atom  40H    basis set group =>   5
---------------------------------
AUXILIARY/J BASIS SET INFORMATION
---------------------------------
There are 5 groups of distinct atoms

 Group   1 Type C   : 12s5p4d2f1g contracted to 6s4p3d1f1g pattern {711111/2111/211/2/1}
 Group   2 Type O   : 12s5p4d2f1g contracted to 6s4p3d1f1g pattern {711111/2111/211/2/1}
 Group   3 Type P   : 14s5p5d2f1g contracted to 8s4p3d1f1g pattern {71111111/2111/311/2/1}
 Group   4 Type S   : 14s5p5d2f1g contracted to 8s4p3d1f1g pattern {71111111/2111/311/2/1}
 Group   5 Type H   : 5s2p1d contracted to 3s1p1d pattern {311/2/1}

Atom   0C    basis set group =>   1
Atom   1C    basis set group =>   1
Atom   2O    basis set group =>   2
Atom   3P    basis set group =>   3
Atom   4S    basis set group =>   4
Atom   5O    basis set group =>   2
Atom   6C    basis set group =>   1
Atom   7C    basis set group =>   1
Atom   8S    basis set group =>   4
Atom   9C    basis set group =>   1
Atom  10S    basis set group =>   4
Atom  11P    basis set group =>   3
Atom  12S    basis set group =>   4
Atom  13O    basis set group =>   2
Atom  14C    basis set group =>   1
Atom  15C    basis set group =>   1
Atom  16O    basis set group =>   2
Atom  17C    basis set group =>   1
Atom  18C    basis set group =>   1
Atom  19H    basis set group =>   5
Atom  20H    basis set group =>   5
Atom  21H    basis set group =>   5
Atom  22H    basis set group =>   5
Atom  23H    basis set group =>   5
Atom  24H    basis set group =>   5
Atom  25H    basis set group =>   5
Atom  26H    basis set group =>   5
Atom  27H    basis set group =>   5
Atom  28H    basis set group =>   5
Atom  29H    basis set group =>   5
Atom  30H    basis set group =>   5
Atom  31H    basis set group =>   5
Atom  32H    basis set group =>   5
Atom  33H    basis set group =>   5
Atom  34H    basis set group =>   5
Atom  35H    basis set group =>   5
Atom  36H    basis set group =>   5
Atom  37H    basis set group =>   5
Atom  38H    basis set group =>   5
Atom  39H    basis set group =>   5
Atom  40H    basis set group =>   5
------------------------------------------------------------------------------
                             ORCA STARTUP CALCULATIONS
                           -- RI-GTO INTEGRALS CHOSEN --
------------------------------------------------------------------------------
------------------------------------------------------------------------------
                   ___                                                        
                  /   \      - P O W E R E D   B Y -                         
                 /     \                                                     
                 |  |  |   _    _      __       _____    __    __             
                 |  |  |  | |  | |    /  \     |  _  \  |  |  /  |          
                  \  \/   | |  | |   /    \    | | | |  |  | /  /          
                 / \  \   | |__| |  /  /\  \   | |_| |  |  |/  /          
                |  |  |   |  __  | /  /__\  \  |    /   |      \           
                |  |  |   | |  | | |   __   |  |    \   |  |\   \          
                \     /   | |  | | |  |  |  |  | |\  \  |  | \   \       
                 \___/    |_|  |_| |__|  |__|  |_| \__\ |__|  \__/        
                                                                              
                      - O R C A' S   B I G   F R I E N D -                    
                                      &                                       
                       - I N T E G R A L  F E E D E R -                       
                                                                              
 v1 FN, 2020, v2 2021, v3 2022-2024                                           
------------------------------------------------------------------------------


----------------------
SHARK INTEGRAL PACKAGE
----------------------

Number of atoms                             ...     41
Number of basis functions                   ...    334
Number of shells                            ...    170
Maximum angular momentum                    ...      2
Integral batch strategy                     ... SHARK/LIBINT Hybrid
RI-J (if used) integral strategy            ... SPLIT-RIJ (Revised 2003 algorithm where possible)
Printlevel                                  ...      1
Contraction scheme used                     ... SEGMENTED contraction
Prescreening option                         ... SCHWARTZ
   Thresh                                   ... 1.000e-09
   Tcut                                     ... 1.000e-10
   Tpresel                                  ... 1.000e-10 
Coulomb Range Separation                    ... NOT USED
Exchange Range Separation                   ... NOT USED
Multipole approximations                    ... NOT USED
Finite Nucleus Model                        ... NOT USED
CABS basis                                  ... NOT available
Auxiliary Coulomb fitting basis             ... AVAILABLE
   # of basis functions in Aux-J            ...   1185
   # of shells in Aux-J                     ...    407
   Maximum angular momentum in Aux-J        ...      4
Auxiliary J/K fitting basis                 ... NOT available
Auxiliary Correlation fitting basis         ... NOT available
Auxiliary 'external' fitting basis          ... NOT available

Checking pre-screening integrals            ... done (  0.0 sec) Dimension = 170
Check shell pair data                       ... done (  0.0 sec)
Shell pair information
Shell pair cut-off parameter TPreSel        ...   1.0e-10
Total number of shell pairs                 ...     14535
Shell pairs after pre-screening             ...     10030
Total number of primitive shell pairs       ...     62501
Primitive shell pairs kept                  ...     24944
          la=0 lb=0:   3893 shell pairs
          la=1 lb=0:   3394 shell pairs
          la=1 lb=1:    788 shell pairs
          la=2 lb=0:   1269 shell pairs
          la=2 lb=1:    576 shell pairs
          la=2 lb=2:    110 shell pairs

Calculating one electron integrals          ... done (  0.1 sec)
Calculating RI/J V-Matrix + Cholesky decomp.... done (  0.1 sec)
Calculating Nuclear repulsion               ... done (  0.0 sec) ENN=   2755.517641805551 Eh

Diagonalization of the overlap matrix:
Smallest eigenvalue                        ... 3.111e-03
Time for diagonalization                   ...    0.010 sec
Threshold for overlap eigenvalues          ... 1.000e-07
Number of eigenvalues below threshold      ... 0
Time for construction of square roots      ...    0.021 sec
Total time needed                          ...    0.039 sec

-------------------
DFT GRID GENERATION
-------------------

General Integration Accuracy     IntAcc      ... 4.159
Radial Grid Type                 RadialGrid  ... OptM3 with GC (2021)
Angular Grid (max. ang.)         AngularGrid ... 3 (Lebedev-194)
Angular grid pruning method      GridPruning ... 4 (adaptive)
Weight generation scheme         WeightScheme... mBecke (2022)
Basis function cutoff            BFCut       ... 1.0000e-10
Integration weight cutoff        WCut        ... 1.0000e-14
Partially contracted basis set               ... off
Rotationally invariant grid construction     ... off
Angular grids for H and He will be reduced by one unit

Total number of grid points                  ...    97459
Total number of batches                      ...     1538
Average number of points per batch           ...       63
Average number of grid points per atom       ...     2377
Initializing property integral containers    ... done (  0.0 sec)

SHARK setup successfully completed in   1.5 seconds

Maximum memory used throughout the entire STARTUP-calculation: 51.5 MB
-------------------------------------------------------------------------------
                                 ORCA GUESS
                   Start orbitals & Density for SCF / CASSCF
-------------------------------------------------------------------------------

------------
SCF SETTINGS
------------
Hamiltonian:
 Density Functional     Method          .... DFT(GTOs)
 Exchange Functional    Exchange        .... PBE
   PBE kappa parameter   XKappa         ....  0.804000
   PBE mue parameter    XMuePBE         ....  0.219520
 Correlation Functional Correlation     .... PBE
   PBE beta parameter  CBetaPBE         ....  0.066725
 LDA part of GGA corr.  LDAOpt          .... PW91-LDA
 Gradients option       PostSCFGGA      .... off
   NL short-range parameter             ....  6.400000
 RI-approximation to the Coulomb term is turned on
   Number of AuxJ basis functions       .... 1185


General Settings:
 Integral files         IntName         .... sp
 Hartree-Fock type      HFTyp           .... RHF
 Total Charge           Charge          ....    0
 Multiplicity           Mult            ....    1
 Number of Electrons    NEL             ....  202
 Basis Dimension        Dim             ....  334
 Nuclear Repulsion      ENuc            ....   2755.5176418056 Eh

Convergence Acceleration:
 AO-DIIS                CNVDIIS         .... on
   Start iteration      DIISMaxIt       ....    12
   Startup error        DIISStart       ....  0.200000
   # of expansion vecs  DIISMaxEq       ....     5
   Bias factor          DIISBfac        ....   1.050
   Max. coefficient     DIISMaxC        ....  10.000
 MO-DIIS                CNVKDIIS        .... off
 Trust-Rad. Augm. Hess. CNVTRAH         .... auto
   Auto Start mean grad. ratio tolernc. ....  1.125000
   Auto Start start iteration           ....    50
   Auto Start num. interpolation iter.  ....    10
   Max. Number of Micro iterations      ....    24
   Max. Number of Macro iterations      .... Maxiter - #DIIS iter
   Number of Davidson start vectors     ....     2
   Converg. threshold    (grad. norm)   ....   1.000e-04
   Grad. Scal. Fac. for Micro threshold ....   0.100
   Minimum threshold for Micro iter.    ....   1.000e-02
   NR start threshold (gradient norm)   ....   1.000e-04
   Initial trust radius                 ....   0.400
   Minimum AH scaling param. (alpha)    ....   1.000
   Maximum AH scaling param. (alpha)    .... 1000.000
   Quad. conv. algorithm                .... NR
   White noise on init. David. guess    .... on
   Maximum white noise                  ....   0.010
   Pseudo random numbers                .... off
   Inactive MOs                         .... canonical
   Orbital update algorithm             .... Taylor
   Preconditioner                       .... Diag
   Full preconditioner red. dimension   ....   250
 SOSCF                  CNVSOSCF        .... on
   Start iteration      SOSCFMaxIt      ....   150
   Startup grad/error   SOSCFStart      ....  0.003300
   Hessian update       SOSCFHessUp     .... L-BFGS
 Level Shifting         CNVShift        .... on
   Level shift para.    LevelShift      ....    0.2500
   Turn off err/grad.   ShiftErr        ....    0.0010
 Zerner damping         CNVZerner       .... off
 Static damping         CNVDamp         .... on
   Fraction old density DampFac         ....    0.7000
   Max. Damping (<1)    DampMax         ....    0.9800
   Min. Damping (>=0)   DampMin         ....    0.0000
   Turn off err/grad.   DampErr         ....    0.1000

SCF Procedure:
 Maximum # iterations   MaxIter         ....   125
 SCF integral mode      SCFMode         .... Direct
   Integral package                     .... SHARK and LIBINT hybrid scheme
 Reset frequency        DirectResetFreq ....    20
 Integral Threshold     Thresh          ....  1.000e-09 Eh
 Primitive CutOff       TCut            ....  1.000e-10 Eh

Convergence Tolerance:
 Convergence Check Mode ConvCheckMode   .... Total+1el-Energy
 Convergence forced     ConvForced      .... 0
 Energy Change          TolE            ....  1.000e-05 Eh
 1-El. energy change                    ....  1.000e-02 Eh
 Orbital Gradient       TolG            ....  1.000e-04
 Orbital Rotation angle TolX            ....  1.000e-04
 DIIS Error             TolErr          ....  5.000e-04

------------------------------
INITIAL GUESS: MODEL POTENTIAL
------------------------------
Loading Hartree-Fock densities                     ... done
Calculating cut-offs                               ... done
Initializing the effective Hamiltonian             ... done
Setting up the integral package (SHARK)            ... done
Starting the Coulomb interaction                   ... done (   0.6 sec)
Making the grid                                    ... done (   0.5 sec)
Mapping shells                                     ... done
Starting the XC term evaluation                    ... done (   0.4 sec)
  promolecular density results
     # of electrons  =    201.985607088
     EX              =   -229.992087903
     EC              =     -7.283905207
     EX+EC           =   -237.275993110
Transforming the Hamiltonian                       ... done (   0.0 sec)
Diagonalizing the Hamiltonian                      ... done (   0.0 sec)
Back transforming the eigenvectors                 ... done (   0.0 sec)
Now organizing SCF variables                       ... done
                      ------------------
                      INITIAL GUESS DONE (   1.6 sec)
                      ------------------
             **** ENERGY FILE WAS UPDATED (sp.en.tmp) ****
Finished Guess after   1.9 sec
Maximum memory used throughout the entire GUESS-calculation: 38.8 MB

-------------------------------------------------------------------------------------------
                                      ORCA LEAN-SCF
                              memory conserving SCF solver
-------------------------------------------------------------------------------------------

----------------------------------------D-I-I-S--------------------------------------------
Iteration    Energy (Eh)           Delta-E    RMSDP     MaxDP     DIISErr   Damp  Time(sec)
-------------------------------------------------------------------------------------------
               ***  Starting incremental Fock matrix formation  ***
    1    -2929.1934509776979212     0.00e+00  2.68e-03  1.41e-01  1.83e-01  0.700   2.2
    2    -2929.4165053499914393    -2.23e-01  1.73e-03  7.14e-02  7.56e-02  0.700   2.1
                               ***Turning on AO-DIIS***
    3    -2929.4872789611658845    -7.08e-02  6.81e-04  1.86e-02  2.20e-02  0.700   2.0
    4    -2929.5320094583962600    -4.47e-02  1.04e-03  3.48e-02  1.01e-02  0.000   1.9
    5    -2929.6362383413238604    -1.04e-01  3.07e-04  1.23e-02  8.22e-03  0.000   2.0
                              *** Initializing SOSCF ***
---------------------------------------S-O-S-C-F--------------------------------------
Iteration    Energy (Eh)           Delta-E    RMSDP     MaxDP     MaxGrad    Time(sec)
--------------------------------------------------------------------------------------
    6    -2929.6373024426488882    -1.06e-03  1.08e-04  3.63e-03  2.24e-03     1.9
               *** Restarting incremental Fock matrix formation ***
    7    -2929.6374335399027586    -1.31e-04  7.22e-05  2.06e-03  2.36e-04     2.2
    8    -2929.6374378265486484    -4.29e-06  3.05e-05  1.03e-03  1.87e-04     1.7
                 **** Energy Check signals convergence ****

               *****************************************************
               *                     SUCCESS                       *
               *           SCF CONVERGED AFTER   8 CYCLES          *
               *****************************************************

             **** ENERGY FILE WAS UPDATED (sp.en.tmp) ****

----------------
TOTAL SCF ENERGY
----------------

Total Energy       :      -2929.63743782654865 Eh          -79719.48754 eV

Components:
Nuclear Repulsion  :       2755.51764180555119 Eh           74981.44702 eV
Electronic Energy  :      -5685.15507963209984 Eh         -154700.93456 eV
One Electron Energy:      -9529.90286958859724 Eh         -259321.84075 eV
Two Electron Energy:       3844.74778995649740 Eh          104620.90619 eV

Virial components:
Potential Energy   :      -5848.93898382290081 Eh         -159157.72117 eV
Kinetic Energy     :       2919.30154599635216 Eh           79438.23363 eV
Virial Ratio       :          2.00354053586700

DFT components:
N(Alpha)           :      101.000252605359 electrons
N(Beta)            :      101.000252605359 electrons
N(Total)           :      202.000505210719 electrons
E(X)               :     -231.805067640092 Eh       
E(C)               :       -7.292645477050 Eh       
E(XC)              :     -239.097713117141 Eh       

---------------
SCF CONVERGENCE
---------------

  Last Energy change         ...    4.2866e-06  Tolerance :   1.0000e-05
  Last MAX-Density change    ...    1.0283e-03  Tolerance :   1.0000e-03
  Last RMS-Density change    ...    3.0470e-05  Tolerance :   1.0000e-04
  Last DIIS Error            ...    2.2360e-03  Tolerance :   5.0000e-04
  Last Orbital Gradient      ...    1.8742e-04  Tolerance :   1.0000e-04
  Last Orbital Rotation      ...    3.5673e-04  Tolerance :   1.0000e-04


----------------
ORBITAL ENERGIES
----------------

  NO   OCC          E(Eh)            E(eV) 
   0   2.0000     -88.040528     -2395.7046 
   1   2.0000     -88.039054     -2395.6644 
   2   2.0000     -87.992165     -2394.3885 
   3   2.0000     -87.978320     -2394.0118 
   4   2.0000     -76.426721     -2079.6768 
   5   2.0000     -76.424692     -2079.6216 
   6   2.0000     -18.794732      -511.4306 
   7   2.0000     -18.793815      -511.4057 
   8   2.0000     -18.793688      -511.4022 
   9   2.0000     -18.788672      -511.2658 
  10   2.0000      -9.955919      -270.9143 
  11   2.0000      -9.955536      -270.9039 
  12   2.0000      -9.951653      -270.7982 
  13   2.0000      -9.950614      -270.7700 
  14   2.0000      -9.947578      -270.6874 
  15   2.0000      -9.891103      -269.1506 
  16   2.0000      -9.884871      -268.9810 
  17   2.0000      -9.883352      -268.9397 
  18   2.0000      -9.869522      -268.5633 
  19   2.0000      -7.685700      -209.1385 
  20   2.0000      -7.684068      -209.0941 
  21   2.0000      -7.636955      -207.8121 
  22   2.0000      -7.623605      -207.4488 
  23   2.0000      -6.424484      -174.8191 
  24   2.0000      -6.422030      -174.7523 
  25   2.0000      -5.713616      -155.4754 
  26   2.0000      -5.711993      -155.4312 
  27   2.0000      -5.710182      -155.3819 
  28   2.0000      -5.708808      -155.3446 
  29   2.0000      -5.702701      -155.1784 
  30   2.0000      -5.700719      -155.1245 
  31   2.0000      -5.665581      -154.1683 
  32   2.0000      -5.657812      -153.9569 
  33   2.0000      -5.657154      -153.9390 
  34   2.0000      -5.652689      -153.8175 
  35   2.0000      -5.644152      -153.5852 
  36   2.0000      -5.643633      -153.5711 
  37   2.0000      -4.646915      -126.4490 
  38   2.0000      -4.646109      -126.4271 
  39   2.0000      -4.645203      -126.4024 
  40   2.0000      -4.645193      -126.4021 
  41   2.0000      -4.643961      -126.3686 
  42   2.0000      -4.641788      -126.3095 
  43   2.0000      -0.990188       -26.9444 
  44   2.0000      -0.986220       -26.8364 
  45   2.0000      -0.947284       -25.7769 
  46   2.0000      -0.945550       -25.7297 
  47   2.0000      -0.760130       -20.6842 
  48   2.0000      -0.720860       -19.6156 
  49   2.0000      -0.708998       -19.2928 
  50   2.0000      -0.692896       -18.8547 
  51   2.0000      -0.682896       -18.5825 
  52   2.0000      -0.671867       -18.2824 
  53   2.0000      -0.648706       -17.6522 
  54   2.0000      -0.638045       -17.3621 
  55   2.0000      -0.598584       -16.2883 
  56   2.0000      -0.586169       -15.9505 
  57   2.0000      -0.570071       -15.5124 
  58   2.0000      -0.569676       -15.5017 
  59   2.0000      -0.561848       -15.2886 
  60   2.0000      -0.508932       -13.8488 
  61   2.0000      -0.492040       -13.3891 
  62   2.0000      -0.482134       -13.1195 
  63   2.0000      -0.470828       -12.8119 
  64   2.0000      -0.449782       -12.2392 
  65   2.0000      -0.445144       -12.1130 
  66   2.0000      -0.442545       -12.0423 
  67   2.0000      -0.436136       -11.8679 
  68   2.0000      -0.430526       -11.7152 
  69   2.0000      -0.417663       -11.3652 
  70   2.0000      -0.405667       -11.0388 
  71   2.0000      -0.393891       -10.7183 
  72   2.0000      -0.391616       -10.6564 
  73   2.0000      -0.386826       -10.5261 
  74   2.0000      -0.381387       -10.3781 
  75   2.0000      -0.381180       -10.3724 
  76   2.0000      -0.361998        -9.8505 
  77   2.0000      -0.355864        -9.6835 
  78   2.0000      -0.354361        -9.6426 
  79   2.0000      -0.350323        -9.5328 
  80   2.0000      -0.344977        -9.3873 
  81   2.0000      -0.343716        -9.3530 
  82   2.0000      -0.338129        -9.2010 
  83   2.0000      -0.334965        -9.1149 
  84   2.0000      -0.328645        -8.9429 
  85   2.0000      -0.319158        -8.6847 
  86   2.0000      -0.311289        -8.4706 
  87   2.0000      -0.302573        -8.2334 
  88   2.0000      -0.296657        -8.0724 
  89   2.0000      -0.288157        -7.8412 
  90   2.0000      -0.282911        -7.6984 
  91   2.0000      -0.273880        -7.4526 
  92   2.0000      -0.271364        -7.3842 
  93   2.0000      -0.264521        -7.1980 
  94   2.0000      -0.256521        -6.9803 
  95   2.0000      -0.239985        -6.5303 
  96   2.0000      -0.221246        -6.0204 
  97   2.0000      -0.211186        -5.7467 
  98   2.0000      -0.208754        -5.6805 
  99   2.0000      -0.192742        -5.2448 
 100   2.0000      -0.185946        -5.0599 
 101   0.0000      -0.045411        -1.2357 
 102   0.0000      -0.031916        -0.8685 
 103   0.0000      -0.014407        -0.3920 
 104   0.0000       0.007738         0.2106 
 105   0.0000       0.024342         0.6624 
 106   0.0000       0.026813         0.7296 
 107   0.0000       0.036379         0.9899 
 108   0.0000       0.037340         1.0161 
 109   0.0000       0.043696         1.1890 
 110   0.0000       0.049686         1.3520 
 111   0.0000       0.052170         1.4196 
*Only the first 10 virtual orbitals were printed.

                    ********************************
                    * MULLIKEN POPULATION ANALYSIS *
                    ********************************

-----------------------
MULLIKEN ATOMIC CHARGES
-----------------------
   0 C :   -0.284654
   1 C :   -0.030369
   2 O :   -0.351411
   3 P :    0.601235
   4 S :   -0.295315
   5 O :   -0.381742
   6 C :   -0.017018
   7 C :   -0.282425
   8 S :   -0.123426
   9 C :   -0.346572
  10 S :   -0.055898
  11 P :    0.616316
  12 S :   -0.344271
  13 O :   -0.370637
  14 C :   -0.002788
  15 C :   -0.336282
  16 O :   -0.366576
  17 C :   -0.003706
  18 C :   -0.308235
  19 H :    0.108619
  20 H :    0.119904
  21 H :    0.120704
  22 H :    0.100175
  23 H :    0.126481
  24 H :    0.108728
  25 H :    0.106526
  26 H :    0.123781
  27 H :    0.114228
  28 H :    0.116479
  29 H :    0.183741
  30 H :    0.193346
  31 H :    0.106383
  32 H :    0.103380
  33 H :    0.107596
  34 H :    0.124631
  35 H :    0.150787
  36 H :    0.108376
  37 H :    0.105613
  38 H :    0.120155
  39 H :    0.122222
  40 H :    0.111919
Sum of atomic charges:    0.0000000

--------------------------------
MULLIKEN REDUCED ORBITAL CHARGES
--------------------------------
  0 C s       :     3.086112  s :     3.086112
      pz      :     1.059769  p :     3.170615
      px      :     1.052906
      py      :     1.057941
      dz2     :     0.006282  d :     0.027927
      dxz     :     0.007182
      dyz     :     0.001649
      dx2y2   :     0.007483
      dxy     :     0.005330

  1 C s       :     3.094951  s :     3.094951
      pz      :     0.784343  p :     2.876676
      px      :     1.035264
      py      :     1.057069
      dz2     :     0.014973  d :     0.058743
      dxz     :     0.018377
      dyz     :     0.007872
      dx2y2   :     0.010402
      dxy     :     0.007119

  2 O s       :     3.765462  s :     3.765462
      pz      :     1.221137  p :     4.572616
      px      :     1.689056
      py      :     1.662423
      dz2     :     0.002537  d :     0.013333
      dxz     :     0.003498
      dyz     :     0.003625
      dx2y2   :     0.001739
      dxy     :     0.001934

  3 P s       :     5.221845  s :     5.221845
      pz      :     2.881892  p :     8.586100
      px      :     2.811488
      py      :     2.892720
      dz2     :     0.138172  d :     0.590820
      dxz     :     0.112797
      dyz     :     0.115993
      dx2y2   :     0.132721
      dxy     :     0.091137

  4 S s       :     5.914055  s :     5.914055
      pz      :     3.219238  p :    10.338668
      px      :     3.622253
      py      :     3.497177
      dz2     :     0.012420  d :     0.042592
      dxz     :     0.009523
      dyz     :     0.013034
      dx2y2   :     0.003568
      dxy     :     0.004047

  5 O s       :     3.768383  s :     3.768383
      pz      :     1.567832  p :     4.600370
      px      :     1.314696
      py      :     1.717842
      dz2     :     0.003028  d :     0.012989
      dxz     :     0.002739
      dyz     :     0.002100
      dx2y2   :     0.003060
      dxy     :     0.002063

  6 C s       :     3.074951  s :     3.074951
      pz      :     0.901803  p :     2.881994
      px      :     0.960223
      py      :     1.019967
      dz2     :     0.013850  d :     0.060074
      dxz     :     0.015236
      dyz     :     0.008916
      dx2y2   :     0.013249
      dxy     :     0.008824

  7 C s       :     3.092817  s :     3.092817
      pz      :     1.069745  p :     3.161799
      px      :     1.008065
      py      :     1.083989
      dz2     :     0.005973  d :     0.027809
      dxz     :     0.006502
      dyz     :     0.003515
      dx2y2   :     0.007403
      dxy     :     0.004417

  8 S s       :     5.877214  s :     5.877214
      pz      :     3.746295  p :    10.173620
      px      :     3.138332
      py      :     3.288993
      dz2     :     0.010237  d :     0.072592
      dxz     :     0.012104
      dyz     :     0.007153
      dx2y2   :     0.027345
      dxy     :     0.015754

  9 C s       :     3.208124  s :     3.208124
      pz      :     1.081984  p :     3.098479
      px      :     0.923390
      py      :     1.093105
      dz2     :     0.008728  d :     0.039969
      dxz     :     0.007595
      dyz     :     0.005921
      dx2y2   :     0.010408
      dxy     :     0.007317

 10 S s       :     5.890316  s :     5.890316
      pz      :     3.283374  p :    10.089589
      px      :     3.390279
      py      :     3.415935
      dz2     :     0.012246  d :     0.075993
      dxz     :     0.023056
      dyz     :     0.020668
      dx2y2   :     0.007603
      dxy     :     0.012421

 11 P s       :     5.201611  s :     5.201611
      pz      :     2.899785  p :     8.592695
      px      :     2.862837
      py      :     2.830074
      dz2     :     0.106245  d :     0.589377
      dxz     :     0.111843
      dyz     :     0.124037
      dx2y2   :     0.104520
      dxy     :     0.142732

 12 S s       :     5.915921  s :     5.915921
      pz      :     3.176208  p :    10.385475
      px      :     3.550552
      py      :     3.658716
      dz2     :     0.014437  d :     0.042874
      dxz     :     0.014436
      dyz     :     0.008062
      dx2y2   :     0.003084
      dxy     :     0.002855

 13 O s       :     3.757332  s :     3.757332
      pz      :     1.717722  p :     4.600193
      px      :     1.644342
      py      :     1.238130
      dz2     :     0.001960  d :     0.013111
      dxz     :     0.001902
      dyz     :     0.002725
      dx2y2   :     0.002117
      dxy     :     0.004408

 14 C s       :     3.071464  s :     3.071464
      pz      :     1.081273  p :     2.870741
      px      :     1.034183
      py      :     0.755285
      dz2     :     0.013252  d :     0.060583
      dxz     :     0.006938
      dyz     :     0.009884
      dx2y2   :     0.012856
      dxy     :     0.017653

 15 C s       :     3.123545  s :     3.123545
      pz      :     1.072467  p :     3.184903
      px      :     1.036561
      py      :     1.075874
      dz2     :     0.008003  d :     0.027833
      dxz     :     0.005699
      dyz     :     0.002828
      dx2y2   :     0.006257
      dxy     :     0.005047

 16 O s       :     3.754953  s :     3.754953
      pz      :     1.532302  p :     4.598437
      px      :     1.442389
      py      :     1.623745
      dz2     :     0.003273  d :     0.013186
      dxz     :     0.002745
      dyz     :     0.001931
      dx2y2   :     0.002017
      dxy     :     0.003220

 17 C s       :     3.077658  s :     3.077658
      pz      :     0.859416  p :     2.866151
      px      :     0.927646
      py      :     1.079089
      dz2     :     0.013655  d :     0.059896
      dxz     :     0.019123
      dyz     :     0.006914
      dx2y2   :     0.008588
      dxy     :     0.011617

 18 C s       :     3.101813  s :     3.101813
      pz      :     1.075685  p :     3.178434
      px      :     1.052188
      py      :     1.050561
      dz2     :     0.005005  d :     0.027988
      dxz     :     0.008500
      dyz     :     0.002646
      dx2y2   :     0.004403
      dxy     :     0.007434

 19 H s       :     0.891381  s :     0.891381

 20 H s       :     0.880096  s :     0.880096

 21 H s       :     0.879296  s :     0.879296

 22 H s       :     0.899825  s :     0.899825

 23 H s       :     0.873519  s :     0.873519

 24 H s       :     0.891272  s :     0.891272

 25 H s       :     0.893474  s :     0.893474

 26 H s       :     0.876219  s :     0.876219

 27 H s       :     0.885772  s :     0.885772

 28 H s       :     0.883521  s :     0.883521

 29 H s       :     0.816259  s :     0.816259

 30 H s       :     0.806654  s :     0.806654

 31 H s       :     0.893617  s :     0.893617

 32 H s       :     0.896620  s :     0.896620

 33 H s       :     0.892404  s :     0.892404

 34 H s       :     0.875369  s :     0.875369

 35 H s       :     0.849213  s :     0.849213

 36 H s       :     0.891624  s :     0.891624

 37 H s       :     0.894387  s :     0.894387

 38 H s       :     0.879845  s :     0.879845

 39 H s       :     0.877778  s :     0.877778

 40 H s       :     0.888081  s :     0.888081


------------------------
MULLIKEN OVERLAP CHARGES
------------------------
B(  0-C ,  1-C ) :   0.9077 B(  0-C ,  2-O ) :  -0.0982 B(  0-C , 19-H ) :   0.6973 
B(  0-C , 20-H ) :   0.7390 B(  0-C , 21-H ) :   0.7370 B(  0-C , 22-H ) :  -0.0580 
B(  0-C , 23-H ) :  -0.0563 B(  1-C ,  2-O ) :   0.5177 B(  1-C ,  3-P ) :  -0.0689 
B(  1-C , 22-H ) :   0.6908 B(  1-C , 23-H ) :   0.7227 B(  2-O ,  3-P ) :   0.5986 
B(  2-O ,  4-S ) :  -0.0642 B(  2-O ,  8-S ) :  -0.0775 B(  2-O , 22-H ) :  -0.0605 
B(  2-O , 23-H ) :  -0.0615 B(  3-P ,  4-S ) :   0.9600 B(  3-P ,  5-O ) :   0.5757 
B(  3-P ,  6-C ) :  -0.0834 B(  3-P ,  8-S ) :   0.5740 B(  3-P ,  9-C ) :  -0.0815 
B(  4-S ,  5-O ) :  -0.0716 B(  4-S ,  8-S ) :  -0.0723 B(  4-S , 24-H ) :   0.0717 
B(  5-O ,  6-C ) :   0.5605 B(  5-O ,  7-C ) :  -0.1156 B(  5-O ,  8-S ) :  -0.0773 
B(  5-O , 24-H ) :  -0.0728 B(  5-O , 25-H ) :  -0.0663 B(  6-C ,  7-C ) :   0.8571 
B(  6-C , 24-H ) :   0.6923 B(  6-C , 25-H ) :   0.7338 B(  7-C , 25-H ) :  -0.0553 
B(  7-C , 26-H ) :   0.7471 B(  7-C , 27-H ) :   0.7035 B(  7-C , 28-H ) :   0.7454 
B(  8-S ,  9-C ) :   0.4741 B(  8-S , 10-S ) :  -0.1322 B(  8-S , 29-H ) :  -0.0715 
B(  9-C , 10-S ) :   0.4669 B(  9-C , 11-P ) :  -0.0642 B(  9-C , 12-S ) :  -0.0519 
B(  9-C , 29-H ) :   0.7257 B(  9-C , 30-H ) :   0.6343 B( 10-S , 11-P ) :   0.5340 
B( 10-S , 12-S ) :  -0.0781 B( 10-S , 13-O ) :  -0.0591 B( 10-S , 16-O ) :  -0.0870 
B( 10-S , 29-H ) :  -0.0578 B( 10-S , 30-H ) :  -0.0828 B( 11-P , 12-S ) :   0.9125 
B( 11-P , 13-O ) :   0.6658 B( 11-P , 14-C ) :  -0.0860 B( 11-P , 16-O ) :   0.6326 
B( 11-P , 17-C ) :  -0.0784 B( 12-S , 13-O ) :  -0.0721 B( 12-S , 16-O ) :  -0.0726 
B( 12-S , 30-H ) :   0.1094 B( 12-S , 31-H ) :   0.0545 B( 12-S , 36-H ) :   0.0631 
B( 13-O , 14-C ) :   0.5487 B( 13-O , 15-C ) :  -0.0931 B( 13-O , 16-O ) :  -0.0572 
B( 13-O , 31-H ) :  -0.0677 B( 13-O , 32-H ) :  -0.0577 B( 14-C , 15-C ) :   0.8852 
B( 14-C , 31-H ) :   0.7174 B( 14-C , 32-H ) :   0.7171 B( 15-C , 31-H ) :  -0.0644 
B( 15-C , 33-H ) :   0.6886 B( 15-C , 34-H ) :   0.7303 B( 15-C , 35-H ) :   0.7063 
B( 16-O , 17-C ) :   0.5592 B( 16-O , 18-C ) :  -0.0993 B( 16-O , 36-H ) :  -0.0660 
B( 16-O , 37-H ) :  -0.0582 B( 17-C , 18-C ) :   0.8971 B( 17-C , 36-H ) :   0.7215 
B( 17-C , 37-H ) :   0.7353 B( 18-C , 36-H ) :  -0.0704 B( 18-C , 37-H ) :  -0.0530 
B( 18-C , 38-H ) :   0.7325 B( 18-C , 39-H ) :   0.7309 B( 18-C , 40-H ) :   0.6961 
B( 22-H , 23-H ) :  -0.0682 B( 24-H , 25-H ) :  -0.0747 B( 26-H , 28-H ) :  -0.0564 
B( 31-H , 32-H ) :  -0.0667 B( 36-H , 37-H ) :  -0.0666 B( 38-H , 39-H ) :  -0.0528 



                     *******************************
                     * LOEWDIN POPULATION ANALYSIS *
                     *******************************

----------------------
LOEWDIN ATOMIC CHARGES
----------------------
   0 C :   -0.358047
   1 C :   -0.120584
   2 O :   -0.226916
   3 P :    0.565791
   4 S :   -0.300149
   5 O :   -0.249493
   6 C :   -0.121246
   7 C :   -0.350478
   8 S :    0.050497
   9 C :   -0.477034
  10 S :    0.106448
  11 P :    0.576874
  12 S :   -0.314929
  13 O :   -0.238858
  14 C :   -0.119371
  15 C :   -0.373962
  16 O :   -0.245599
  17 C :   -0.117741
  18 C :   -0.364221
  19 H :    0.129788
  20 H :    0.128966
  21 H :    0.124512
  22 H :    0.105695
  23 H :    0.114306
  24 H :    0.110676
  25 H :    0.109305
  26 H :    0.129990
  27 H :    0.132091
  28 H :    0.126153
  29 H :    0.135629
  30 H :    0.117889
  31 H :    0.108424
  32 H :    0.117909
  33 H :    0.130230
  34 H :    0.125832
  35 H :    0.122305
  36 H :    0.109099
  37 H :    0.119187
  38 H :    0.128051
  39 H :    0.122764
  40 H :    0.130215

-------------------------------
LOEWDIN REDUCED ORBITAL CHARGES
-------------------------------
  0 C s       :     2.950961  s :     2.950961
      pz      :     1.123254  p :     3.337763
      px      :     1.102758
      py      :     1.111752
      dz2     :     0.015845  d :     0.069323
      dxz     :     0.017858
      dyz     :     0.003850
      dx2y2   :     0.016637
      dxy     :     0.015133

  1 C s       :     2.933048  s :     2.933048
      pz      :     0.862121  p :     3.057332
      px      :     1.084620
      py      :     1.110591
      dz2     :     0.032932  d :     0.130205
      dxz     :     0.040427
      dyz     :     0.015997
      dx2y2   :     0.021974
      dxy     :     0.018875

  2 O s       :     3.501998  s :     3.501998
      pz      :     1.311289  p :     4.700898
      px      :     1.695214
      py      :     1.694395
      dz2     :     0.005751  d :     0.024019
      dxz     :     0.006647
      dyz     :     0.007443
      dx2y2   :     0.001976
      dxy     :     0.002201

  3 P s       :     5.061066  s :     5.061066
      pz      :     2.863351  p :     8.553861
      px      :     2.793429
      py      :     2.897081
      dz2     :     0.191152  d :     0.819282
      dxz     :     0.146883
      dyz     :     0.165519
      dx2y2   :     0.194926
      dxy     :     0.120803

  4 S s       :     5.766381  s :     5.766381
      pz      :     3.301360  p :    10.476026
      px      :     3.630235
      py      :     3.544430
      dz2     :     0.016098  d :     0.057741
      dxz     :     0.012516
      dyz     :     0.019869
      dx2y2   :     0.004088
      dxy     :     0.005170

  5 O s       :     3.503906  s :     3.503906
      pz      :     1.600568  p :     4.721829
      px      :     1.397206
      py      :     1.724055
      dz2     :     0.005417  d :     0.023757
      dxz     :     0.005152
      dyz     :     0.003267
      dx2y2   :     0.006595
      dxy     :     0.003326

  6 C s       :     2.930400  s :     2.930400
      pz      :     0.968544  p :     3.057239
      px      :     1.012862
      py      :     1.075833
      dz2     :     0.032303  d :     0.133607
      dxz     :     0.031962
      dyz     :     0.019133
      dx2y2   :     0.032534
      dxy     :     0.017675

  7 C s       :     2.950280  s :     2.950280
      pz      :     1.127426  p :     3.331141
      px      :     1.071042
      py      :     1.132673
      dz2     :     0.015219  d :     0.069058
      dxz     :     0.015609
      dyz     :     0.008327
      dx2y2   :     0.019928
      dxy     :     0.009975

  8 S s       :     5.640648  s :     5.640648
      pz      :     3.733258  p :    10.217041
      px      :     3.175697
      py      :     3.308086
      dz2     :     0.012797  d :     0.091815
      dxz     :     0.015629
      dyz     :     0.008444
      dx2y2   :     0.035933
      dxy     :     0.019012

  9 C s       :     3.059460  s :     3.059460
      pz      :     1.142032  p :     3.329711
      px      :     1.040821
      py      :     1.146858
      dz2     :     0.019590  d :     0.087863
      dxz     :     0.016103
      dyz     :     0.013079
      dx2y2   :     0.023055
      dxy     :     0.016037

 10 S s       :     5.654285  s :     5.654285
      pz      :     3.333409  p :    10.143725
      px      :     3.391652
      py      :     3.418664
      dz2     :     0.013450  d :     0.095542
      dxz     :     0.029200
      dyz     :     0.026306
      dx2y2   :     0.008914
      dxy     :     0.017672

 11 P s       :     5.053378  s :     5.053378
      pz      :     2.917701  p :     8.552732
      px      :     2.846854
      py      :     2.788176
      dz2     :     0.148685  d :     0.817017
      dxz     :     0.155282
      dyz     :     0.169464
      dx2y2   :     0.134258
      dxy     :     0.209327

 12 S s       :     5.759126  s :     5.759126
      pz      :     3.269350  p :    10.498425
      px      :     3.561801
      py      :     3.667275
      dz2     :     0.020174  d :     0.057378
      dxz     :     0.020674
      dyz     :     0.009625
      dx2y2   :     0.003702
      dxy     :     0.003203

 13 O s       :     3.498316  s :     3.498316
      pz      :     1.732106  p :     4.716610
      px      :     1.667397
      py      :     1.317108
      dz2     :     0.002904  d :     0.023931
      dxz     :     0.002461
      dyz     :     0.005611
      dx2y2   :     0.004029
      dxy     :     0.008926

 14 C s       :     2.927189  s :     2.927189
      pz      :     1.134178  p :     3.056584
      px      :     1.085491
      py      :     0.836915
      dz2     :     0.029167  d :     0.135598
      dxz     :     0.017662
      dyz     :     0.020948
      dx2y2   :     0.029341
      dxy     :     0.038481

 15 C s       :     2.954599  s :     2.954599
      pz      :     1.122087  p :     3.350301
      px      :     1.093832
      py      :     1.134382
      dz2     :     0.018501  d :     0.069062
      dxz     :     0.015571
      dyz     :     0.006689
      dx2y2   :     0.015884
      dxy     :     0.012417

 16 O s       :     3.504053  s :     3.504053
      pz      :     1.570486  p :     4.717425
      px      :     1.498443
      py      :     1.648496
      dz2     :     0.006124  d :     0.024121
      dxz     :     0.005314
      dyz     :     0.002733
      dx2y2   :     0.003241
      dxy     :     0.006709

 17 C s       :     2.928380  s :     2.928380
      pz      :     0.938136  p :     3.055644
      px      :     1.003273
      py      :     1.114236
      dz2     :     0.031950  d :     0.133717
      dxz     :     0.042217
      dyz     :     0.013010
      dx2y2   :     0.016774
      dxy     :     0.029767

 18 C s       :     2.952709  s :     2.952709
      pz      :     1.129880  p :     3.342186
      px      :     1.110302
      py      :     1.102003
      dz2     :     0.012868  d :     0.069326
      dxz     :     0.020713
      dyz     :     0.005700
      dx2y2   :     0.009711
      dxy     :     0.020335

 19 H s       :     0.870212  s :     0.870212

 20 H s       :     0.871034  s :     0.871034

 21 H s       :     0.875488  s :     0.875488

 22 H s       :     0.894305  s :     0.894305

 23 H s       :     0.885694  s :     0.885694

 24 H s       :     0.889324  s :     0.889324

 25 H s       :     0.890695  s :     0.890695

 26 H s       :     0.870010  s :     0.870010

 27 H s       :     0.867909  s :     0.867909

 28 H s       :     0.873847  s :     0.873847

 29 H s       :     0.864371  s :     0.864371

 30 H s       :     0.882111  s :     0.882111

 31 H s       :     0.891576  s :     0.891576

 32 H s       :     0.882091  s :     0.882091

 33 H s       :     0.869770  s :     0.869770

 34 H s       :     0.874168  s :     0.874168

 35 H s       :     0.877695  s :     0.877695

 36 H s       :     0.890901  s :     0.890901

 37 H s       :     0.880813  s :     0.880813

 38 H s       :     0.871949  s :     0.871949

 39 H s       :     0.877236  s :     0.877236

 40 H s       :     0.869785  s :     0.869785


---------------------------------
LOEWDIN BOND ORDERS (THRESH 0.050000)
---------------------------------
B(  0-C ,  1-C ) :   1.1588 B(  0-C ,  2-O ) :   0.0581 B(  0-C , 19-H ) :   0.9264 
B(  0-C , 20-H ) :   0.9356 B(  0-C , 21-H ) :   0.9323 B(  1-C ,  2-O ) :   1.0603 
B(  1-C ,  3-P ) :   0.0647 B(  1-C , 22-H ) :   0.9094 B(  1-C , 23-H ) :   0.9067 
B(  2-O ,  3-P ) :   1.3122 B(  2-O ,  4-S ) :   0.0754 B(  2-O ,  8-S ) :   0.0733 
B(  3-P ,  4-S ) :   1.7886 B(  3-P ,  5-O ) :   1.2557 B(  3-P ,  6-C ) :   0.0683 
B(  3-P ,  8-S ) :   1.0054 B(  4-S ,  5-O ) :   0.0908 B(  4-S ,  8-S ) :   0.1206 
B(  5-O ,  6-C ) :   1.0795 B(  5-O ,  7-C ) :   0.0583 B(  5-O ,  8-S ) :   0.0617 
B(  6-C ,  7-C ) :   1.1558 B(  6-C , 24-H ) :   0.9046 B(  6-C , 25-H ) :   0.9164 
B(  7-C , 26-H ) :   0.9365 B(  7-C , 27-H ) :   0.9286 B(  7-C , 28-H ) :   0.9373 
B(  8-S ,  9-C ) :   1.1817 B(  8-S , 10-S ) :   0.0811 B(  9-C , 10-S ) :   1.1502 
B(  9-C , 29-H ) :   0.9271 B(  9-C , 30-H ) :   0.9027 B( 10-S , 11-P ) :   1.0839 
B( 10-S , 12-S ) :   0.1260 B( 10-S , 13-O ) :   0.0580 B( 10-S , 16-O ) :   0.0559 
B( 11-P , 12-S ) :   1.6712 B( 11-P , 13-O ) :   1.2879 B( 11-P , 14-C ) :   0.0640 
B( 11-P , 16-O ) :   1.2899 B( 11-P , 17-C ) :   0.0643 B( 12-S , 13-O ) :   0.0900 
B( 12-S , 16-O ) :   0.0922 B( 12-S , 30-H ) :   0.0632 B( 13-O , 14-C ) :   1.0862 
B( 13-O , 15-C ) :   0.0582 B( 13-O , 16-O ) :   0.0509 B( 14-C , 15-C ) :   1.1594 
B( 14-C , 31-H ) :   0.9095 B( 14-C , 32-H ) :   0.9169 B( 15-C , 33-H ) :   0.9239 
B( 15-C , 34-H ) :   0.9325 B( 15-C , 35-H ) :   0.9203 B( 16-O , 17-C ) :   1.0859 
B( 16-O , 18-C ) :   0.0588 B( 17-C , 18-C ) :   1.1579 B( 17-C , 36-H ) :   0.9086 
B( 17-C , 37-H ) :   0.9179 B( 18-C , 38-H ) :   0.9359 B( 18-C , 39-H ) :   0.9306 
B( 18-C , 40-H ) :   0.9261 

------------------------------------------
LOEWDIN REDUCED ORBITAL POPULATIONS PER MO
-------------------------------------------
THRESHOLD FOR PRINTING IS 0.1%%
                      0         1         2         3         4         5   
                 -88.04053 -88.03905 -87.99216 -87.97832 -76.42672 -76.42469
                   2.00000   2.00000   2.00000   2.00000   2.00000   2.00000
                  --------  --------  --------  --------  --------  --------
 3 P  s               0.0       0.0       0.0       0.0       0.0     100.0
 4 S  s               0.0       0.0       0.0     100.0       0.0       0.0
 8 S  s             100.0       0.0       0.0       0.0       0.0       0.0
10 S  s               0.0     100.0       0.0       0.0       0.0       0.0
11 P  s               0.0       0.0       0.0       0.0     100.0       0.0
12 S  s               0.0       0.0     100.0       0.0       0.0       0.0

                      6         7         8         9        10        11   
                 -18.79473 -18.79381 -18.79369 -18.78867  -9.95592  -9.95554
                   2.00000   2.00000   2.00000   2.00000   2.00000   2.00000
                  --------  --------  --------  --------  --------  --------
 2 O  s              99.7       0.2       0.0       0.0       0.0       0.0
 5 O  s               0.2      99.7       0.0       0.0       0.0       0.0
 6 C  s               0.0       0.0       0.0       0.0      99.6       0.0
 7 C  px              0.0       0.0       0.0       0.0       0.1       0.0
 9 C  s               0.0       0.0       0.0       0.0       0.0      99.8
13 O  s               0.0       0.0      99.9       0.0       0.0       0.0
16 O  s               0.0       0.0       0.0      99.9       0.0       0.0

                     12        13        14        15        16        17   
                  -9.95165  -9.95061  -9.94758  -9.89110  -9.88487  -9.88335
                   2.00000   2.00000   2.00000   2.00000   2.00000   2.00000
                  --------  --------  --------  --------  --------  --------
 0 C  s               0.0       0.0       0.0       0.0       0.0      99.7
 1 C  s               0.0      99.7       0.0       0.0       0.0       0.0
 6 C  px              0.0       0.0       0.0       0.1       0.0       0.0
 7 C  s               0.0       0.0       0.0      99.7       0.0       0.0
14 C  s               0.0       0.0      99.7       0.0       0.0       0.0
17 C  s              99.7       0.0       0.0       0.0       0.0       0.0
18 C  s               0.0       0.0       0.0       0.0      99.7       0.0

                     18        19        20        21        22        23   
                  -9.86952  -7.68570  -7.68407  -7.63696  -7.62360  -6.42448
                   2.00000   2.00000   2.00000   2.00000   2.00000   2.00000
                  --------  --------  --------  --------  --------  --------
 4 S  s               0.0       0.0       0.0       0.0      99.9       0.0
 8 S  s               0.0      99.7       0.0       0.0       0.0       0.0
 9 C  px              0.0       0.1       0.0       0.0       0.0       0.0
10 S  s               0.0       0.0      99.7       0.0       0.0       0.0
11 P  s               0.0       0.0       0.0       0.0       0.0      99.3
12 S  s               0.0       0.0       0.0      99.9       0.0       0.0
13 O  py              0.0       0.0       0.0       0.0       0.0       0.1
15 C  s              99.7       0.0       0.0       0.0       0.0       0.0
16 O  px              0.0       0.0       0.0       0.0       0.0       0.1
16 O  py              0.0       0.0       0.0       0.0       0.0       0.1

                     24        25        26        27        28        29   
                  -6.42203  -5.71362  -5.71199  -5.71018  -5.70881  -5.70270
                   2.00000   2.00000   2.00000   2.00000   2.00000   2.00000
                  --------  --------  --------  --------  --------  --------
 2 O  pz              0.2       0.0       0.0       0.0       0.0       0.0
 3 P  s              99.3       0.0       0.0       0.0       0.0       0.0
 5 O  px              0.2       0.0       0.0       0.0       0.0       0.0
 8 S  pz              0.0       9.9       0.0       1.9       0.0      88.2
 8 S  px              0.0      65.1       0.0      23.2       0.0      11.6
 8 S  py              0.0      25.0       0.0      74.8       0.0       0.2
10 S  pz              0.0       0.0       1.9       0.0      97.9       0.0
10 S  px              0.0       0.0      51.2       0.0       0.4       0.0
10 S  py              0.0       0.0      47.0       0.0       1.6       0.0

                     30        31        32        33        34        35   
                  -5.70072  -5.66558  -5.65781  -5.65715  -5.65269  -5.64415
                   2.00000   2.00000   2.00000   2.00000   2.00000   2.00000
                  --------  --------  --------  --------  --------  --------
 4 S  pz              0.0       0.0       0.0       0.0      66.7      24.3
 4 S  px              0.0       0.0       0.0       0.0       6.3      59.7
 4 S  py              0.0       0.0       0.0       0.0      27.0      16.1
10 S  pz              0.2       0.0       0.0       0.0       0.0       0.0
10 S  px             48.4       0.0       0.0       0.0       0.0       0.0
10 S  py             51.4       0.0       0.0       0.0       0.0       0.0
12 S  pz              0.0      79.0       4.6      16.4       0.0       0.0
12 S  px              0.0      16.7      59.3      24.0       0.0       0.0
12 S  py              0.0       4.3      36.1      59.6       0.0       0.0

                     36        37        38        39        40        41   
                  -5.64363  -4.64692  -4.64611  -4.64520  -4.64519  -4.64396
                   2.00000   2.00000   2.00000   2.00000   2.00000   2.00000
                  --------  --------  --------  --------  --------  --------
 3 P  pz              0.0       0.0       0.0      22.0       0.0      18.3
 3 P  px              0.0       0.0       0.0      57.7       0.1      41.1
 3 P  py              0.0       0.0       0.0      20.2       0.0      40.6
 4 S  pz              9.0       0.0       0.0       0.0       0.0       0.0
 4 S  px             34.0       0.0       0.0       0.0       0.0       0.0
 4 S  py             57.0       0.0       0.0       0.0       0.0       0.0
11 P  pz              0.0       7.6       4.5       0.1      87.7       0.0
11 P  px              0.0       3.3      93.9       0.0       2.7       0.0
11 P  py              0.0      88.9       1.6       0.0       9.4       0.0

                     42        43        44        45        46        47   
                  -4.64179  -0.99019  -0.98622  -0.94728  -0.94555  -0.76013
                   2.00000   2.00000   2.00000   2.00000   2.00000   2.00000
                  --------  --------  --------  --------  --------  --------
 0 C  s               0.0       0.2       0.0       0.3       0.0       0.2
 0 C  pz              0.0       0.1       0.0       0.1       0.0       0.0
 0 C  px              0.0       0.2       0.0       0.3       0.0       0.0
 0 C  py              0.0       0.1       0.0       0.1       0.0       0.0
 1 C  s               0.0       3.2       0.0       4.2       0.0       0.5
 1 C  pz              0.0       3.3       0.0       3.1       0.0       0.0
 1 C  px              0.0       0.3       0.0       0.6       0.0       0.0
 1 C  py              0.0       0.1       0.0       0.2       0.0       0.0
 1 C  dz2             0.0       0.2       0.0       0.2       0.0       0.0
 1 C  dxz             0.0       0.1       0.0       0.1       0.0       0.0
 2 O  s               0.0      27.2       0.0      31.8       0.0       0.3
 2 O  pz              0.0       0.2       0.0       0.1       0.0       0.5
 2 O  px              0.0       0.8       0.0       0.4       0.0       0.0
 2 O  py              0.0       0.9       0.0       0.5       0.0       0.0
 3 P  s               0.0      14.1       0.0       0.0       0.0       2.1
 3 P  pz             59.6       2.7       0.0       3.3       0.0       0.0
 3 P  px              1.1       1.9       0.0       6.6       0.0       0.6
 3 P  py             39.2       0.3       0.0       1.3       0.0       1.3
 3 P  dz2             0.0       0.0       0.0       1.6       0.0       0.0
 3 P  dxz             0.0       0.1       0.0       0.2       0.0       0.0
 3 P  dyz             0.0       0.4       0.0       0.6       0.0       0.0
 3 P  dx2y2           0.0       0.5       0.0       1.1       0.0       0.1
 3 P  dxy             0.0       0.1       0.0       0.0       0.0       0.0
 4 S  s               0.0       0.3       0.0       0.0       0.0       0.4
 4 S  pz              0.0       0.3       0.0       0.0       0.0       0.1
 5 O  s               0.0      29.6       0.0      29.4       0.0       0.1
 5 O  pz              0.0       0.5       0.0       1.1       0.0       0.0
 5 O  px              0.0       1.1       0.0       0.1       0.0       0.3
 5 O  py              0.0       0.1       0.0       0.3       0.0       0.0
 6 C  s               0.0       3.4       0.0       4.7       0.0       0.3
 6 C  pz              0.0       1.8       0.0       2.1       0.0       0.0
 6 C  px              0.0       1.3       0.0       1.2       0.0       0.0
 6 C  py              0.0       0.6       0.0       0.6       0.0       0.0
 6 C  dxz             0.0       0.2       0.0       0.2       0.0       0.0
 7 C  s               0.0       0.2       0.0       0.3       0.0       0.1
 7 C  px              0.0       0.4       0.0       0.6       0.0       0.0
 8 S  s               0.0       0.3       0.0       0.0       0.0      17.6
 8 S  pz              0.0       0.0       0.0       0.0       0.0       0.2
 8 S  px              0.0       0.0       0.0       0.0       0.0       2.1
 8 S  py              0.0       0.3       0.0       0.0       0.0       0.5
 8 S  dxz             0.0       0.0       0.0       0.0       0.0       0.1
 9 C  s               0.0       0.0       0.0       0.0       0.0      26.4
 9 C  pz              0.0       0.0       0.0       0.0       0.0       1.5
 9 C  px              0.0       0.0       0.0       0.0       0.0       0.2
 9 C  py              0.0       0.0       0.0       0.0       0.0       0.6
10 S  s               0.0       0.0       0.3       0.0       0.0      19.2
10 S  pz              0.0       0.0       0.2       0.0       0.0       1.9
10 S  px              0.0       0.0       0.2       0.0       0.0       0.5
10 S  py              0.0       0.0       0.1       0.0       0.0       0.5
10 S  dxy             0.0       0.0       0.0       0.0       0.0       0.2
11 P  s               0.0       0.0      14.3       0.0       0.0       3.1
11 P  pz              0.0       0.0       0.4       0.0       1.1       0.5
11 P  px              0.0       0.0       4.2       0.0       0.6       1.4
11 P  py              0.0       0.0       0.1       0.0       9.3       0.5
[...]
 1 C  pz              2.4       0.0       0.0       0.4
 1 C  px              0.6       0.0       0.0       0.0
 1 C  dz2             6.0       0.0       0.0       0.9
 1 C  dxz             4.0       0.0       0.0       0.2
 1 C  dyz             1.1       0.0       0.0       0.1
 1 C  dxy             0.6       0.0       0.0       0.0
 2 O  s               2.7       0.0       0.0       0.5
 2 O  pz              3.5       0.0       0.0       2.6
 2 O  px              0.4       0.0       0.0       0.0
 2 O  py              0.0       0.0       0.0       0.2
 2 O  dz2            24.3       0.1       0.0       0.5
 2 O  dxz            25.1       0.1       0.0      10.7
 2 O  dyz             9.0       0.0       0.0      11.2
 2 O  dx2y2           0.8       0.0       0.0       0.4
 2 O  dxy             1.2       0.0       0.0       0.5
 3 P  s               0.7       0.0       0.0       0.0
 3 P  pz              0.2       0.0       0.0       1.0
 3 P  px              0.4       0.0       0.0       2.1
 3 P  py              0.0       0.0       0.0       0.4
 3 P  dz2             0.1       0.0       0.0       1.3
 3 P  dyz             0.0       0.0       0.0       0.4
 3 P  dx2y2           0.1       0.0       0.0       0.7
 5 O  pz              0.2       0.0       0.0       0.9
 5 O  px              1.0       0.0       0.0       4.2
 5 O  py              0.1       0.0       0.0       0.4
 5 O  dz2             3.8       0.0       0.0      13.0
 5 O  dxz             2.4       0.0       0.0      17.7
 5 O  dyz             2.0       0.0       0.0       8.3
 5 O  dx2y2           2.0       0.0       0.0       8.0
 5 O  dxy             0.1       0.0       0.0       2.5
 6 C  s               0.2       0.0       0.0       1.0
 6 C  pz              0.1       0.0       0.0       0.8
 6 C  px              0.2       0.0       0.0       1.0
 6 C  py              0.0       0.0       0.0       0.2
 6 C  dz2             0.0       0.0       0.0       0.3
 6 C  dxz             0.9       0.0       0.0       3.9
 6 C  dyz             0.1       0.0       0.0       0.8
 6 C  dxy             0.3       0.0       0.0       1.4
 7 C  s               0.0       0.0       0.0       0.1
 7 C  px              0.0       0.0       0.0       0.1
 7 C  dx2y2           0.1       0.0       0.0       0.3
11 P  s               0.0       0.5       0.0       0.0
11 P  pz              0.0       0.0       0.3       0.0
11 P  px              0.0       0.4       0.3       0.0
11 P  py              0.0       0.0       2.4       0.0
11 P  dxz             0.0       0.2       0.0       0.0
11 P  dyz             0.0       0.4       0.1       0.0
11 P  dx2y2           0.0       0.0       0.6       0.0
11 P  dxy             0.0       0.0       1.0       0.0
13 O  s               0.0       0.2       0.3       0.0
13 O  pz              0.0       0.0       0.2       0.0
13 O  py              0.0       1.3       4.6       0.0
13 O  dz2             0.0       2.3       4.2       0.0
13 O  dxz             0.0       0.0       1.1       0.0
13 O  dyz             0.0       1.1       4.2       0.0
13 O  dx2y2           0.0       3.2       5.4       0.0
13 O  dxy             0.0       9.8      32.8       0.0
14 C  s               0.0       0.4       1.2       0.0
14 C  px              0.0       0.1       0.3       0.0
14 C  py              0.0       0.7       1.8       0.0
14 C  dz2             0.0       0.6       1.4       0.0
14 C  dx2y2           0.0       1.3       3.5       0.0
14 C  dxy             0.0       0.8       1.6       0.0
16 O  s               0.0       2.0       0.3       0.0
16 O  pz              0.0       1.6       0.6       0.0
16 O  px              0.0       2.1       1.7       0.0
16 O  py              0.0       0.2       0.7       0.0
16 O  dz2             0.0      14.8      10.4       0.0
16 O  dxz             0.1      35.7       3.8       0.0
16 O  dyz             0.0       0.4       0.1       0.0
16 O  dx2y2           0.0       3.9       0.9       0.0
16 O  dxy             0.0       0.4      10.7       0.0
17 C  s               0.0       1.6       0.3       0.0
17 C  pz              0.0       1.7       0.3       0.0
17 C  px              0.0       1.2       0.3       0.0
17 C  dz2             0.0       2.0       0.2       0.0
17 C  dxz             0.0       6.6       1.1       0.0
17 C  dyz             0.0       0.1       0.2       0.0
17 C  dx2y2           0.0       1.1       0.3       0.0
17 C  dxy             0.0       0.1       0.1       0.0


                      *****************************
                      * MAYER POPULATION ANALYSIS *
                      *****************************

  NA   - Mulliken gross atomic population
  ZA   - Total nuclear charge
  QA   - Mulliken gross atomic charge
  VA   - Mayer's total valence
  BVA  - Mayer's bonded valence
  FA   - Mayer's free valence

  ATOM       NA         ZA         QA         VA         BVA        FA
  0 C      6.2847     6.0000    -0.2847     3.9958     3.9958    -0.0000
  1 C      6.0304     6.0000    -0.0304     3.9863     3.9863     0.0000
  2 O      8.3514     8.0000    -0.3514     2.1901     2.1901     0.0000
  3 P     14.3988    15.0000     0.6012     4.9690     4.9690    -0.0000
  4 S     16.2953    16.0000    -0.2953     2.0386     2.0386    -0.0000
  5 O      8.3817     8.0000    -0.3817     2.1543     2.1543     0.0000
  6 C      6.0170     6.0000    -0.0170     3.9689     3.9689    -0.0000
  7 C      6.2824     6.0000    -0.2824     4.0045     4.0045     0.0000
  8 S     16.1234    16.0000    -0.1234     2.2471     2.2471    -0.0000
  9 C      6.3466     6.0000    -0.3466     3.8270     3.8270    -0.0000
 10 S     16.0559    16.0000    -0.0559     2.2788     2.2788     0.0000
 11 P     14.3837    15.0000     0.6163     4.9683     4.9683     0.0000
 12 S     16.3443    16.0000    -0.3443     2.0760     2.0760    -0.0000
 13 O      8.3706     8.0000    -0.3706     2.1936     2.1936     0.0000
 14 C      6.0028     6.0000    -0.0028     3.9839     3.9839     0.0000
 15 C      6.3363     6.0000    -0.3363     3.9837     3.9837     0.0000
 16 O      8.3666     8.0000    -0.3666     2.1690     2.1690     0.0000
 17 C      6.0037     6.0000    -0.0037     4.0066     4.0066     0.0000
 18 C      6.3082     6.0000    -0.3082     3.9977     3.9977     0.0000
 19 H      0.8914     1.0000     0.1086     0.9556     0.9556    -0.0000
 20 H      0.8801     1.0000     0.1199     0.9578     0.9578    -0.0000
 21 H      0.8793     1.0000     0.1207     0.9812     0.9812    -0.0000
 22 H      0.8998     1.0000     0.1002     0.9776     0.9776    -0.0000
 23 H      0.8735     1.0000     0.1265     0.9645     0.9645    -0.0000
 24 H      0.8913     1.0000     0.1087     0.9948     0.9948     0.0000
 25 H      0.8935     1.0000     0.1065     0.9498     0.9498    -0.0000
 26 H      0.8762     1.0000     0.1238     0.9585     0.9585     0.0000
 27 H      0.8858     1.0000     0.1142     0.9542     0.9542     0.0000
 28 H      0.8835     1.0000     0.1165     0.9572     0.9572     0.0000
 29 H      0.8163     1.0000     0.1837     0.9277     0.9277     0.0000
 30 H      0.8067     1.0000     0.1933     0.9808     0.9808    -0.0000
 31 H      0.8936     1.0000     0.1064     0.9763     0.9763     0.0000
 32 H      0.8966     1.0000     0.1034     0.9487     0.9487    -0.0000
 33 H      0.8924     1.0000     0.1076     0.9566     0.9566     0.0000
 34 H      0.8754     1.0000     0.1246     0.9663     0.9663     0.0000
 35 H      0.8492     1.0000     0.1508     0.9974     0.9974     0.0000
 36 H      0.8916     1.0000     0.1084     0.9815     0.9815    -0.0000
 37 H      0.8944     1.0000     0.1056     0.9488     0.9488    -0.0000
 38 H      0.8798     1.0000     0.1202     0.9601     0.9601    -0.0000
 39 H      0.8778     1.0000     0.1222     0.9759     0.9759    -0.0000
 40 H      0.8881     1.0000     0.1119     0.9532     0.9532    -0.0000

  Mayer bond orders larger than 0.100000
B(  0-C ,  1-C ) :   1.1690 B(  0-C , 19-H ) :   0.9396 B(  0-C , 20-H ) :   0.9470 
B(  0-C , 21-H ) :   0.9417 B(  1-C ,  2-O ) :   0.8833 B(  1-C , 22-H ) :   0.9114 
B(  1-C , 23-H ) :   0.9141 B(  2-O ,  3-P ) :   1.1267 B(  3-P ,  4-S ) :   1.6811 
B(  3-P ,  5-O ) :   1.0664 B(  3-P ,  8-S ) :   0.9371 B(  4-S ,  8-S ) :   0.1102 
B(  5-O ,  6-C ) :   0.9078 B(  6-C ,  7-C ) :   1.1611 B(  6-C , 24-H ) :   0.9078 
B(  6-C , 25-H ) :   0.9272 B(  7-C , 26-H ) :   0.9507 B(  7-C , 27-H ) :   0.9415 
B(  7-C , 28-H ) :   0.9508 B(  8-S ,  9-C ) :   1.0091 B(  9-C , 10-S ) :   0.9927 
B(  9-C , 29-H ) :   0.9111 B(  9-C , 30-H ) :   0.8594 B( 10-S , 11-P ) :   0.9841 
B( 10-S , 12-S ) :   0.1136 B( 11-P , 12-S ) :   1.5604 B( 11-P , 13-O ) :   1.1239 
B( 11-P , 16-O ) :   1.1258 B( 13-O , 14-C ) :   0.8974 B( 14-C , 15-C ) :   1.1597 
B( 14-C , 31-H ) :   0.9178 B( 14-C , 32-H ) :   0.9322 B( 15-C , 33-H ) :   0.9374 
B( 15-C , 34-H ) :   0.9418 B( 15-C , 35-H ) :   0.9243 B( 16-O , 17-C ) :   0.9108 
B( 17-C , 18-C ) :   1.1640 B( 17-C , 36-H ) :   0.9167 B( 17-C , 37-H ) :   0.9350 
B( 18-C , 38-H ) :   0.9460 B( 18-C , 39-H ) :   0.9385 B( 18-C , 40-H ) :   0.9386 


-------
TIMINGS
-------

Total SCF time: 0 days 0 hours 0 min 16 sec 

Total time                  ....      16.644 sec
Sum of individual times     ....      16.200 sec  ( 97.3%)

SCF preparation             ....       0.214 sec  (  1.3%)
Fock matrix formation       ....      14.847 sec  ( 89.2%)
  Startup                   ....       0.068 sec  (  0.5% of F)
  Split-RI-J                ....       8.869 sec  ( 59.7% of F)
  XC integration            ....       5.421 sec  ( 36.5% of F)
    XC Preparation          ....       0.000 sec  (  0.0% of XC)
    Basis function eval.    ....       2.067 sec  ( 38.1% of XC)
    Density eval.           ....       1.019 sec  ( 18.8% of XC)
    XC-Functional eval.     ....       0.406 sec  (  7.5% of XC)
    XC-Potential eval.      ....       1.223 sec  ( 22.6% of XC)
Diagonalization             ....       0.000 sec  (  0.0%)
Density matrix formation    ....       0.212 sec  (  1.3%)
Total Energy calculation    ....       0.027 sec  (  0.2%)
Population analysis         ....       0.199 sec  (  1.2%)
Orbital Transformation      ....       0.085 sec  (  0.5%)
Orbital Orthonormalization  ....       0.000 sec  (  0.0%)
DIIS solution               ....       0.476 sec  (  2.9%)
  MO trafo                  ....       0.000 sec  (  0.0 % of DIIS)
  Orb grad                  ....       0.000 sec  (  0.0 % of DIIS)
  Energy W gradient         ....       0.000 sec  (  0.0 % of DIIS)
  DIIS error                ....       0.021 sec  (  4.4 % of DIIS)
  DIIS work                 ....       0.394 sec  ( 82.6 % of DIIS)
  Form Q                    ....       0.000 sec  (  0.0 % of DIIS)
  Form QpQm                 ....       0.000 sec  (  0.0 % of DIIS)
  Exp/Cayley                ....       0.000 sec  (  0.0 % of DIIS)
  Orb update                ....       0.000 sec  (  0.0 % of DIIS)
  Wake-sleep                ....       0.014 sec  (  3.0 % of DIIS)
SOSCF solution              ....       0.140 sec  (  0.8%)
  MO trafo                  ....       0.079 sec  ( 55.9 % of SOSCF)
  Orb grad                  ....       0.002 sec  (  1.3 % of SOSCF)
  Rot update                ....       0.027 sec  ( 19.2 % of SOSCF)
  Step                      ....       0.033 sec  ( 23.5 % of SOSCF)
Finished LeanSCF after  16.7 sec

Maximum memory used throughout the entire LEANSCF-calculation: 34.2 MB


-------------------------------------------------------------------------------
                          DFT DISPERSION CORRECTION                            
                                                                               
                                DFTD4 V3.4.0                                   
-------------------------------------------------------------------------------
The PBE functional is recognized
Active option DFTDOPT                   ...         5   

-------------------------   ----------------
Dispersion correction           -0.065040890
-------------------------   ----------------

------------------   -----------------
gCP correction             0.185601041
------------------   -----------------

-------------------------   --------------------
FINAL SINGLE POINT ENERGY     -2929.516877675612
-------------------------   --------------------


------------------------------------------------------------------------------
                              ORCA PROPERTY CALCULATIONS
------------------------------------------------------------------------------

GBWName                                 ... sp.gbw
Number of atoms                         ...     41
Number of basis functions               ...    334
Max core memory                         ...   1024 MB

Electric properties:
Dipole moment                           ... YES
Quadrupole moment                       ...  NO
Static polarizability (Dipole/Dipole)   ...  NO
Static polarizability (Dipole/Quad.)    ...  NO
Static polarizability (Quad./Quad.)     ...  NO
Static polarizability (Velocity)        ...  NO

Atomic electric properties:
Dipole moment                           ...  NO
Quadrupole moment                       ...  NO
Static polarizability                   ...  NO

Choice of electric origin               ... Center of mass
Position of electric origin             ...     0.000006     0.000003    -0.000004

General magnetic properties:
Magnetizability                         ...  NO

EPR properties:
g-Tensor (aka g-matrix)                 ...  NO
Zero-Field splitting spin-orbit         ...  NO
Zero-field splitting spin-spin          ...  NO
Hyperfine couplings                     ...  NO (   0 nuclei)
Quadrupole couplings                    ...  NO (   0 nuclei)
Contact density                         ...  NO (   0 nuclei)

NMR properties:
Chemical shifts                         ...  NO (   0 nuclei)
Spin-rotation constants                 ...  NO (   0 nuclei)
Spin-spin couplings                     ...  NO (   0 nuclei,    0 pairs)

Choice of magnetic origin               ... GIAO
Position of magnetic origin             ...     0.000000     0.000000     0.000000

Properties with geometric perturbations:
SCF Hessian                             ...  NO
IR spectrum                             ...  NO
VCD spectrum                            ...  NO
X-ray spectroscopy properties:
SCF XES/XAS/RIXS spectra                ...  NO


-------------
DIPOLE MOMENT
-------------

Method             : SCF
Type of density    : Electron Density
Multiplicity       :   1
Irrep              :   0
Energy             : -2929.6374378265486484 Eh
Relativity type    : 
Basis              : AO
                                X                 Y                 Z
Electronic contribution:     -6.266382274      -9.005714108       9.777533262
Nuclear contribution   :      6.514337462       8.690038215     -10.687590946
                        -----------------------------------------
Total Dipole Moment    :      0.247955187      -0.315675893      -0.910057683
                        -----------------------------------------
Magnitude (a.u.)       :      0.994654730
Magnitude (Debye)      :      2.528211403



--------------------
Rotational spectrum 
--------------------
 
Rotational constants in cm-1:             0.014621             0.004459             0.004452 
Rotational constants in MHz :           438.312478           133.688667           133.470010 

Dipole components along the rotational axes: 
x,y,z [a.u.] :     0.005268     0.281109    -0.954090 
x,y,z [Debye]:     0.013389     0.714522    -2.425104 

 

Dipole moment calculation done in   0.0 sec 

Maximum memory used throughout the entire PROP-calculation: 23.5 MB

--------------------------------
SUGGESTED CITATIONS FOR THIS RUN
--------------------------------

Below you find a list of papers that are relevant to this ORCA run
We neither can nor want to force you to cite these papers, but we appreciate if you do
You receive ORCA, which is the product of decades of hard work by many enthusiastic individuals, for free
The only thing we kindly ask in return is that you cite our papers,
We deeply appreciate it, if you show your appreciation for ORCA by not just citing the generic ORCA reference.

Please note that relegating all ORCA citations to the supporting information does *not* help us.
SI sections are not indexed - citations you put there will not count into any citation statistics
But we need these citations in order to attract the funding resources that allow us to do what we are doing

Therefore, if you are a happy ORCA user, please consider citing a few of the papers listed below in the main body of your paper

In addition to the list printed below, the program has created the file sp.bibtex that contains the list in bibtex format
You can import this file easily into all common literature databanks and citation aid programs


List of essential papers. We consider these as the minimum necessary citations

  1. Neese,F.
     Software update: the ORCA program system, version 5.0
     WIRES Comput. Molec. Sci., 2022 12(1)e1606
     doi.org/10.1002/wcms.1606

List of papers to cite with high priority. The work reported in these papers was absolutely
necessary for this run to complete.
Our perspective: the developers of density functionals and basis sets usually get cited in chemistry papers
Good! But without the algorithms to do something with them, the functionals or basis sets would not do anything.
Hence, in our opinion, the algorithm design and method developments papers are equally worthy of getting cited

  1. Neese,F.
     An improvement of the resolution of the identity approximation for the formation of the Coulomb matrix
     J. Comp. Chem., 2003 24(14)1740-1747
     doi.org/10.1002/jcc.10318
  2. Neese,F.
     The SHARK Integral Generation and Digestion System
     J. Comp. Chem., 2022  1-16
     doi.org/10.1002/jcc.26942
  3. Caldeweyher,E.; Bannwarth,C.; Grimme,S.
     Extension of the D3 dispersion coefficient model
     J. Chem. Phys., 2017 147 034112-XXXX
     doi.org/10.1063/1.4993215
  4. Caldeweyher,E.; Ehlert,S.; Hansen,A.; Neugebauer,H.; Spicher,S.; Bannwarth,C.; Grimme,S.
     A generally applicable atomic-charge dependent London dispersion correction
     J. Chem. Phys., 2019 150 154122-XXXX
     doi.org/10.1063/1.5090222
  5. Caldeweyher,E.; Mewes,J.; Ehlert,S.; Grimme,S.
     Extension and evaluation of the D4 London-dispersion model for periodic systems
     Phys. Chem. Chem. Phys., 2020 22(16)8499-8512
     doi.org/10.1039/D0CP00502A

List of suggested additional citations. These are papers that are important in the 'surrounding' of 
of this run, or papers that preceded the highly important papers. If you like your results we are grateful for a citation.

  1. Neese,F.
     The ORCA program system
     WIRES Comput. Molec. Sci., 2012 2(1)73-78
     doi.org/10.1002/wcms.81
  2. Neese,F.
     Software update: the ORCA program system, version 4.0
     WIRES Comput. Molec. Sci., 2018 8(1)1-6
     doi.org/10.1002/wcms.1327
  3. Neese,F.; Wennmohs,F.; Becker,U.; Riplinger,C.
     The ORCA quantum chemistry program package
     J. Chem. Phys., 2020 152 Art. No. L224108
     doi.org/10.1063/5.0004608

List of optional additional citations

  1. Neese,F.
     Approximate second-order SCF convergence for spin unrestricted wavefunctions
     Chem. Phys. Lett., 2000 325(1-3)93-98
     doi.org/10.1016/s0009-2614(00)00662-x

Timings for individual modules:

Sum of individual times          ...       20.306 sec (=   0.338 min)
Startup calculation              ...        1.578 sec (=   0.026 min)   7.8 %
SCF iterations                   ...       18.626 sec (=   0.310 min)  91.7 %
Property calculations            ...        0.101 sec (=   0.002 min)   0.5 %
                             ****ORCA TERMINATED NORMALLY****
TOTAL RUN TIME: 0 days 0 hours 0 minutes 21 seconds 12 msec
