 Entering Gaussian System
 *********************************************
 Gaussian 98:
 frequency output generated by the xtb code
 *********************************************
                         Standard orientation:
 --------------------------------------------------------------------
  Center     Atomic     Atomic              Coordinates (Angstroms)
  Number     Number      Type              X           Y           Z
 --------------------------------------------------------------------
    1          6             0        4.322012   -1.210757   -2.479729
    2          6             0        4.490370   -1.439908   -0.991102
    3          8             0        3.230454   -1.530725   -0.300395
    4         15             0        2.301713   -0.279453    0.016313
    5         16             0        3.251250    1.393570    0.403066
    6          8             0        1.386191   -0.853011    1.175904
    7          6             0        1.616149   -0.567815    2.569506
    8          6             0        2.777515   -1.366040    3.125083
    9         16             0        0.901970   -0.266690   -1.566080
   10          6             0        0.225373    1.395902   -1.282610
   11         16             0       -0.625574    1.594468    0.306677
   12         15             0       -2.272199    0.316017   -0.058250
   13         16             0       -2.953824    0.314841   -1.900415
   14          8             0       -3.349257    0.690697    1.051246
   15          6             0       -4.451136    1.586660    0.818231
   16          6             0       -4.018031    3.038028    0.794957
   17          8             0       -1.675028   -1.030938    0.528298
   18          6             0       -2.461792   -2.161114    0.964574
   19          6             0       -3.132781   -2.885261   -0.185242
   20          1             0        3.658944   -1.958687   -2.906734
   21          1             0        3.901952   -0.223459   -2.664938
   22          1             0        5.293569   -1.276471   -2.960369
   23          1             0        5.075371   -0.630973   -0.541565
   24          1             0        4.967758   -2.400029   -0.788147
   25          1             0        1.794773    0.507107    2.679739
   26          1             0        0.673647   -0.833292    3.050978
   27          1             0        3.705941   -1.051496    2.650448
   28          1             0        2.850898   -1.191315    4.194242
   29          1             0        2.629542   -2.426776    2.940773
   30          1             0       -0.474119    1.577340   -2.098435
   31          1             0        1.033890    2.126242   -1.282141
   32          1             0       -4.927700    1.312043   -0.128298
   33          1             0       -5.130161    1.386605    1.648782
   34          1             0       -3.385502    3.227392   -0.070694
   35          1             0       -4.899246    3.669343    0.732706
   36          1             0       -3.462291    3.284040    1.695915
   37          1             0       -1.728535   -2.800990    1.458939
   38          1             0       -3.198499   -1.809968    1.691123
   39          1             0       -2.399801   -3.144925   -0.945494
   40          1             0       -3.597646   -3.792640    0.188665
   41          1             0       -3.896021   -2.257737   -0.642236
 --------------------------------------------------------------------
     1 basis functions        1 primitive gaussians
     1 alpha electrons        1 beta electrons
 
 Harmonic frequencies (cm**-1), IR intensities (km*mol⁻¹),
 Raman scattering activities (A**4/amu), Raman depolarization ratios,
 reduced masses (AMU), force constants (mDyne/A) and normal coordinates:
                      1                      2                      3
                        a                      a                      a 
 Frequencies --    52.3872                54.8566                59.6998
 Red. masses --    24.0580                23.5941                21.2136
 Frc consts  --     0.0000                 0.0000                 0.0000
 IR Inten    --     5.7001                 1.9247                 2.9332
 Raman Activ --     0.0000                 0.0000                 0.0000
 Depolar     --     0.0000                 0.0000                 0.0000
 Atom AN      X      Y      Z        X      Y      Z        X      Y      Z
   1   6    -0.08  -0.08  -0.09     0.02  -0.10  -0.00     0.11   0.06  -0.04
   2   6    -0.12  -0.08  -0.09     0.05  -0.10  -0.01     0.14   0.11  -0.04
   3   8    -0.16  -0.04  -0.14     0.07  -0.03   0.03     0.18   0.11  -0.02
   4  15    -0.04   0.06  -0.07     0.24   0.07   0.01     0.13   0.07  -0.07
   5  16     0.22  -0.13   0.07     0.48  -0.01  -0.22    -0.06   0.13   0.19
   6   8    -0.08   0.06  -0.08     0.16   0.19   0.06     0.04  -0.07  -0.16
   7   6    -0.08   0.04  -0.06     0.16   0.15   0.05    -0.11  -0.06  -0.11
   8   6    -0.09   0.02  -0.05     0.10   0.08   0.05    -0.14  -0.03  -0.02
   9  16    -0.04   0.39  -0.07     0.10   0.05   0.14     0.33   0.05  -0.24
  10   6    -0.02   0.20   0.14    -0.03  -0.02   0.14    -0.01  -0.06  -0.05
  11  16    -0.05   0.03   0.26    -0.17  -0.16   0.19     0.12  -0.32   0.01
  12  15     0.08  -0.09   0.08    -0.22  -0.04  -0.03    -0.09  -0.07   0.11
  13  16     0.44  -0.28  -0.05    -0.15   0.20  -0.06    -0.13  -0.18   0.13
  14   8    -0.09  -0.05  -0.09    -0.18  -0.07  -0.03    -0.02   0.15   0.06
  15   6    -0.05  -0.03  -0.16    -0.12  -0.02  -0.02     0.02   0.16  -0.02
  16   6    -0.03  -0.03  -0.14    -0.07  -0.03  -0.01     0.07   0.14  -0.07
  17   8     0.02  -0.02   0.20    -0.20  -0.08  -0.10    -0.20  -0.07   0.17
  18   6    -0.03  -0.00   0.14    -0.18  -0.06  -0.08    -0.26  -0.02   0.09
  19   6    -0.03   0.03   0.12    -0.17  -0.06  -0.08    -0.22   0.02   0.05
  20   1    -0.03  -0.02  -0.03    -0.00  -0.02   0.00     0.03   0.01   0.00
  21   1    -0.02  -0.02  -0.03     0.01  -0.03   0.00     0.03   0.01  -0.02
  22   1    -0.02  -0.03  -0.02     0.00  -0.04  -0.01     0.03   0.01  -0.02
  23   1    -0.03  -0.03  -0.02     0.03  -0.04  -0.01     0.04   0.04  -0.02
  24   1    -0.05  -0.03  -0.02     0.00  -0.03  -0.00     0.05   0.03  -0.01
  25   1    -0.02   0.01  -0.01     0.06   0.04   0.01    -0.04  -0.01  -0.03
  26   1    -0.02   0.01  -0.02     0.04   0.06   0.01    -0.04  -0.02  -0.06
  27   1    -0.02   0.00  -0.01     0.04   0.00   0.02    -0.03  -0.01   0.01
  28   1    -0.03   0.01  -0.02     0.03   0.02   0.02    -0.06  -0.00  -0.00
  29   1    -0.03   0.01  -0.02     0.01   0.03   0.01    -0.03  -0.01  -0.00
  30   1    -0.01   0.08   0.04    -0.00  -0.00   0.04    -0.02  -0.04  -0.00
  31   1    -0.01   0.06   0.06    -0.02   0.01   0.05    -0.03   0.01  -0.02
  32   1     0.00  -0.01  -0.05    -0.04   0.00  -0.00     0.01   0.04  -0.01
  33   1    -0.03  -0.00  -0.06    -0.04   0.00  -0.00    -0.00   0.06  -0.01
  34   1     0.00  -0.01  -0.03    -0.02  -0.02  -0.00     0.03   0.03  -0.02
  35   1    -0.01  -0.01  -0.05    -0.01  -0.00  -0.00     0.03   0.05  -0.03
  36   1    -0.02  -0.01  -0.03    -0.02  -0.02  -0.00     0.02   0.05  -0.02
  37   1    -0.01  -0.01   0.04    -0.05  -0.02  -0.02    -0.09  -0.02   0.04
  38   1    -0.01   0.00   0.04    -0.05  -0.01  -0.02    -0.08   0.01   0.01
  39   1    -0.01   0.01   0.03    -0.05  -0.02  -0.02    -0.06   0.01   0.02
  40   1    -0.01   0.01   0.03    -0.05  -0.01  -0.02    -0.07   0.01   0.00
  41   1    -0.01   0.01   0.04    -0.04  -0.01  -0.03    -0.06   0.01   0.01
                      4                      5                      6
                        a                      a                      a 
 Frequencies --    66.0053                66.7319                66.2663
 Red. masses --    24.0227                21.0845                16.7745
 Frc consts  --     0.0000                 0.0000                 0.0000
 IR Inten    --     0.0539                 2.7550                 2.4512
 Raman Activ --     0.0000                 0.0000                 0.0000
 Depolar     --     0.0000                 0.0000                 0.0000
 Atom AN      X      Y      Z        X      Y      Z        X      Y      Z
   1   6    -0.00  -0.16   0.07     0.09  -0.08   0.14     0.25   0.17   0.02
   2   6    -0.06  -0.14   0.08    -0.02  -0.07   0.15     0.09   0.01   0.01
   3   8    -0.09  -0.04   0.05    -0.09  -0.03   0.06     0.00  -0.11  -0.18
   4  15     0.04   0.08   0.02    -0.11   0.01  -0.12     0.04  -0.17  -0.09
   5  16     0.30  -0.12   0.25    -0.08   0.04  -0.30     0.18  -0.27   0.01
   6   8    -0.13   0.14  -0.07    -0.15   0.11  -0.09     0.05  -0.15  -0.06
   7   6    -0.13   0.04  -0.04    -0.21   0.19  -0.08    -0.04  -0.02  -0.06
   8   6    -0.15  -0.01  -0.05    -0.24   0.22   0.04    -0.03   0.09   0.06
   9  16     0.26   0.26  -0.18    -0.01   0.01  -0.20    -0.07  -0.03   0.00
  10   6     0.01   0.11  -0.13    -0.00  -0.02   0.02    -0.01  -0.00   0.02
  11  16    -0.09   0.14  -0.26     0.26  -0.20   0.19    -0.02   0.10   0.02
  12  15    -0.03  -0.02  -0.07     0.14  -0.04   0.14    -0.08   0.14   0.15
  13  16    -0.39  -0.08   0.06     0.11   0.31   0.15    -0.20  -0.04   0.20
  14   8     0.10  -0.06   0.08     0.13  -0.06   0.13    -0.06   0.17   0.09
  15   6     0.04  -0.09   0.16     0.06  -0.11   0.08    -0.14   0.01  -0.06
  16   6    -0.02  -0.07   0.12    -0.01  -0.09  -0.01    -0.27   0.04  -0.22
  17   8     0.10   0.00  -0.13     0.04  -0.11  -0.04    -0.02   0.15   0.19
  18   6     0.14   0.01   0.01    -0.01  -0.08  -0.08     0.05   0.02  -0.02
  19   6     0.06  -0.06   0.10     0.03  -0.05  -0.13     0.31  -0.02  -0.15
  20   1    -0.01  -0.04   0.02     0.03  -0.02   0.03     0.09   0.05  -0.04
  21   1     0.02  -0.04   0.01     0.03  -0.02   0.03     0.07   0.05   0.02
  22   1     0.00  -0.06   0.03     0.04  -0.02   0.06     0.09   0.07   0.03
  23   1    -0.00  -0.05   0.02    -0.01  -0.02   0.05     0.00  -0.00   0.05
  24   1    -0.03  -0.05   0.03    -0.02  -0.02   0.06     0.03   0.00  -0.01
  25   1    -0.03   0.01   0.00    -0.06   0.06  -0.04    -0.03  -0.00  -0.03
  26   1    -0.04   0.01  -0.02    -0.07   0.06  -0.03    -0.02  -0.01  -0.02
  27   1    -0.04  -0.00  -0.01    -0.06   0.06   0.02    -0.01   0.03   0.02
  28   1    -0.05  -0.01  -0.01    -0.09   0.08   0.01    -0.03   0.05   0.01
  29   1    -0.05  -0.00  -0.03    -0.06   0.06   0.03     0.01   0.02   0.03
  30   1     0.01   0.01  -0.04    -0.03   0.01   0.03     0.00   0.00   0.00
  31   1    -0.01   0.05  -0.03    -0.00  -0.00  -0.01     0.00  -0.01   0.00
  32   1    -0.01  -0.03   0.06     0.02  -0.05   0.03    -0.02  -0.04  -0.01
  33   1     0.03  -0.03   0.06     0.02  -0.03   0.03    -0.04   0.01  -0.02
  34   1    -0.02  -0.02   0.02    -0.01  -0.04  -0.01    -0.07  -0.00  -0.06
  35   1    -0.01  -0.03   0.05    -0.01  -0.04  -0.02    -0.09  -0.01  -0.09
  36   1     0.01  -0.01   0.03    -0.01  -0.00  -0.01    -0.09   0.05  -0.07
  37   1     0.06   0.01  -0.00    -0.01  -0.03  -0.02     0.01   0.03   0.02
  38   1     0.06   0.01   0.01    -0.01  -0.02  -0.03    -0.03  -0.03  -0.04
  39   1     0.00  -0.03   0.02     0.02  -0.02  -0.03     0.13   0.03  -0.01
  40   1     0.03  -0.01   0.05    -0.00  -0.01  -0.05     0.11  -0.03  -0.07
  41   1     0.01  -0.03   0.03     0.02  -0.01  -0.04     0.09  -0.03  -0.07
                      7                      8                      9
                        a                      a                      a 
 Frequencies --    72.1978                68.5624                69.4774
 Red. masses --    17.1586                13.2097                12.2415
 Frc consts  --     0.0000                 0.0000                 0.0000
 IR Inten    --     2.2827                 6.0930                 5.4991
 Raman Activ --     0.0000                 0.0000                 0.0000
 Depolar     --     0.0000                 0.0000                 0.0000
 Atom AN      X      Y      Z        X      Y      Z        X      Y      Z
   1   6     0.15   0.03   0.19    -0.20  -0.42  -0.12     0.20  -0.11   0.09
   2   6     0.01  -0.05   0.19    -0.05  -0.05  -0.08     0.12   0.00   0.12
   3   8    -0.06   0.02   0.09     0.03   0.10   0.09     0.08   0.04   0.04
   4  15    -0.03   0.12  -0.04     0.01   0.13   0.06     0.05   0.03  -0.07
   5  16     0.08   0.13  -0.34    -0.15   0.21   0.13    -0.04   0.11  -0.16
   6   8    -0.09   0.23  -0.01     0.01   0.05   0.02    -0.00   0.03  -0.08
   7   6     0.06  -0.04   0.02     0.09  -0.08   0.03     0.05  -0.17  -0.04
   8   6    -0.07  -0.34  -0.13     0.10  -0.15  -0.10    -0.04  -0.37  -0.13
   9  16    -0.10   0.00   0.03     0.06   0.08   0.03     0.03  -0.02  -0.04
  10   6    -0.03   0.01  -0.00    -0.03   0.02   0.02     0.01  -0.01  -0.02
  11  16    -0.11   0.07  -0.04     0.04  -0.02   0.10     0.05   0.07  -0.02
  12  15    -0.02  -0.05   0.07     0.00   0.03   0.11     0.02   0.09   0.02
  13  16    -0.01  -0.36   0.07    -0.11   0.10   0.15     0.10   0.20  -0.01
  14   8    -0.03   0.04   0.02     0.01   0.05   0.08    -0.02   0.01  -0.00
  15   6     0.06   0.14   0.00    -0.01  -0.01  -0.05    -0.17  -0.18  -0.04
  16   6     0.18   0.11   0.13    -0.01  -0.01  -0.38    -0.40  -0.12  -0.03
  17   8    -0.02   0.02   0.17     0.01   0.01   0.04     0.02   0.06   0.01
  18   6    -0.03  -0.06  -0.08     0.03  -0.06  -0.09     0.02   0.12   0.17
  19   6     0.11   0.04  -0.24     0.23  -0.09  -0.19    -0.14   0.08   0.28
  20   1     0.04   0.02   0.03    -0.06  -0.16   0.04     0.07  -0.05   0.03
  21   1     0.06   0.02   0.06    -0.07  -0.14  -0.09     0.05  -0.04   0.00
  22   1     0.05   0.00   0.08    -0.07  -0.15  -0.05     0.06  -0.03   0.04
  23   1     0.01  -0.03   0.08    -0.01   0.02  -0.09     0.02   0.01   0.03
  24   1    -0.02  -0.03   0.05    -0.00   0.00   0.03     0.03   0.01   0.06
  25   1     0.07  -0.03   0.05     0.03  -0.03   0.03     0.05  -0.06   0.02
  26   1     0.01   0.02   0.01     0.03  -0.03   0.02     0.01  -0.03  -0.02
  27   1    -0.01  -0.12  -0.03     0.02  -0.04  -0.04    -0.00  -0.12  -0.03
  28   1    -0.01  -0.15  -0.03     0.05  -0.07  -0.03    -0.01  -0.14  -0.03
  29   1    -0.08  -0.08  -0.08     0.02  -0.04  -0.05    -0.05  -0.10  -0.07
  30   1    -0.00   0.01  -0.01    -0.02  -0.01   0.01     0.00  -0.01  -0.00
  31   1    -0.00  -0.00   0.01    -0.02   0.01  -0.00     0.00  -0.00  -0.01
  32   1     0.03   0.07  -0.01    -0.02  -0.06   0.01    -0.03  -0.08  -0.02
  33   1    -0.00   0.04  -0.01     0.01   0.04   0.01    -0.04  -0.08  -0.02
  34   1     0.06   0.04   0.05    -0.02  -0.06  -0.13    -0.11  -0.01  -0.00
  35   1     0.06   0.05   0.04    -0.00  -0.01  -0.13    -0.14  -0.07  -0.02
  36   1     0.05  -0.00   0.05     0.01   0.05  -0.13    -0.13  -0.01  -0.00
  37   1    -0.02  -0.03  -0.02     0.01  -0.00  -0.00     0.01   0.03   0.03
  38   1    -0.04  -0.05  -0.04    -0.02  -0.04  -0.05     0.03   0.06   0.07
  39   1     0.06   0.05  -0.06     0.10  -0.01  -0.03    -0.07  -0.00   0.07
  40   1     0.04  -0.01  -0.11     0.07  -0.04  -0.07    -0.05   0.04   0.11
  41   1     0.03   0.01  -0.07     0.07  -0.04  -0.08    -0.04   0.03   0.09
                     10                     11                     12
                        a                      a                      a 
 Frequencies --    77.1013                79.3445                73.9691
 Red. masses --    13.6350                11.9018                11.3391
 Frc consts  --     0.0000                 0.0000                 0.0000
 IR Inten    --     3.9332                 1.1252                 0.4460
 Raman Activ --     0.0000                 0.0000                 0.0000
 Depolar     --     0.0000                 0.0000                 0.0000
 Atom AN      X      Y      Z        X      Y      Z        X      Y      Z
   1   6    -0.41   0.12  -0.12     0.10  -0.24  -0.17     0.06  -0.33   0.01
   2   6    -0.09  -0.01  -0.17     0.12   0.05  -0.12     0.03  -0.08   0.05
   3   8     0.08   0.00   0.14     0.14   0.07  -0.13     0.02  -0.01   0.03
   4  15     0.10   0.03   0.08     0.11   0.00  -0.06     0.00  -0.03  -0.02
   5  16     0.16   0.03  -0.07    -0.06   0.11  -0.11    -0.14   0.03   0.08
   6   8     0.03   0.08   0.04     0.18  -0.14  -0.04    -0.02  -0.05  -0.04
   7   6    -0.08   0.06   0.05    -0.14   0.03  -0.02     0.01   0.01  -0.05
   8   6    -0.22  -0.08   0.16    -0.41  -0.11   0.35     0.19   0.23  -0.11
   9  16     0.13  -0.16   0.05    -0.08   0.01   0.09     0.10   0.02  -0.10
  10   6     0.05  -0.09  -0.08    -0.00   0.02   0.07     0.00  -0.01  -0.02
  11  16     0.15   0.02  -0.12    -0.14   0.09   0.04     0.02  -0.04  -0.02
  12  15     0.10   0.04   0.05    -0.06   0.02  -0.04    -0.06   0.06  -0.01
  13  16     0.10  -0.15   0.05    -0.00   0.03  -0.07     0.17  -0.07  -0.09
  14   8     0.09   0.10   0.03    -0.09  -0.07  -0.04    -0.10   0.09  -0.07
  15   6    -0.07  -0.10  -0.00     0.01   0.05   0.02    -0.12   0.05  -0.01
  16   6    -0.31  -0.02   0.11     0.13   0.02   0.15    -0.22   0.09   0.48
  17   8     0.04   0.04   0.11     0.03   0.05  -0.03    -0.09   0.08   0.12
  18   6    -0.04   0.01  -0.09     0.11   0.01   0.04    -0.06   0.02  -0.03
  19   6    -0.02   0.16  -0.19     0.17  -0.09   0.07     0.16  -0.03  -0.14
  20   1    -0.16   0.06  -0.01     0.05  -0.11  -0.01     0.03  -0.12   0.03
  21   1    -0.11   0.05   0.01     0.01  -0.09  -0.10     0.01  -0.11  -0.05
  22   1    -0.15   0.03  -0.09     0.03  -0.07  -0.04     0.02  -0.11   0.01
  23   1     0.01  -0.02  -0.07     0.01   0.05  -0.07    -0.00   0.00  -0.02
  24   1    -0.03  -0.01  -0.10     0.06   0.04   0.01     0.02  -0.01   0.06
  25   1     0.01   0.01   0.02     0.01   0.00  -0.03    -0.05   0.01  -0.02
  26   1    -0.04   0.05  -0.01    -0.08   0.07  -0.06     0.02  -0.05   0.00
  27   1    -0.04  -0.06   0.07    -0.07  -0.10   0.15     0.03   0.12  -0.05
  28   1    -0.08  -0.03   0.05    -0.18   0.01   0.10     0.06   0.07  -0.03
  29   1    -0.10  -0.02   0.04    -0.16  -0.03   0.13     0.11   0.06  -0.03
  30   1     0.01  -0.05  -0.02     0.01   0.02   0.01    -0.00  -0.01  -0.00
  31   1     0.01  -0.02  -0.04     0.01  -0.00   0.03    -0.01   0.00  -0.01
  32   1     0.01  -0.04  -0.01    -0.00   0.05  -0.00     0.02   0.08  -0.04
  33   1    -0.03  -0.07  -0.02    -0.01   0.01  -0.00    -0.07  -0.07  -0.05
  34   1    -0.08   0.04   0.05     0.04   0.01   0.05    -0.03   0.11   0.18
  35   1    -0.12  -0.05   0.02     0.05   0.03   0.06    -0.07   0.01   0.15
  36   1    -0.12   0.00   0.05     0.04  -0.03   0.05    -0.11  -0.04   0.18
  37   1    -0.03  -0.02  -0.04     0.04   0.03   0.02    -0.03   0.02   0.02
  38   1    -0.02  -0.01  -0.03     0.02  -0.00   0.00    -0.06  -0.01  -0.04
  39   1    -0.00   0.07  -0.06     0.06  -0.03   0.03     0.08   0.01  -0.01
  40   1    -0.01   0.03  -0.09     0.06  -0.03   0.03     0.05  -0.02  -0.06
  41   1    -0.00   0.06  -0.04     0.04  -0.04   0.00     0.05  -0.02  -0.07
                     13                     14                     15
                        a                      a                      a 
 Frequencies --    85.5528               120.5231               144.1122
 Red. masses --    12.5496                13.2676                22.8883
 Frc consts  --     0.0000                 0.0000                 0.0000
 IR Inten    --     2.9318                 1.7241                 9.1799
 Raman Activ --     0.0000                 0.0000                 0.0000
 Depolar     --     0.0000                 0.0000                 0.0000
 Atom AN      X      Y      Z        X      Y      Z        X      Y      Z
   1   6     0.21  -0.23  -0.04    -0.14   0.04   0.06    -0.10   0.07   0.07
   2   6     0.08   0.00   0.01     0.06  -0.06   0.02    -0.01  -0.18   0.02
   3   8     0.02   0.02  -0.12     0.18  -0.04   0.21     0.04  -0.12   0.12
   4  15     0.02  -0.01  -0.02     0.13  -0.07  -0.03     0.03  -0.16   0.05
   5  16    -0.08   0.02   0.05    -0.01   0.02  -0.07    -0.28   0.10  -0.35
   6   8     0.10  -0.10   0.02    -0.08  -0.03  -0.15     0.08  -0.19   0.05
   7   6     0.02   0.03   0.00    -0.18  -0.09  -0.11     0.02  -0.10   0.05
   8   6     0.05   0.13   0.09    -0.02   0.11  -0.15     0.07   0.02   0.12
   9  16    -0.11   0.05   0.08     0.15  -0.09  -0.04     0.19   0.32  -0.07
  10   6     0.01   0.06   0.01    -0.03  -0.11   0.06     0.19   0.19   0.19
  11  16    -0.07   0.19  -0.04    -0.15  -0.00   0.05     0.05  -0.05   0.22
  12  15     0.08  -0.03   0.05    -0.18   0.03   0.09     0.03   0.05  -0.13
  13  16    -0.06  -0.23   0.11     0.04   0.11   0.01    -0.28  -0.22  -0.02
  14   8     0.09  -0.06   0.09    -0.29  -0.18  -0.03     0.08   0.10  -0.05
  15   6     0.03  -0.11   0.08    -0.10   0.03  -0.02     0.01   0.02  -0.06
  16   6    -0.03  -0.10  -0.05     0.16  -0.05  -0.05    -0.09   0.05  -0.01
  17   8     0.11  -0.02   0.00     0.10   0.17   0.15     0.04   0.03  -0.12
  18   6    -0.02  -0.01  -0.17     0.33  -0.05   0.02     0.07   0.04  -0.03
  19   6    -0.36   0.39  -0.22     0.03   0.26   0.00    -0.01  -0.00   0.04
  20   1     0.09  -0.10   0.00    -0.07   0.03   0.03    -0.06   0.06  -0.00
  21   1     0.05  -0.08  -0.07    -0.03   0.02   0.05     0.00   0.04   0.07
  22   1     0.08  -0.07   0.02    -0.06   0.01  -0.03    -0.04   0.01  -0.00
  23   1    -0.00   0.03  -0.01     0.05  -0.03  -0.00     0.04  -0.09   0.02
  24   1     0.03   0.02   0.06     0.01  -0.03  -0.03    -0.04  -0.08  -0.04
  25   1    -0.01   0.01  -0.02    -0.11  -0.02  -0.00    -0.02  -0.02   0.00
  26   1     0.01   0.00  -0.00    -0.04  -0.09  -0.04     0.01  -0.04   0.01
  27   1     0.01   0.04   0.03    -0.02   0.09  -0.04     0.02   0.02   0.04
  28   1     0.00   0.06   0.02    -0.02   0.02  -0.04     0.00   0.02   0.03
  29   1     0.03   0.03   0.05     0.06   0.03  -0.06     0.04  -0.00   0.05
  30   1     0.01   0.02  -0.01    -0.01  -0.04   0.01     0.08   0.10   0.04
  31   1     0.01   0.01   0.01    -0.02  -0.02   0.02     0.07   0.04   0.11
  32   1    -0.00  -0.06   0.04    -0.05   0.03  -0.00     0.02   0.00  -0.02
  33   1     0.02  -0.02   0.04    -0.04   0.04  -0.00    -0.00  -0.01  -0.03
  34   1    -0.02  -0.04  -0.03     0.05  -0.05  -0.02    -0.02   0.03   0.01
  35   1    -0.02  -0.04  -0.02     0.08   0.03  -0.01    -0.04  -0.00  -0.01
  36   1     0.00  -0.00  -0.03     0.07  -0.04  -0.02    -0.04   0.02   0.01
  37   1    -0.01  -0.07  -0.14     0.15  -0.04  -0.11     0.03   0.02  -0.01
  38   1     0.05  -0.02   0.02     0.15  -0.09   0.10     0.03   0.02   0.00
  39   1    -0.16   0.14  -0.13    -0.05   0.14  -0.08    -0.02  -0.01   0.00
  40   1    -0.11   0.10  -0.10     0.04   0.04  -0.04     0.01   0.00   0.03
  41   1    -0.11   0.17   0.03    -0.03   0.11   0.11    -0.01  -0.01   0.02
                     16                     17                     18
                        a                      a                      a 
 Frequencies --   127.3710               136.3185               152.1726
 Red. masses --    13.1666                15.8344                16.3827
 Frc consts  --     0.0000                 0.0000                 0.0000
 IR Inten    --     2.8109                 1.0750                33.9293
 Raman Activ --     0.0000                 0.0000                 0.0000
 Depolar     --     0.0000                 0.0000                 0.0000
 Atom AN      X      Y      Z        X      Y      Z        X      Y      Z
   1   6    -0.10  -0.04   0.02    -0.04  -0.10  -0.03     0.06   0.04  -0.02
   2   6     0.09   0.18   0.03     0.00   0.34   0.03     0.04  -0.35  -0.08
   3   8     0.19   0.03   0.16     0.00   0.10   0.00     0.06   0.01  -0.02
   4  15     0.09  -0.05   0.03    -0.10   0.05   0.04     0.18   0.11  -0.10
   5  16     0.16  -0.03  -0.19     0.23  -0.12  -0.02    -0.04   0.19   0.20
   6   8    -0.10  -0.07  -0.13    -0.12   0.07  -0.00     0.03   0.09  -0.16
   7   6    -0.28  -0.24  -0.05    -0.10  -0.05   0.02    -0.11  -0.01  -0.11
   8   6    -0.00   0.11  -0.13    -0.02   0.00  -0.09    -0.05   0.08  -0.13
   9  16    -0.08  -0.01   0.16    -0.16  -0.08   0.08    -0.22  -0.15   0.23
  10   6     0.09   0.05   0.08     0.03  -0.01   0.08     0.03  -0.02   0.06
  11  16    -0.12   0.24  -0.01     0.17  -0.19   0.21    -0.02   0.15   0.05
  12  15     0.06   0.03  -0.02     0.08  -0.01  -0.09     0.15  -0.06   0.02
  13  16     0.09  -0.09  -0.03    -0.28  -0.08   0.04    -0.17   0.05   0.14
  14   8     0.12   0.00   0.07     0.07   0.13  -0.10     0.07  -0.00  -0.04
  15   6     0.05  -0.03   0.19     0.05   0.06  -0.28     0.08  -0.05  -0.30
  16   6     0.03  -0.02  -0.05    -0.05   0.10   0.07     0.02  -0.02   0.05
  17   8    -0.07  -0.06  -0.08     0.09  -0.00  -0.10     0.05  -0.09  -0.04
  18   6    -0.25   0.09  -0.01     0.21  -0.07  -0.03    -0.07   0.01   0.01
  19   6    -0.01  -0.13  -0.01    -0.05   0.03   0.06    -0.03  -0.06   0.03
  20   1    -0.01  -0.06   0.05     0.06  -0.12   0.05    -0.06   0.10  -0.05
  21   1    -0.08  -0.04  -0.02    -0.10  -0.08  -0.09     0.11   0.06   0.06
  22   1    -0.04   0.02  -0.02    -0.00   0.02   0.00     0.00  -0.05  -0.02
  23   1    -0.01   0.10  -0.03    -0.08   0.19  -0.04     0.11  -0.20   0.02
  24   1     0.08   0.08   0.03     0.09   0.16   0.08    -0.10  -0.17  -0.09
  25   1    -0.20  -0.06   0.04    -0.05  -0.01   0.03    -0.07  -0.00  -0.00
  26   1    -0.06  -0.20  -0.05    -0.02  -0.05   0.00    -0.03  -0.05  -0.06
  27   1    -0.03   0.15  -0.02    -0.02   0.03  -0.03    -0.02   0.07  -0.02
  28   1    -0.02  -0.00  -0.03     0.00  -0.02  -0.02    -0.03  -0.00  -0.03
  29   1     0.11   0.02  -0.08     0.02   0.00  -0.05     0.03   0.02  -0.07
  30   1     0.06   0.04   0.00     0.00   0.02   0.03     0.02   0.01   0.01
  31   1     0.05  -0.01   0.05     0.02  -0.02   0.02     0.03  -0.03   0.02
  32   1    -0.04  -0.04   0.09     0.10   0.05  -0.13     0.12   0.02  -0.15
  33   1     0.06   0.01   0.10    -0.05  -0.03  -0.15    -0.06  -0.05  -0.17
  34   1    -0.04  -0.03  -0.05     0.05   0.09   0.08     0.08   0.04   0.08
  35   1     0.00  -0.01   0.01    -0.03   0.01  -0.02     0.00  -0.02  -0.04
  36   1     0.05   0.02  -0.05    -0.09   0.00   0.07    -0.08  -0.04   0.08
  37   1    -0.12   0.04   0.09     0.10  -0.03  -0.08    -0.04   0.00   0.04
  38   1    -0.12   0.09  -0.07     0.11  -0.04   0.05    -0.03   0.03  -0.02
  39   1     0.04  -0.09   0.06    -0.06   0.03  -0.04     0.00  -0.05   0.03
  40   1    -0.03  -0.01   0.02     0.01  -0.00   0.03    -0.03   0.00   0.02
  41   1     0.03  -0.06  -0.09    -0.04   0.02   0.08     0.01  -0.02  -0.02
                     19                     20                     21
                        a                      a                      a 
 Frequencies --   162.6696               161.5576               181.4984
 Red. masses --    18.1133                12.5360                16.7235
 Frc consts  --     0.0000                 0.0000                 0.0000
 IR Inten    --     4.0303                14.6522                11.5071
 Raman Activ --     0.0000                 0.0000                 0.0000
 Depolar     --     0.0000                 0.0000                 0.0000
 Atom AN      X      Y      Z        X      Y      Z        X      Y      Z
   1   6     0.04   0.00   0.00    -0.11  -0.00   0.04    -0.09   0.01   0.06
   2   6     0.05  -0.11  -0.02     0.08   0.15   0.04     0.09   0.07   0.04
   3   8     0.06   0.01   0.01     0.16  -0.07   0.15     0.17  -0.08   0.15
   4  15     0.07   0.04  -0.12     0.02  -0.17  -0.11     0.06  -0.16  -0.07
   5  16    -0.05   0.04   0.22    -0.12  -0.16   0.12    -0.11  -0.11   0.03
   6   8    -0.04   0.14  -0.11    -0.07   0.06  -0.06    -0.02  -0.02  -0.06
   7   6     0.02   0.15  -0.12     0.18   0.28  -0.14     0.12   0.16  -0.11
   8   6    -0.08  -0.00  -0.14    -0.05  -0.03  -0.13    -0.03  -0.01  -0.06
   9  16    -0.16  -0.17   0.09    -0.02  -0.03  -0.09    -0.01   0.08  -0.04
  10   6     0.04  -0.07   0.15     0.13   0.02   0.11     0.05   0.07   0.04
  11  16     0.07  -0.15   0.25     0.03   0.08   0.11    -0.29   0.23  -0.13
  12  15    -0.07   0.15  -0.13     0.05   0.05  -0.03    -0.00  -0.13   0.12
  13  16     0.08  -0.27  -0.20    -0.18  -0.05   0.05     0.17   0.12   0.09
  14   8     0.08   0.15   0.02    -0.08  -0.20  -0.06     0.12   0.20   0.12
  15   6    -0.04   0.08   0.33    -0.01  -0.13  -0.08     0.07   0.11  -0.07
  16   6    -0.13   0.10  -0.04     0.12  -0.17   0.03    -0.10   0.16  -0.01
  17   8    -0.02   0.08  -0.21     0.06   0.07   0.03    -0.08  -0.18  -0.03
  18   6     0.14   0.01  -0.09    -0.18   0.24   0.04     0.10  -0.31  -0.06
  19   6     0.01  -0.04   0.03     0.06   0.13  -0.04    -0.13  -0.22   0.01
  20   1    -0.01   0.03  -0.01    -0.00  -0.05   0.05    -0.01  -0.03   0.04
  21   1     0.04   0.02   0.02    -0.09  -0.03   0.00    -0.07  -0.02   0.02
  22   1     0.01  -0.02  -0.01    -0.04   0.04  -0.02    -0.04   0.04  -0.01
  23   1     0.05  -0.06   0.01    -0.02   0.09  -0.02     0.01   0.04  -0.01
  24   1    -0.02  -0.05  -0.02     0.09   0.08   0.02     0.06   0.04   0.01
  25   1     0.05   0.04  -0.05     0.17   0.07  -0.11     0.11   0.04  -0.08
  26   1    -0.00   0.09  -0.02     0.04   0.21   0.01     0.03   0.13  -0.00
  27   1    -0.02  -0.04  -0.05     0.00  -0.13  -0.08     0.00  -0.08  -0.05
  28   1    -0.00   0.00  -0.04     0.04   0.03  -0.05     0.02   0.04  -0.03
  29   1    -0.07   0.01  -0.04    -0.13  -0.00   0.02    -0.08  -0.00   0.03
  30   1     0.02   0.01   0.05     0.06   0.05   0.02     0.05   0.04  -0.02
  31   1     0.03  -0.04   0.05     0.06  -0.02   0.07     0.03   0.01   0.05
  32   1    -0.12  -0.02   0.16     0.01  -0.01  -0.04     0.07   0.02  -0.04
  33   1     0.08   0.05   0.18    -0.02  -0.04  -0.04    -0.01   0.01  -0.05
  34   1    -0.13   0.00  -0.08     0.05  -0.05   0.02    -0.00   0.08   0.02
  35   1    -0.06   0.01   0.05     0.05  -0.02   0.00    -0.05   0.01  -0.04
  36   1     0.05   0.08  -0.08     0.03  -0.08   0.02    -0.08   0.07   0.02
  37   1     0.08   0.02  -0.06    -0.11   0.07   0.10     0.08  -0.09  -0.09
  38   1     0.07  -0.01   0.01    -0.10   0.13  -0.06     0.07  -0.14   0.05
  39   1    -0.03   0.00  -0.03     0.07  -0.01   0.06    -0.09  -0.03  -0.05
  40   1     0.04  -0.02   0.03    -0.03   0.06  -0.01    -0.00  -0.08   0.01
  41   1    -0.03  -0.03   0.04     0.07   0.04  -0.10    -0.08  -0.06   0.07
                     22                     23                     24
                        a                      a                      a 
 Frequencies --   221.0750               233.7282               242.3090
 Red. masses --    16.7966                20.2171                14.8615
 Frc consts  --     0.0000                 0.0000                 0.0000
 IR Inten    --    23.8481                14.1429                 5.0928
 Raman Activ --     0.0000                 0.0000                 0.0000
 Depolar     --     0.0000                 0.0000                 0.0000
 Atom AN      X      Y      Z        X      Y      Z        X      Y      Z
   1   6    -0.09   0.01   0.11     0.15   0.02  -0.18     0.03   0.01  -0.03
   2   6     0.03  -0.01   0.09    -0.06   0.04  -0.15     0.01  -0.00  -0.03
   3   8     0.07   0.04   0.14    -0.13  -0.12  -0.23     0.01  -0.08  -0.03
   4  15    -0.01   0.03  -0.08     0.03  -0.12   0.18     0.07  -0.09   0.10
   5  16     0.09  -0.04   0.02    -0.16   0.03  -0.09    -0.05  -0.00  -0.06
   6   8     0.12  -0.16  -0.04    -0.20   0.21   0.10    -0.06  -0.02   0.00
   7   6     0.07  -0.06  -0.04    -0.10   0.09   0.09    -0.03   0.03  -0.01
   8   6     0.04  -0.01   0.10    -0.06   0.01  -0.14    -0.03  -0.00  -0.08
   9  16    -0.08   0.06  -0.14     0.42  -0.12   0.12     0.20   0.05   0.09
  10   6    -0.35  -0.05  -0.13     0.13  -0.12   0.09    -0.42  -0.15   0.03
  11  16     0.17   0.17   0.13     0.03   0.20   0.03    -0.35  -0.10   0.18
  12  15    -0.03   0.28   0.15    -0.06   0.19   0.15     0.05  -0.13  -0.08
  13  16     0.11  -0.22   0.13     0.08  -0.12   0.12     0.02   0.04  -0.09
  14   8    -0.14  -0.05   0.08    -0.13  -0.05   0.09     0.23   0.11   0.05
  15   6    -0.06   0.01  -0.08    -0.06   0.00  -0.05     0.15   0.03  -0.01
  16   6     0.06  -0.03   0.01     0.05  -0.03   0.00    -0.06   0.10  -0.00
  17   8     0.01   0.02  -0.37    -0.03   0.01  -0.21     0.20  -0.03  -0.06
  18   6     0.01   0.06  -0.17     0.00   0.01  -0.10     0.04   0.13   0.03
  19   6    -0.09  -0.14   0.01    -0.08  -0.13   0.02     0.09   0.17  -0.02
  20   1    -0.05   0.01   0.05     0.10  -0.02  -0.09     0.05  -0.02  -0.02
  21   1    -0.02   0.01   0.05     0.01  -0.01  -0.08    -0.04  -0.01  -0.00
  22   1    -0.04  -0.01  -0.00     0.08   0.05   0.01     0.02   0.06   0.00
  23   1     0.03  -0.01   0.02    -0.05   0.03  -0.03    -0.01   0.01  -0.00
  24   1     0.00  -0.01   0.02     0.01   0.03  -0.03     0.02   0.00  -0.01
  25   1     0.02  -0.02  -0.03    -0.02   0.02   0.05     0.00   0.01  -0.02
  26   1     0.02  -0.01  -0.01    -0.02   0.01   0.04    -0.01   0.02   0.01
  27   1     0.02  -0.02   0.04    -0.04   0.01  -0.07    -0.02  -0.05  -0.09
  28   1    -0.01   0.03   0.02     0.04  -0.04  -0.04     0.06   0.05  -0.04
  29   1     0.01  -0.01   0.06    -0.03   0.01  -0.07    -0.05  -0.01   0.03
  30   1    -0.19  -0.12   0.01     0.05  -0.05   0.01    -0.19  -0.17   0.04
  31   1    -0.15   0.04  -0.17     0.03  -0.03   0.02    -0.19   0.03  -0.10
  32   1     0.03   0.02  -0.05     0.02   0.01  -0.03     0.06  -0.00  -0.01
  33   1    -0.06   0.01  -0.06    -0.05   0.01  -0.04     0.03  -0.01  -0.02
  34   1     0.09  -0.03   0.05     0.08  -0.03   0.04    -0.01   0.06   0.01
  35   1     0.04   0.01  -0.07     0.03   0.01  -0.07    -0.05  -0.02  -0.02
  36   1    -0.05  -0.02   0.05    -0.04  -0.01   0.03    -0.05   0.06   0.01
  37   1     0.01   0.04  -0.04     0.01   0.01  -0.03    -0.03   0.02   0.05
  38   1     0.02   0.04  -0.05     0.01   0.01  -0.02    -0.00   0.09  -0.03
  39   1    -0.05  -0.09   0.00    -0.04  -0.06  -0.00     0.06  -0.10   0.08
  40   1    -0.02  -0.02   0.07    -0.00  -0.03   0.05    -0.14   0.14   0.01
  41   1    -0.04  -0.07  -0.02    -0.04  -0.06   0.01     0.16   0.13  -0.12
                     25                     26                     27
                        a                      a                      a 
 Frequencies --   215.8670               223.0984               221.4290
 Red. masses --     5.6590                 6.9336                 4.6726
 Frc consts  --     0.0000                 0.0000                 0.0000
 IR Inten    --     1.3295                 4.9717                 1.2760
 Raman Activ --     0.0000                 0.0000                 0.0000
 Depolar     --     0.0000                 0.0000                 0.0000
 Atom AN      X      Y      Z        X      Y      Z        X      Y      Z
   1   6     0.07  -0.00  -0.04     0.02  -0.01  -0.02    -0.04   0.01   0.04
   2   6     0.03   0.03  -0.02     0.00   0.06  -0.01    -0.04  -0.09   0.02
   3   8     0.04   0.12   0.01     0.01   0.14   0.01    -0.05  -0.07  -0.01
   4  15    -0.07   0.02   0.17    -0.14   0.07  -0.00     0.10   0.03   0.02
   5  16     0.08   0.00  -0.10     0.07  -0.04  -0.01     0.01   0.11  -0.00
   6   8    -0.12  -0.18  -0.01    -0.03  -0.05   0.01     0.03  -0.07  -0.06
   7   6    -0.08  -0.03  -0.05     0.00  -0.03   0.01    -0.03  -0.04  -0.06
   8   6    -0.03   0.02  -0.11     0.02  -0.00   0.02    -0.01   0.00  -0.04
   9  16     0.05   0.03   0.15    -0.02  -0.07  -0.10    -0.04   0.06   0.15
  10   6    -0.03   0.01  -0.04     0.17  -0.01   0.08    -0.05   0.04  -0.05
  11  16     0.11   0.06   0.01    -0.15  -0.13  -0.06     0.04  -0.07  -0.03
  12  15     0.07   0.00  -0.02    -0.17   0.00   0.03    -0.03   0.03  -0.08
  13  16    -0.05   0.01   0.03     0.09  -0.02  -0.07     0.00   0.01  -0.11
  14   8    -0.04  -0.02  -0.10     0.05   0.02   0.20     0.09   0.00   0.06
  15   6    -0.03  -0.00  -0.03     0.03  -0.02   0.08     0.05  -0.06   0.07
  16   6    -0.01  -0.01   0.02     0.02  -0.02  -0.02     0.05  -0.07  -0.00
  17   8    -0.04  -0.01   0.05     0.03   0.03  -0.07    -0.09   0.04   0.04
  18   6    -0.02  -0.05  -0.00     0.04   0.07  -0.00    -0.08   0.05   0.05
  19   6    -0.02  -0.05  -0.01     0.04   0.07  -0.00     0.03   0.01   0.01
  20   1    -0.15   0.12   0.03    -0.19   0.14   0.06     0.21  -0.15  -0.06
  21   1     0.23   0.08  -0.04     0.24   0.09  -0.04    -0.27  -0.10   0.06
  22   1    -0.01  -0.23  -0.03    -0.03  -0.27  -0.04     0.03   0.30   0.05
  23   1     0.03  -0.01  -0.01     0.02   0.01  -0.01    -0.01  -0.03   0.01
  24   1    -0.02  -0.01  -0.00    -0.02   0.01   0.01    -0.01  -0.03  -0.01
  25   1    -0.01  -0.01  -0.05    -0.00  -0.01  -0.00    -0.01  -0.01  -0.02
  26   1    -0.01   0.02   0.02     0.00  -0.01   0.01    -0.01  -0.01  -0.02
  27   1    -0.08  -0.25  -0.35    -0.01  -0.04  -0.05    -0.03  -0.11  -0.15
  28   1     0.27   0.33  -0.10     0.05   0.07  -0.01     0.11   0.15  -0.05
  29   1    -0.18  -0.03   0.33    -0.02  -0.01   0.08    -0.07  -0.02   0.16
  30   1    -0.03  -0.03  -0.00     0.10   0.08  -0.01    -0.03  -0.02  -0.01
  31   1    -0.02   0.02  -0.05     0.08  -0.04   0.11    -0.02   0.02  -0.03
  32   1    -0.02   0.01  -0.00     0.04  -0.02   0.01     0.02  -0.03   0.02
  33   1     0.01  -0.01   0.00    -0.02   0.01   0.00     0.01  -0.01   0.02
  34   1    -0.12   0.04  -0.07     0.30  -0.12   0.19     0.22  -0.11   0.13
  35   1    -0.01   0.01   0.16     0.02  -0.02  -0.40     0.03  -0.03  -0.27
  36   1     0.12  -0.06  -0.06    -0.31   0.12   0.15    -0.20   0.06   0.11
  37   1    -0.00  -0.01  -0.01     0.00   0.02   0.01    -0.02   0.03   0.02
  38   1    -0.01  -0.02   0.00     0.01   0.03  -0.01    -0.03   0.01   0.01
  39   1    -0.02   0.05  -0.03     0.03  -0.06   0.04    -0.01   0.27  -0.10
  40   1     0.06  -0.05  -0.01    -0.08   0.07   0.01     0.26  -0.16  -0.06
  41   1    -0.06  -0.04   0.04     0.08   0.06  -0.06    -0.19  -0.12   0.16
                     28                     29                     30
                        a                      a                      a 
 Frequencies --   230.3579               285.4957               316.3608
 Red. masses --     5.1436                16.6510                15.3818
 Frc consts  --     0.0000                 0.0000                 0.0000
 IR Inten    --     3.0722                 2.3777                 7.8433
 Raman Activ --     0.0000                 0.0000                 0.0000
 Depolar     --     0.0000                 0.0000                 0.0000
 Atom AN      X      Y      Z        X      Y      Z        X      Y      Z
   1   6    -0.05   0.01   0.06    -0.06  -0.01   0.06    -0.15  -0.01   0.19
   2   6    -0.08  -0.07   0.04    -0.11   0.01   0.06    -0.17   0.14   0.20
   3   8    -0.10   0.01  -0.02    -0.15   0.07  -0.05    -0.33  -0.12  -0.21
   4  15     0.02   0.13  -0.04    -0.10   0.17  -0.15     0.07   0.10  -0.05
   5  16     0.07   0.13   0.03     0.09   0.07   0.05     0.03   0.16  -0.01
   6   8     0.06  -0.08  -0.06     0.08  -0.02  -0.05     0.16  -0.32  -0.16
   7   6    -0.02  -0.10  -0.05     0.03  -0.12  -0.00     0.08   0.05  -0.25
   8   6     0.02   0.00   0.02     0.06  -0.01   0.13    -0.03   0.01  -0.08
   9  16    -0.05  -0.05   0.01     0.14  -0.26  -0.30     0.23  -0.11   0.21
  10   6     0.19   0.03  -0.00     0.12  -0.18   0.19     0.02  -0.09   0.06
  11  16     0.07  -0.04  -0.10    -0.33   0.04   0.10     0.03   0.16   0.07
  12  15    -0.07  -0.01   0.08    -0.03   0.01   0.07     0.09  -0.03  -0.06
  13  16     0.02  -0.03   0.06     0.07  -0.00   0.07    -0.07   0.02  -0.03
  14   8    -0.13  -0.02   0.00     0.09   0.05   0.13    -0.01  -0.03  -0.12
  15   6    -0.08   0.05   0.01     0.07  -0.02  -0.13    -0.01   0.02   0.07
  16   6    -0.02   0.04  -0.00    -0.00   0.01  -0.00    -0.01   0.02   0.00
  17   8     0.03  -0.00  -0.01     0.10  -0.03  -0.17    -0.02  -0.01   0.10
  18   6     0.11  -0.08  -0.05    -0.05   0.15  -0.00    -0.01  -0.07   0.00
  19   6    -0.03  -0.01  -0.02     0.04   0.05   0.01    -0.03  -0.04  -0.01
  20   1     0.18  -0.13  -0.05     0.02  -0.03   0.01    -0.13   0.04   0.11
  21   1    -0.25  -0.09   0.05    -0.05  -0.02   0.02     0.05   0.03   0.02
  22   1     0.02   0.27   0.06    -0.01   0.04   0.03    -0.07  -0.13   0.02
  23   1    -0.02  -0.03   0.02    -0.03   0.00   0.02    -0.13   0.09   0.07
  24   1    -0.03  -0.03   0.01    -0.03   0.00   0.03     0.02   0.08   0.09
  25   1    -0.02  -0.02  -0.01    -0.02  -0.03   0.02     0.06   0.02  -0.14
  26   1    -0.01  -0.04  -0.02     0.01  -0.06  -0.02     0.01   0.08  -0.05
  27   1    -0.03  -0.13  -0.14     0.01  -0.06  -0.01     0.03   0.04   0.07
  28   1     0.12   0.19  -0.03     0.04   0.10   0.02    -0.10  -0.07  -0.01
  29   1    -0.06  -0.02   0.21     0.01  -0.02   0.15     0.01   0.01  -0.10
  30   1     0.09   0.07  -0.02     0.09   0.03   0.03    -0.01  -0.06   0.02
  31   1     0.08  -0.02   0.06     0.07  -0.09   0.13    -0.01  -0.01  -0.02
  32   1    -0.03   0.02   0.01     0.08  -0.01  -0.06    -0.04   0.01   0.04
  33   1    -0.02   0.02   0.01    -0.03  -0.02  -0.08     0.03   0.01   0.05
  34   1    -0.02   0.01  -0.01    -0.14   0.08  -0.08     0.04  -0.02   0.03
  35   1    -0.00   0.02   0.01    -0.02  -0.00   0.19    -0.00  -0.00  -0.07
  36   1     0.01   0.00  -0.01     0.14  -0.07  -0.07    -0.06   0.04   0.02
  37   1     0.04  -0.03  -0.04    -0.05   0.04   0.05     0.01  -0.02  -0.01
  38   1     0.05  -0.04   0.01    -0.03   0.09  -0.04    -0.00  -0.04   0.01
  39   1     0.01  -0.33   0.13     0.01   0.17  -0.05    -0.01  -0.03   0.00
  40   1    -0.33   0.20   0.07     0.17  -0.08  -0.03    -0.02  -0.00   0.00
  41   1     0.24   0.16  -0.19    -0.11  -0.07   0.08     0.00  -0.00  -0.01
                     31                     32                     33
                        a                      a                      a 
 Frequencies --   322.0723               330.1911               346.0704
 Red. masses --    19.7965                15.7906                15.1763
 Frc consts  --     0.0000                 0.0000                 0.0000
 IR Inten    --     7.9195                 5.6261                12.9587
 Raman Activ --     0.0000                 0.0000                 0.0000
 Depolar     --     0.0000                 0.0000                 0.0000
 Atom AN      X      Y      Z        X      Y      Z        X      Y      Z
   1   6    -0.02  -0.01   0.03    -0.11   0.00   0.12    -0.00  -0.00   0.01
   2   6    -0.02   0.01   0.03     0.03   0.14   0.11     0.01   0.01   0.01
   3   8    -0.04  -0.01  -0.02    -0.10  -0.36  -0.19    -0.00  -0.03  -0.01
   4  15     0.04  -0.01   0.13     0.33  -0.14  -0.24     0.04  -0.02   0.01
   5  16     0.02   0.05  -0.05    -0.16   0.04   0.09    -0.01   0.01   0.00
   6   8     0.02  -0.23  -0.04     0.10   0.41  -0.04     0.01   0.01   0.00
   7   6     0.01   0.11  -0.13    -0.05  -0.14   0.11    -0.01   0.00   0.00
   8   6    -0.06   0.02  -0.14     0.03  -0.02   0.11    -0.01  -0.00  -0.02
   9  16    -0.07   0.15   0.32    -0.10   0.09   0.06    -0.05   0.04   0.06
  10   6     0.07   0.13  -0.11    -0.03   0.06  -0.06     0.05   0.05  -0.06
  11  16    -0.01  -0.37  -0.25     0.03  -0.11  -0.07     0.03  -0.08  -0.11
  12  15    -0.25   0.06   0.14    -0.05   0.04   0.02     0.08  -0.27   0.12
  13  16     0.15  -0.04   0.05     0.03  -0.01  -0.01     0.04   0.02   0.24
  14   8     0.04   0.08   0.30     0.02   0.03   0.07    -0.29  -0.23  -0.19
  15   6     0.01  -0.06  -0.15     0.00  -0.02  -0.03    -0.07   0.24   0.10
  16   6     0.05  -0.07   0.00     0.02  -0.03   0.00    -0.16   0.30  -0.03
  17   8     0.02   0.03  -0.21    -0.02   0.02  -0.02     0.31  -0.22  -0.29
  18   6     0.02   0.13  -0.01     0.01   0.01  -0.00    -0.03   0.14   0.01
  19   6     0.05   0.08   0.01     0.01   0.01   0.00     0.06   0.09   0.00
  20   1    -0.02   0.01   0.02    -0.16   0.06   0.12    -0.01   0.00   0.01
  21   1     0.01   0.00   0.01     0.07   0.04   0.01     0.00   0.00   0.00
  22   1    -0.01  -0.02   0.00    -0.08  -0.15  -0.04    -0.00  -0.01  -0.00
  23   1    -0.01   0.01   0.01    -0.10   0.12   0.04    -0.01   0.01   0.00
  24   1     0.00   0.01   0.01     0.12   0.10   0.06     0.01   0.01   0.00
  25   1     0.04   0.03  -0.10    -0.09  -0.04   0.14    -0.01   0.00   0.00
  26   1     0.00   0.09  -0.01    -0.02  -0.15  -0.04    -0.00  -0.00  -0.00
  27   1    -0.00   0.04   0.02    -0.02  -0.06  -0.06    -0.00  -0.00  -0.01
  28   1    -0.06  -0.09  -0.02     0.08   0.13   0.01     0.01  -0.00  -0.01
  29   1    -0.01   0.02  -0.14    -0.01  -0.03   0.17    -0.00  -0.00  -0.01
  30   1     0.05   0.05  -0.05    -0.01   0.01  -0.02     0.03   0.03  -0.02
  31   1     0.02   0.03   0.02    -0.01   0.02  -0.02     0.02   0.01   0.01
  32   1     0.10  -0.03  -0.09     0.02  -0.01  -0.02    -0.10   0.09   0.06
  33   1    -0.08  -0.02  -0.11    -0.02  -0.01  -0.02     0.04   0.09   0.08
  34   1    -0.09   0.04  -0.06    -0.01  -0.00  -0.01    -0.02   0.08   0.01
  35   1     0.02   0.00   0.17     0.01   0.00   0.03    -0.09   0.03  -0.08
  36   1     0.14  -0.11  -0.05     0.03  -0.03  -0.01    -0.11   0.17   0.01
  37   1    -0.00   0.04   0.02     0.01   0.01  -0.00    -0.08   0.02   0.09
  38   1     0.01   0.06  -0.02     0.01  -0.00   0.00    -0.02   0.15  -0.06
  39   1     0.02   0.04   0.00     0.00  -0.00   0.00     0.03   0.13  -0.03
  40   1     0.04   0.01  -0.00    -0.00   0.01   0.00     0.11  -0.04  -0.04
  41   1     0.00   0.01   0.01     0.01   0.01  -0.00    -0.05  -0.02   0.04
                     34                     35                     36
                        a                      a                      a 
 Frequencies --   417.1195               424.4063               443.9790
 Red. masses --    20.3424                18.9725                14.8138
 Frc consts  --     0.0000                 0.0000                 0.0000
 IR Inten    --    45.0179                13.4724                27.9041
 Raman Activ --     0.0000                 0.0000                 0.0000
 Depolar     --     0.0000                 0.0000                 0.0000
 Atom AN      X      Y      Z        X      Y      Z        X      Y      Z
   1   6    -0.01  -0.00   0.02    -0.03  -0.01   0.04    -0.18  -0.04   0.22
   2   6     0.01   0.01   0.02     0.03   0.00   0.03     0.35  -0.10   0.10
   3   8    -0.02  -0.07  -0.05    -0.02  -0.09  -0.09     0.08   0.33  -0.45
   4  15     0.12  -0.05   0.17     0.15  -0.06   0.21    -0.19   0.06  -0.14
   5  16     0.05   0.11   0.02     0.07   0.16   0.03    -0.10  -0.25  -0.05
   6   8     0.16  -0.11   0.12     0.31  -0.16   0.22     0.11   0.04   0.12
   7   6    -0.09   0.09   0.10    -0.16   0.15   0.20    -0.08   0.06   0.14
   8   6    -0.06   0.00  -0.14    -0.11   0.01  -0.23    -0.04   0.01  -0.08
   9  16    -0.16   0.01  -0.21    -0.18  -0.06  -0.36     0.16   0.01   0.14
  10   6    -0.01  -0.03  -0.02    -0.00  -0.02   0.00     0.01   0.01   0.02
  11  16    -0.31  -0.27  -0.07     0.13   0.21   0.10     0.02  -0.00  -0.02
  12  15     0.27   0.21  -0.03    -0.13  -0.10   0.01    -0.03  -0.02  -0.00
  13  16     0.04   0.03   0.19    -0.03  -0.02  -0.12    -0.00   0.01  -0.01
  14   8    -0.00   0.03  -0.18     0.00  -0.02   0.11    -0.00  -0.01   0.01
  15   6    -0.05  -0.01   0.03     0.04   0.00  -0.01     0.01   0.00  -0.00
  16   6     0.02  -0.04   0.01    -0.01   0.02  -0.01    -0.00   0.01  -0.00
  17   8     0.18   0.21   0.21    -0.13  -0.13  -0.13     0.05   0.03   0.04
  18   6     0.01   0.11  -0.24    -0.01  -0.08   0.16     0.00   0.02  -0.04
  19   6    -0.15  -0.20  -0.00     0.09   0.12   0.00    -0.02  -0.03  -0.00
  20   1    -0.01   0.00   0.02    -0.02   0.00   0.03    -0.09  -0.04   0.17
  21   1     0.00   0.00   0.01    -0.01  -0.00   0.02    -0.16  -0.03   0.18
  22   1    -0.01  -0.01  -0.00    -0.02  -0.01  -0.01    -0.14   0.07  -0.12
  23   1    -0.01   0.01   0.01    -0.02   0.01   0.01     0.15  -0.08   0.04
  24   1     0.02   0.01   0.01     0.03   0.01   0.01    -0.00  -0.08   0.03
  25   1    -0.03   0.03   0.02    -0.07   0.04   0.05    -0.04   0.02   0.06
  26   1    -0.03   0.02   0.02    -0.05   0.02   0.03    -0.03  -0.02   0.02
  27   1    -0.05   0.01  -0.09    -0.08   0.01  -0.17    -0.04   0.01  -0.07
  28   1     0.06  -0.06  -0.04     0.12  -0.10  -0.06     0.06  -0.04  -0.02
  29   1    -0.05   0.01  -0.09    -0.09   0.02  -0.15    -0.04   0.01  -0.05
  30   1     0.03   0.05  -0.02    -0.01   0.04   0.02     0.00  -0.02   0.00
  31   1     0.01  -0.02   0.07     0.02  -0.03  -0.01    -0.01   0.01  -0.00
  32   1    -0.06   0.00   0.03     0.04  -0.00  -0.02     0.01   0.00  -0.00
  33   1     0.03  -0.01   0.04    -0.01   0.01  -0.02    -0.00   0.00  -0.00
  34   1     0.03  -0.04   0.01    -0.02   0.02  -0.01    -0.00   0.01  -0.00
  35   1     0.02   0.01  -0.03    -0.02  -0.01   0.01    -0.00  -0.00   0.00
  36   1    -0.01  -0.01   0.01     0.00   0.01  -0.01    -0.00   0.00  -0.00
  37   1    -0.02   0.02  -0.05     0.01  -0.01   0.03    -0.01   0.00  -0.00
  38   1    -0.01   0.03  -0.08     0.00  -0.02   0.05    -0.00   0.01  -0.02
  39   1    -0.10  -0.13  -0.03     0.06   0.08   0.02    -0.02  -0.02  -0.01
  40   1     0.02  -0.03   0.14    -0.01   0.02  -0.09     0.01  -0.01   0.02
  41   1    -0.10  -0.14  -0.01     0.07   0.09   0.00    -0.02  -0.02  -0.00
                     37                     38                     39
                        a                      a                      a 
 Frequencies --   456.0971               478.0488               486.9834
 Red. masses --    14.5901                17.5320                19.4910
 Frc consts  --     0.0000                 0.0000                 0.0000
 IR Inten    --    36.7959               217.6737                74.8561
 Raman Activ --     0.0000                 0.0000                 0.0000
 Depolar     --     0.0000                 0.0000                 0.0000
 Atom AN      X      Y      Z        X      Y      Z        X      Y      Z
   1   6    -0.02  -0.01   0.03     0.07   0.02  -0.08     0.04   0.01  -0.04
   2   6     0.05  -0.01   0.01    -0.21   0.04  -0.02    -0.13   0.02  -0.01
   3   8     0.01   0.04  -0.07    -0.01  -0.01   0.31    -0.01   0.04   0.19
   4  15    -0.00  -0.00   0.02    -0.12   0.09  -0.31    -0.09   0.08  -0.23
   5  16     0.00  -0.01  -0.01    -0.09  -0.19   0.01    -0.08  -0.17  -0.00
   6   8    -0.04  -0.00  -0.00     0.42   0.01   0.08     0.29   0.01   0.05
   7   6     0.01  -0.00  -0.00    -0.10   0.05   0.09    -0.07   0.04   0.06
   8   6     0.00   0.00   0.01    -0.07   0.01  -0.12    -0.05   0.00  -0.08
   9  16     0.00   0.01  -0.00     0.12   0.01   0.15     0.10   0.03   0.14
  10   6    -0.01  -0.02  -0.00    -0.01   0.04   0.04     0.00   0.01  -0.02
  11  16    -0.15  -0.07  -0.04     0.09   0.07   0.01    -0.16  -0.15  -0.06
  12  15     0.21   0.07  -0.02    -0.13  -0.22   0.02     0.22   0.34  -0.05
  13  16     0.05  -0.02   0.27    -0.00   0.03  -0.05     0.02  -0.05   0.16
  14   8     0.05   0.41  -0.29     0.02   0.27  -0.01    -0.02  -0.32  -0.06
  15   6    -0.33  -0.03   0.02    -0.20   0.01   0.00     0.24  -0.02  -0.00
  16   6     0.10  -0.20   0.04     0.05  -0.09   0.02    -0.05   0.09  -0.02
  17   8    -0.18  -0.20  -0.28     0.23  -0.02   0.05    -0.35   0.01  -0.10
  18   6     0.01  -0.10   0.18     0.00   0.06  -0.08    -0.01  -0.09   0.13
  19   6     0.11   0.15   0.02    -0.05  -0.05  -0.01     0.07   0.07   0.02
  20   1    -0.01  -0.00   0.02     0.05   0.01  -0.08     0.03   0.00  -0.05
  21   1    -0.02  -0.00   0.02     0.06   0.01  -0.08     0.03   0.01  -0.04
  22   1    -0.02   0.01  -0.02     0.07  -0.02   0.08     0.04  -0.01   0.05
  23   1     0.02  -0.01   0.01    -0.05   0.02  -0.02    -0.03   0.01  -0.01
  24   1     0.00  -0.01   0.00    -0.04   0.02  -0.01    -0.03   0.01  -0.00
  25   1     0.01  -0.00  -0.00    -0.08   0.02   0.07    -0.05   0.01   0.05
  26   1     0.00   0.00   0.01    -0.04  -0.05  -0.04    -0.03  -0.04  -0.03
  27   1     0.00   0.00   0.01    -0.06  -0.00  -0.11    -0.04  -0.00  -0.07
  28   1    -0.01   0.00   0.00     0.08  -0.04  -0.04     0.05  -0.02  -0.02
  29   1     0.00  -0.00   0.01    -0.06   0.01  -0.07    -0.04   0.01  -0.04
  30   1     0.01   0.00  -0.01    -0.02  -0.03   0.01     0.02  -0.01  -0.02
  31   1    -0.00  -0.00   0.02    -0.01   0.02  -0.03    -0.01   0.01   0.02
  32   1    -0.16  -0.02   0.04    -0.06  -0.01   0.01     0.06   0.01  -0.00
  33   1    -0.00  -0.03   0.07    -0.03  -0.00   0.02     0.05  -0.00  -0.01
  34   1     0.10  -0.17   0.04     0.05  -0.08   0.01    -0.05   0.09  -0.01
  35   1     0.14   0.09  -0.02     0.08   0.06   0.00    -0.09  -0.08  -0.01
  36   1     0.04  -0.15   0.03     0.03  -0.09   0.01    -0.04   0.10  -0.01
  37   1     0.03  -0.01   0.03    -0.04  -0.00   0.02     0.06   0.00  -0.02
  38   1     0.02  -0.02   0.06    -0.01   0.06  -0.05     0.02  -0.08   0.08
  39   1     0.08   0.10   0.02    -0.03  -0.03  -0.02     0.05   0.05   0.03
  40   1    -0.02   0.02  -0.12     0.02  -0.01   0.05    -0.03   0.02  -0.07
  41   1     0.08   0.11   0.01    -0.04  -0.05   0.00     0.07   0.07   0.00
                     40                     41                     42
                        a                      a                      a 
 Frequencies --   604.5642               614.8455               661.6939
 Red. masses --    24.9964                25.7737                18.2997
 Frc consts  --     0.0000                 0.0000                 0.0000
 IR Inten    --   173.8874                87.0978                 7.0289
 Raman Activ --     0.0000                 0.0000                 0.0000
 Depolar     --     0.0000                 0.0000                 0.0000
 Atom AN      X      Y      Z        X      Y      Z        X      Y      Z
   1   6     0.00   0.00  -0.01     0.01   0.01  -0.03     0.00   0.00   0.00
   2   6     0.06  -0.01  -0.01     0.16  -0.03  -0.04    -0.01   0.01  -0.00
   3   8     0.03  -0.11   0.00     0.09  -0.28   0.02    -0.00   0.03   0.01
   4  15    -0.13  -0.07  -0.13    -0.37  -0.15  -0.40    -0.02  -0.06  -0.05
   5  16     0.10   0.18   0.04     0.25   0.43   0.11     0.03   0.04   0.01
   6   8    -0.07  -0.06   0.06    -0.17  -0.16   0.15    -0.01  -0.02   0.01
   7   6    -0.02   0.01   0.06    -0.05   0.04   0.17    -0.00   0.01   0.03
   8   6     0.00  -0.00   0.01     0.01  -0.00   0.02     0.00   0.00   0.00
   9  16     0.03  -0.04   0.01     0.09  -0.03   0.10    -0.14   0.41   0.02
  10   6    -0.06   0.08   0.10    -0.03   0.10   0.01    -0.04  -0.60   0.47
  11  16     0.10   0.07  -0.02    -0.04  -0.05  -0.03     0.17   0.01  -0.35
  12  15    -0.36  -0.28  -0.27     0.15   0.13   0.10    -0.00   0.03   0.06
  13  16     0.18   0.01   0.48    -0.07  -0.00  -0.17    -0.01  -0.00  -0.03
  14   8     0.14   0.00  -0.25    -0.05  -0.01   0.09     0.01  -0.01  -0.04
  15   6     0.18  -0.07  -0.01    -0.07   0.03   0.00     0.02  -0.00  -0.00
  16   6     0.00  -0.03   0.00    -0.00   0.01  -0.00    -0.00  -0.00  -0.00
  17   8    -0.23   0.24  -0.04     0.08  -0.09   0.02     0.01  -0.00  -0.00
  18   6     0.04   0.14  -0.10    -0.02  -0.06   0.04    -0.01  -0.01   0.01
  19   6     0.02   0.02   0.01    -0.01  -0.01  -0.00    -0.00  -0.00  -0.00
  20   1    -0.01   0.00   0.01    -0.02   0.01   0.01     0.00  -0.00  -0.00
  21   1    -0.00   0.00   0.01    -0.01   0.00   0.02     0.00  -0.00  -0.00
  22   1    -0.01   0.00  -0.02    -0.02   0.01  -0.06     0.00  -0.00   0.01
  23   1    -0.00   0.01  -0.00    -0.00   0.02  -0.01     0.00  -0.00   0.00
  24   1     0.04   0.01  -0.00     0.10   0.02  -0.01    -0.01  -0.00   0.00
  25   1     0.00   0.00  -0.00     0.01   0.01   0.00    -0.00   0.00   0.00
  26   1    -0.00   0.02   0.03    -0.00   0.04   0.08    -0.00   0.00   0.01
  27   1    -0.01   0.01  -0.01    -0.02   0.01  -0.03    -0.00   0.00  -0.00
  28   1     0.02  -0.02   0.00     0.06  -0.05   0.01     0.01  -0.01   0.00
  29   1    -0.00   0.00  -0.01    -0.01   0.01  -0.04    -0.00   0.00  -0.00
  30   1    -0.02  -0.01   0.03    -0.00  -0.01  -0.01     0.01  -0.14   0.11
  31   1    -0.01   0.02  -0.01    -0.01   0.03   0.00    -0.03  -0.13   0.10
  32   1     0.00  -0.01   0.02    -0.00   0.00  -0.01    -0.00  -0.00   0.00
  33   1     0.09  -0.03   0.03    -0.03   0.01  -0.01     0.01  -0.00   0.01
  34   1    -0.01   0.03   0.00     0.00  -0.01  -0.00    -0.00   0.00   0.00
  35   1    -0.04  -0.06  -0.00     0.01   0.02   0.00    -0.01  -0.01  -0.00
  36   1    -0.02   0.02   0.00     0.01  -0.01  -0.00    -0.00   0.00   0.00
  37   1     0.06   0.06  -0.06    -0.02  -0.03   0.03    -0.00  -0.00   0.00
  38   1     0.02  -0.01   0.01    -0.01   0.00  -0.00    -0.00  -0.00   0.00
  39   1    -0.01  -0.03   0.00     0.00   0.01  -0.00     0.00   0.00   0.00
  40   1     0.02   0.02   0.06    -0.01  -0.01  -0.03    -0.00  -0.00  -0.01
  41   1    -0.01  -0.03  -0.02     0.00   0.01   0.01     0.00   0.00  -0.00
                     43                     44                     45
                        a                      a                      a 
 Frequencies --   691.3862               726.2333               731.0259
 Red. masses --    16.4080                19.8337                19.8710
 Frc consts  --     0.0000                 0.0000                 0.0000
 IR Inten    --    53.1742               395.7325                 5.5943
 Raman Activ --     0.0000                 0.0000                 0.0000
 Depolar     --     0.0000                 0.0000                 0.0000
 Atom AN      X      Y      Z        X      Y      Z        X      Y      Z
   1   6    -0.00  -0.00   0.00    -0.02  -0.01   0.04    -0.03  -0.01   0.06
   2   6    -0.02  -0.00   0.01    -0.16   0.05   0.03    -0.21   0.07   0.04
   3   8    -0.00   0.01  -0.02    -0.04   0.26  -0.01    -0.05   0.34  -0.02
   4  15     0.03   0.02   0.11     0.29  -0.14  -0.22     0.36  -0.22  -0.27
   5  16    -0.02  -0.03  -0.01    -0.00   0.01   0.00     0.01   0.03   0.01
   6   8     0.04   0.04  -0.03    -0.19  -0.12   0.06    -0.24  -0.14   0.07
   7   6     0.01  -0.01  -0.05    -0.04   0.03   0.15    -0.05   0.03   0.18
   8   6    -0.01   0.00  -0.01     0.03  -0.01   0.04     0.03  -0.01   0.05
   9  16     0.09  -0.29  -0.07     0.01  -0.03  -0.00     0.00  -0.03   0.01
  10   6    -0.43   0.44   0.52    -0.06   0.06   0.07     0.01   0.05  -0.05
  11  16     0.14  -0.05  -0.33     0.01  -0.00  -0.04    -0.00  -0.01   0.03
  12  15     0.02   0.10   0.04     0.37  -0.32  -0.09    -0.29   0.24   0.09
  13  16    -0.01  -0.00  -0.03    -0.02   0.00  -0.02     0.01  -0.00   0.01
  14   8     0.00  -0.02  -0.02    -0.12  -0.02   0.30     0.09   0.02  -0.24
  15   6    -0.01   0.01  -0.01    -0.17   0.05   0.04     0.14  -0.04  -0.03
  16   6    -0.00   0.00  -0.00    -0.02   0.05  -0.00     0.01  -0.04   0.00
  17   8     0.06  -0.04   0.01    -0.29   0.16  -0.06     0.22  -0.12   0.05
  18   6    -0.02  -0.05   0.03     0.04   0.17  -0.11    -0.02  -0.12   0.08
  19   6    -0.01  -0.01  -0.01     0.04   0.05   0.02    -0.03  -0.04  -0.02
  20   1    -0.00   0.00  -0.00     0.02  -0.01  -0.01     0.03  -0.02  -0.01
  21   1     0.00  -0.00  -0.00     0.01  -0.00  -0.04     0.01  -0.01  -0.05
  22   1     0.00  -0.00   0.00     0.03  -0.02   0.08     0.03  -0.02   0.10
  23   1    -0.00  -0.00   0.00     0.01  -0.03   0.01     0.02  -0.04   0.01
  24   1    -0.01  -0.00   0.00    -0.11  -0.02   0.00    -0.15  -0.03  -0.00
  25   1    -0.00  -0.00  -0.00     0.03   0.01  -0.01     0.03   0.01  -0.01
  26   1     0.00  -0.01  -0.02    -0.01   0.06   0.08    -0.01   0.07   0.09
  27   1     0.01  -0.00   0.01    -0.02   0.02  -0.02    -0.02   0.02  -0.03
  28   1    -0.02   0.01  -0.00     0.06  -0.04   0.01     0.07  -0.05   0.02
  29   1     0.00  -0.00   0.01     0.01   0.00  -0.02     0.01   0.00  -0.02
  30   1    -0.04   0.16   0.08    -0.01   0.01   0.01    -0.00   0.01  -0.01
  31   1    -0.05   0.05   0.17    -0.01   0.01   0.01     0.00   0.01  -0.01
  32   1    -0.01   0.00   0.00     0.03   0.01  -0.03    -0.03  -0.01   0.02
  33   1     0.00   0.00   0.00    -0.12   0.02  -0.05     0.10  -0.02   0.04
  34   1     0.00   0.00   0.00     0.00  -0.05  -0.01    -0.00   0.04   0.01
  35   1    -0.00   0.00  -0.00     0.04   0.08  -0.01    -0.04  -0.06   0.01
  36   1    -0.00  -0.00   0.00     0.03  -0.01  -0.01    -0.02   0.01   0.01
  37   1    -0.01  -0.02   0.02     0.08   0.07  -0.09    -0.06  -0.05   0.07
  38   1    -0.01  -0.00   0.00     0.03  -0.02   0.02    -0.02   0.02  -0.02
  39   1     0.00   0.01  -0.00     0.00  -0.03   0.01    -0.00   0.02  -0.01
  40   1    -0.01  -0.01  -0.03     0.04   0.03   0.08    -0.03  -0.02  -0.06
  41   1     0.01   0.01   0.00    -0.01  -0.03  -0.01     0.01   0.03   0.01
                     46                     47                     48
                        a                      a                      a 
 Frequencies --   754.5146               764.0031               796.7069
 Red. masses --    23.3657                23.0675                 5.7998
 Frc consts  --     0.0000                 0.0000                 0.0000
 IR Inten    --   244.0159               355.5175                 7.2735
 Raman Activ --     0.0000                 0.0000                 0.0000
 Depolar     --     0.0000                 0.0000                 0.0000
 Atom AN      X      Y      Z        X      Y      Z        X      Y      Z
   1   6     0.01   0.00  -0.02     0.02   0.01  -0.06    -0.00  -0.00   0.00
   2   6     0.04  -0.02  -0.01     0.14  -0.06  -0.03    -0.02  -0.00   0.01
   3   8     0.00  -0.08   0.01    -0.01  -0.29   0.05     0.01   0.01  -0.02
   4  15     0.04   0.15  -0.02     0.25   0.63  -0.11     0.00   0.02   0.03
   5  16    -0.03  -0.06  -0.01    -0.14  -0.24  -0.06     0.00   0.00   0.00
   6   8    -0.05  -0.05   0.01    -0.27  -0.24   0.06     0.00   0.00  -0.01
   7   6    -0.01   0.01   0.04    -0.08   0.03   0.20    -0.00  -0.00   0.00
   8   6     0.01  -0.00   0.01     0.05  -0.02   0.07     0.00  -0.00   0.00
   9  16     0.01  -0.03  -0.00    -0.03  -0.01  -0.02    -0.10  -0.08  -0.09
  10   6     0.00   0.04  -0.01    -0.01  -0.03   0.05     0.43   0.19   0.27
  11  16    -0.03  -0.02  -0.02     0.02   0.01  -0.02    -0.10  -0.06  -0.10
  12  15     0.04  -0.17   0.67    -0.03   0.05  -0.15     0.01   0.03   0.02
  13  16    -0.11   0.00  -0.27     0.02  -0.00   0.06     0.00   0.00   0.00
  14   8     0.08   0.07  -0.34    -0.01  -0.02   0.06     0.00  -0.02   0.01
  15   6     0.17  -0.06  -0.04    -0.03   0.01   0.01    -0.01   0.01  -0.01
  16   6     0.02  -0.07   0.01    -0.00   0.01  -0.00    -0.00   0.00  -0.00
  17   8    -0.24   0.09  -0.09     0.07  -0.03   0.03     0.00  -0.01   0.00
  18   6     0.05   0.19  -0.13    -0.01  -0.05   0.04     0.00  -0.00   0.00
  19   6     0.04   0.06   0.03    -0.01  -0.02  -0.01    -0.00   0.00  -0.00
  20   1    -0.01   0.01  -0.00    -0.02   0.02  -0.01     0.00   0.00  -0.00
  21   1    -0.00   0.00   0.01    -0.00   0.01   0.04     0.00   0.00   0.00
  22   1    -0.01   0.01  -0.02    -0.02   0.02  -0.08     0.00  -0.00   0.01
  23   1    -0.01   0.01  -0.01    -0.04   0.05  -0.02    -0.00   0.00  -0.00
  24   1     0.04   0.01   0.00     0.13   0.04   0.02    -0.00   0.00   0.00
  25   1     0.01   0.00  -0.01     0.06   0.00  -0.04     0.00  -0.00  -0.00
  26   1    -0.00   0.02   0.03    -0.01   0.12   0.12    -0.00   0.00  -0.00
  27   1    -0.01   0.00  -0.01    -0.03   0.03  -0.04    -0.00   0.00  -0.00
  28   1     0.02  -0.01   0.00     0.10  -0.06   0.02     0.00   0.00   0.00
  29   1     0.00   0.00  -0.01     0.03   0.00  -0.03     0.00  -0.00   0.00
  30   1     0.00   0.02  -0.00     0.00   0.01   0.01    -0.25  -0.44   0.27
  31   1     0.00   0.01   0.02    -0.00  -0.01   0.01    -0.16   0.34  -0.43
  32   1    -0.05  -0.02   0.04     0.01   0.00  -0.01    -0.00  -0.00   0.00
  33   1     0.14  -0.02   0.07    -0.03   0.00  -0.01    -0.00   0.00   0.00
  34   1    -0.00   0.05   0.01     0.00  -0.01  -0.00     0.00   0.00   0.00
  35   1    -0.04  -0.09   0.01     0.01   0.02  -0.00     0.00   0.01   0.00
  36   1    -0.03  -0.00   0.02     0.01   0.00  -0.00    -0.00  -0.00   0.00
  37   1     0.06   0.06  -0.10    -0.02  -0.02   0.03    -0.00  -0.00  -0.00
  38   1     0.03  -0.01   0.02    -0.01   0.01  -0.01     0.00  -0.00   0.00
  39   1     0.00  -0.02   0.01    -0.00   0.01  -0.00     0.00  -0.00  -0.00
  40   1     0.05   0.03   0.10    -0.01  -0.01  -0.03     0.00  -0.00  -0.00
  41   1    -0.02  -0.04  -0.02     0.00   0.01   0.01    -0.00  -0.00  -0.00
                     49                     50                     51
                        a                      a                      a 
 Frequencies --   817.9063               820.8948               821.5280
 Red. masses --     2.7216                 2.6975                 2.7403
 Frc consts  --     0.0000                 0.0000                 0.0000
 IR Inten    --     2.6257                 0.6191                 5.0049
 Raman Activ --     0.0000                 0.0000                 0.0000
 Depolar     --     0.0000                 0.0000                 0.0000
 Atom AN      X      Y      Z        X      Y      Z        X      Y      Z
   1   6    -0.00  -0.00   0.00     0.01   0.06  -0.00    -0.02  -0.10   0.00
   2   6    -0.01  -0.01  -0.00     0.04   0.12   0.01    -0.07  -0.22  -0.02
   3   8     0.00   0.01  -0.00    -0.02  -0.08   0.01     0.04   0.15  -0.03
   4  15    -0.05  -0.05   0.02    -0.00   0.04  -0.00     0.01  -0.06  -0.00
   5  16     0.01   0.01   0.00    -0.00  -0.01  -0.00     0.01   0.01   0.00
   6   8     0.14   0.13   0.03    -0.00  -0.01   0.01    -0.01  -0.00  -0.01
   7   6    -0.16  -0.23  -0.01     0.01   0.00  -0.01     0.01   0.02   0.01
   8   6    -0.08  -0.08  -0.00     0.00   0.00  -0.00     0.01   0.00   0.00
   9  16     0.00   0.00  -0.00    -0.00  -0.00  -0.00     0.00  -0.00   0.00
  10   6    -0.00  -0.00  -0.00     0.00   0.00   0.01     0.00   0.00  -0.00
  11  16    -0.00  -0.00   0.00    -0.00   0.00  -0.00    -0.00  -0.00   0.00
  12  15     0.00  -0.00   0.01    -0.00  -0.01   0.06    -0.01  -0.00   0.04
  13  16    -0.00   0.00  -0.00    -0.01  -0.00  -0.01    -0.00  -0.00  -0.01
  14   8    -0.00   0.00  -0.01    -0.01   0.04  -0.13    -0.00   0.03  -0.10
  15   6     0.00  -0.00   0.01     0.03  -0.01   0.18     0.02  -0.00   0.14
  16   6     0.00  -0.00   0.01    -0.00  -0.02   0.08     0.00  -0.01   0.06
  17   8    -0.01   0.00  -0.00    -0.09   0.02  -0.00    -0.00   0.00  -0.00
  18   6     0.01  -0.00  -0.01     0.14  -0.06  -0.04     0.02  -0.01  -0.00
  19   6     0.00   0.00  -0.00     0.07  -0.02  -0.00     0.00  -0.00   0.00
  20   1    -0.00   0.01  -0.01     0.03  -0.11   0.16    -0.05   0.20  -0.31
  21   1     0.00   0.00   0.02    -0.04  -0.04  -0.19     0.08   0.09   0.36
  22   1     0.00   0.01   0.00    -0.01  -0.07  -0.01     0.02   0.13   0.02
  23   1    -0.01   0.01  -0.01     0.11  -0.12   0.14    -0.20   0.23  -0.26
  24   1     0.01   0.01   0.02    -0.11  -0.07  -0.18     0.21   0.13   0.33
  25   1     0.45  -0.12  -0.09    -0.02   0.00   0.00    -0.03   0.01   0.01
  26   1    -0.19   0.44  -0.02     0.01  -0.02   0.00     0.01  -0.03   0.00
  27   1    -0.21   0.35  -0.14     0.01  -0.01   0.00     0.01  -0.02   0.01
  28   1     0.08   0.13  -0.03    -0.01  -0.00   0.00    -0.00  -0.01   0.00
  29   1     0.42  -0.09   0.08    -0.01   0.00  -0.00    -0.03   0.01  -0.01
  30   1     0.00   0.00  -0.00    -0.00  -0.00   0.00     0.00   0.00  -0.00
  31   1     0.00  -0.00   0.00    -0.00   0.00  -0.00    -0.00   0.00   0.00
  32   1     0.02   0.02  -0.01     0.22   0.19  -0.12     0.17   0.15  -0.09
  33   1    -0.01  -0.02  -0.01    -0.17  -0.22  -0.16    -0.14  -0.17  -0.12
  34   1    -0.01  -0.02  -0.01    -0.09  -0.25  -0.11    -0.07  -0.20  -0.08
  35   1    -0.00  -0.00  -0.01     0.00  -0.02  -0.10     0.00  -0.01  -0.08
  36   1     0.01   0.02  -0.01     0.11   0.24  -0.12     0.08   0.19  -0.09
  37   1    -0.00   0.01   0.01    -0.05   0.10   0.27    -0.01   0.01   0.03
  38   1    -0.01   0.00  -0.01    -0.16   0.05  -0.24    -0.02   0.01  -0.03
  39   1    -0.01  -0.00  -0.01    -0.18  -0.04  -0.18    -0.02  -0.00  -0.02
  40   1    -0.00   0.00   0.00    -0.08   0.05   0.02    -0.01   0.00  -0.00
  41   1    -0.00   0.01   0.01     0.01   0.15   0.21     0.00   0.02   0.02
                     52                     53                     54
                        a                      a                      a 
 Frequencies --   821.8406               911.0495               912.8619
 Red. masses --     2.5855                12.7559                12.6376
 Frc consts  --     0.0000                 0.0000                 0.0000
 IR Inten    --     2.7148               312.0521               284.1525
 Raman Activ --     0.0000                 0.0000                 0.0000
 Depolar     --     0.0000                 0.0000                 0.0000
 Atom AN      X      Y      Z        X      Y      Z        X      Y      Z
   1   6    -0.00  -0.03   0.00    -0.02  -0.00   0.05     0.08   0.01  -0.16
   2   6    -0.02  -0.07  -0.01    -0.07   0.00   0.00     0.23  -0.01  -0.00
   3   8     0.01   0.05  -0.01     0.11  -0.03  -0.06    -0.34   0.10   0.19
   4  15     0.00  -0.02   0.00    -0.05   0.01   0.05     0.15  -0.03  -0.13
   5  16     0.00   0.00   0.00     0.00   0.00  -0.00    -0.00  -0.00   0.00
   6   8     0.00   0.00  -0.00     0.01   0.00  -0.19    -0.02  -0.01   0.52
   7   6     0.00   0.00  -0.00    -0.02   0.05   0.10     0.06  -0.14  -0.26
   8   6     0.00   0.00  -0.00     0.04  -0.02   0.07    -0.12   0.05  -0.19
   9  16     0.00   0.00   0.00     0.00  -0.00   0.01    -0.00  -0.00  -0.02
  10   6    -0.00  -0.00   0.00     0.01   0.00  -0.01     0.01   0.01   0.01
  11  16     0.00   0.01  -0.00    -0.01  -0.02   0.00    -0.01  -0.01  -0.00
  12  15     0.05  -0.02  -0.02     0.12  -0.17   0.05     0.04  -0.06   0.02
  13  16    -0.00  -0.00   0.00    -0.00   0.00  -0.01    -0.00   0.00  -0.01
  14   8    -0.01  -0.02   0.10    -0.21   0.16   0.02    -0.07   0.06   0.01
  15   6     0.00  -0.00  -0.15     0.15  -0.03   0.02     0.05  -0.01   0.01
  16   6     0.00  -0.00  -0.07     0.03  -0.11   0.01     0.01  -0.04   0.00
  17   8    -0.14   0.03   0.01     0.17   0.55  -0.21     0.06   0.19  -0.07
  18   6     0.19  -0.08  -0.06    -0.12  -0.21   0.24    -0.04  -0.07   0.08
  19   6     0.09  -0.03  -0.01    -0.15  -0.21  -0.07    -0.05  -0.07  -0.03
  20   1    -0.02   0.06  -0.09     0.01  -0.00  -0.01    -0.04   0.01   0.04
  21   1     0.03   0.03   0.11     0.01   0.00  -0.02    -0.04  -0.00   0.05
  22   1     0.00   0.04   0.01     0.02  -0.01   0.06    -0.06   0.05  -0.21
  23   1    -0.06   0.07  -0.08    -0.00  -0.01  -0.01     0.01   0.02   0.03
  24   1     0.06   0.04   0.10    -0.00   0.00  -0.03     0.01  -0.01   0.08
  25   1    -0.00   0.00   0.00    -0.01   0.01  -0.01     0.02  -0.04   0.02
  26   1     0.00  -0.00   0.00    -0.03   0.02  -0.01     0.07  -0.06   0.05
  27   1     0.00  -0.00   0.00    -0.01   0.00  -0.03     0.04  -0.01   0.08
  28   1    -0.00  -0.00   0.00     0.09  -0.06   0.02    -0.24   0.17  -0.06
  29   1    -0.00   0.00  -0.00    -0.00   0.00  -0.03     0.01  -0.01   0.07
  30   1     0.00   0.00   0.00    -0.00  -0.00  -0.00    -0.01  -0.01   0.01
  31   1    -0.00  -0.00   0.00    -0.00   0.00  -0.00    -0.00   0.01  -0.01
  32   1    -0.17  -0.15   0.10     0.00   0.02   0.01     0.00   0.01   0.00
  33   1     0.15   0.18   0.13     0.02   0.05   0.01     0.01   0.02   0.00
  34   1     0.07   0.21   0.09    -0.02   0.03  -0.00    -0.01   0.01  -0.00
  35   1    -0.01  -0.01   0.08    -0.06  -0.13   0.00    -0.02  -0.05   0.00
  36   1    -0.09  -0.19   0.10    -0.02   0.02   0.00    -0.01   0.01   0.00
  37   1    -0.06   0.14   0.36     0.05   0.06   0.08     0.02   0.02   0.03
  38   1    -0.21   0.06  -0.32     0.01   0.06   0.04     0.01   0.02   0.02
  39   1    -0.24  -0.05  -0.24     0.04   0.09   0.01     0.02   0.03   0.00
  40   1    -0.10   0.07   0.02    -0.13  -0.12  -0.30    -0.04  -0.04  -0.10
  41   1     0.02   0.21   0.29     0.06   0.08  -0.01     0.02   0.02  -0.00
                     55                     56                     57
                        a                      a                      a 
 Frequencies --   932.4181               934.7728              1040.4404
 Red. masses --    11.5408                11.3514                 8.6109
 Frc consts  --     0.0000                 0.0000                 0.0000
 IR Inten    --   111.1967               115.5236               237.4164
 Raman Activ --     0.0000                 0.0000                 0.0000
 Depolar     --     0.0000                 0.0000                 0.0000
 Atom AN      X      Y      Z        X      Y      Z        X      Y      Z
   1   6    -0.02  -0.01   0.05     0.14   0.03  -0.25    -0.07  -0.01   0.14
   2   6    -0.05   0.00  -0.01     0.26  -0.01   0.04     0.13   0.02  -0.16
   3   8     0.08  -0.02  -0.05    -0.44   0.13   0.25    -0.11   0.01   0.03
   4  15    -0.00   0.03  -0.01     0.01  -0.16   0.05     0.01  -0.00  -0.01
   5  16    -0.00  -0.00  -0.00     0.01   0.01   0.00     0.00   0.00   0.00
   6   8    -0.01  -0.00   0.07     0.06   0.01  -0.40    -0.01   0.05   0.18
   7   6     0.01  -0.02  -0.03    -0.07   0.11   0.15    -0.14   0.03  -0.31
   8   6    -0.02   0.01  -0.03     0.11  -0.05   0.18     0.13  -0.06   0.20
   9  16    -0.00   0.00  -0.00     0.01  -0.02   0.01    -0.00   0.00  -0.01
  10   6     0.00  -0.00   0.02     0.00   0.02   0.01    -0.00  -0.00   0.00
  11  16     0.01   0.01  -0.01     0.00   0.00  -0.00     0.00   0.01  -0.00
  12  15     0.07   0.03  -0.15     0.01   0.01  -0.03    -0.01   0.01  -0.01
  13  16     0.00   0.00   0.01     0.00   0.00   0.00    -0.00   0.00  -0.00
  14   8    -0.48   0.36   0.09    -0.08   0.06   0.02     0.06  -0.03   0.01
  15   6     0.31  -0.01   0.05     0.05  -0.00   0.01    -0.07   0.11  -0.01
  16   6     0.10  -0.31   0.03     0.02  -0.05   0.00     0.03  -0.09   0.00
  17   8    -0.01  -0.26   0.07    -0.01  -0.06   0.02    -0.09  -0.18   0.11
  18   6     0.04   0.06  -0.10     0.01   0.01  -0.02     0.23   0.35   0.05
  19   6     0.07   0.11   0.03     0.02   0.02   0.01    -0.16  -0.24  -0.10
  20   1     0.01  -0.00  -0.01    -0.06   0.01   0.08     0.04  -0.01  -0.04
  21   1     0.01   0.00  -0.01    -0.07  -0.01   0.06     0.05   0.01  -0.02
  22   1     0.02  -0.01   0.06    -0.10   0.06  -0.34     0.05  -0.03   0.16
  23   1     0.00  -0.00  -0.01    -0.01   0.01   0.08     0.03   0.02  -0.07
  24   1     0.00   0.00  -0.02    -0.01  -0.01   0.11     0.04   0.01  -0.06
  25   1     0.00  -0.01   0.01    -0.03   0.03  -0.03    -0.08   0.02  -0.09
  26   1     0.01  -0.01   0.01    -0.07   0.04  -0.06    -0.06   0.02  -0.11
  27   1     0.01  -0.00   0.01    -0.03   0.00  -0.07    -0.02  -0.02  -0.07
  28   1    -0.04   0.02  -0.01     0.22  -0.15   0.05     0.21  -0.15   0.06
  29   1     0.00  -0.00   0.01    -0.01   0.01  -0.07    -0.01   0.01  -0.07
  30   1     0.00  -0.01   0.00    -0.01  -0.00   0.01    -0.01   0.00   0.01
  31   1    -0.01   0.01   0.00    -0.00   0.01  -0.01     0.00  -0.00  -0.00
  32   1     0.01   0.08   0.02     0.00   0.01   0.00    -0.01   0.05  -0.01
  33   1     0.01   0.13  -0.00     0.00   0.02  -0.00    -0.02   0.04  -0.00
  34   1    -0.07   0.09  -0.02    -0.01   0.01  -0.00    -0.02   0.02  -0.01
  35   1    -0.18  -0.37   0.01    -0.03  -0.06   0.00    -0.05  -0.10   0.00
  36   1    -0.06   0.09   0.01    -0.01   0.02   0.00    -0.02   0.03   0.00
  37   1    -0.04  -0.06  -0.04    -0.01  -0.01  -0.01     0.08   0.12   0.03
  38   1     0.01  -0.01  -0.02     0.00  -0.00  -0.00     0.10   0.09   0.06
  39   1    -0.00  -0.04   0.01    -0.00  -0.01   0.00     0.03   0.08  -0.02
  40   1     0.07   0.05   0.14     0.02   0.01   0.03    -0.13  -0.11  -0.28
  41   1    -0.03  -0.05  -0.01    -0.01  -0.01  -0.00     0.06   0.06  -0.03
                     58                     59                     60
                        a                      a                      a 
 Frequencies --  1040.5105              1053.9434              1056.5366
 Red. masses --     8.6684                 9.4733                 9.7685
 Frc consts  --     0.0000                 0.0000                 0.0000
 IR Inten    --   148.2251               159.4257               120.5538
 Raman Activ --     0.0000                 0.0000                 0.0000
 Depolar     --     0.0000                 0.0000                 0.0000
 Atom AN      X      Y      Z        X      Y      Z        X      Y      Z
   1   6     0.08   0.01  -0.15    -0.00   0.00  -0.00     0.14   0.02  -0.30
   2   6    -0.14  -0.02   0.18     0.00  -0.00   0.00    -0.35  -0.02   0.40
   3   8     0.11  -0.01  -0.03    -0.00   0.00   0.00     0.34  -0.04  -0.13
   4  15    -0.01   0.00   0.01    -0.00   0.00   0.00    -0.01   0.03  -0.01
   5  16    -0.00  -0.00  -0.00    -0.00  -0.00  -0.00     0.00   0.00  -0.00
   6   8     0.02  -0.05  -0.21     0.00  -0.00  -0.00    -0.04   0.05   0.23
   7   6     0.15  -0.04   0.34     0.00  -0.00   0.00    -0.13   0.02  -0.30
   8   6    -0.15   0.07  -0.22    -0.00   0.00  -0.00     0.11  -0.05   0.16
   9  16     0.00   0.00   0.01    -0.00  -0.00  -0.00    -0.01   0.01  -0.01
  10   6    -0.00  -0.00  -0.00     0.00   0.00   0.00    -0.00  -0.00  -0.00
  11  16     0.00   0.01   0.00     0.01   0.01  -0.01     0.00   0.00   0.00
  12  15    -0.01   0.01  -0.01     0.01   0.01  -0.02     0.00  -0.00   0.00
  13  16    -0.00  -0.00   0.00    -0.00   0.00  -0.00    -0.00  -0.00   0.00
  14   8     0.06  -0.03   0.01    -0.34   0.18  -0.01     0.00  -0.00  -0.00
  15   6    -0.07   0.11  -0.01     0.30  -0.49   0.05    -0.00  -0.00   0.00
  16   6     0.03  -0.09   0.00    -0.10   0.36  -0.01     0.00   0.00  -0.00
  17   8    -0.08  -0.17   0.11    -0.03  -0.13   0.05    -0.00   0.00  -0.00
  18   6     0.21   0.32   0.04     0.13   0.16   0.02     0.00   0.00   0.00
  19   6    -0.15  -0.22  -0.09    -0.07  -0.09  -0.05    -0.00  -0.00  -0.00
  20   1    -0.04   0.01   0.04     0.00  -0.00  -0.00    -0.08   0.02   0.05
  21   1    -0.05  -0.01   0.02     0.00   0.00  -0.00    -0.09  -0.02   0.04
  22   1    -0.05   0.03  -0.18    -0.00   0.00  -0.00    -0.09   0.06  -0.33
  23   1    -0.03  -0.02   0.08     0.00  -0.00   0.00    -0.05  -0.05   0.16
  24   1    -0.04  -0.01   0.07     0.00   0.00   0.00    -0.10  -0.01   0.14
  25   1     0.09  -0.03   0.09     0.00  -0.00   0.00    -0.07   0.02  -0.08
  26   1     0.07  -0.02   0.12     0.00  -0.00   0.00    -0.05   0.02  -0.08
  27   1     0.02   0.03   0.07    -0.00   0.00   0.00    -0.01  -0.02  -0.05
  28   1    -0.23   0.17  -0.06    -0.00   0.00  -0.00     0.17  -0.12   0.04
  29   1     0.01  -0.01   0.08     0.00   0.00   0.00    -0.00   0.00  -0.06
[...]
  33   1     0.00   0.00  -0.00     0.02   0.00  -0.02     0.06   0.02  -0.08
  34   1    -0.00  -0.00   0.00    -0.00  -0.00   0.00    -0.01  -0.00   0.01
  35   1     0.00  -0.00   0.00    -0.00   0.00  -0.00    -0.00   0.00  -0.00
  36   1     0.00   0.00   0.00     0.00  -0.00   0.00     0.00   0.00   0.00
  37   1     0.01  -0.01   0.01    -0.65   0.57  -0.42     0.00  -0.00   0.00
  38   1    -0.00   0.00   0.00     0.06  -0.04  -0.02    -0.00   0.00   0.00
  39   1    -0.00   0.00   0.00     0.01  -0.00  -0.01    -0.00   0.00   0.00
  40   1    -0.00  -0.00   0.00    -0.01  -0.01   0.01     0.00  -0.00   0.00
  41   1     0.00  -0.00   0.00     0.07  -0.06   0.04    -0.00   0.00  -0.00
                    103                    104                    105
                        a                      a                      a 
 Frequencies --  2975.9390              2976.2380              2982.8084
 Red. masses --     1.7306                 1.7173                 2.0345
 Frc consts  --     0.0000                 0.0000                 0.0000
 IR Inten    --    11.9527                10.2222                11.7809
 Raman Activ --     0.0000                 0.0000                 0.0000
 Depolar     --     0.0000                 0.0000                 0.0000
 Atom AN      X      Y      Z        X      Y      Z        X      Y      Z
   1   6    -0.00   0.00   0.00    -0.00   0.00  -0.00     0.00   0.00   0.00
   2   6     0.01  -0.02   0.01     0.01  -0.01   0.00    -0.00   0.00  -0.00
   3   8     0.00  -0.00  -0.00     0.00  -0.00  -0.00     0.00   0.00   0.00
   4  15     0.00   0.00  -0.00    -0.00  -0.00   0.00    -0.00   0.00  -0.00
   5  16    -0.00   0.00  -0.00    -0.00  -0.00   0.00    -0.00  -0.00  -0.00
   6   8    -0.00   0.00   0.00     0.00   0.00  -0.01     0.00   0.00  -0.00
   7   6    -0.02  -0.01   0.01     0.22   0.06  -0.11    -0.00  -0.00   0.00
   8   6     0.00   0.00  -0.00    -0.02  -0.01   0.02     0.00  -0.00  -0.00
   9  16    -0.00  -0.00  -0.00     0.00   0.00   0.00     0.00   0.00   0.00
  10   6    -0.00  -0.00  -0.00     0.00   0.00   0.00     0.26   0.12   0.11
  11  16     0.00   0.00   0.00     0.00   0.00  -0.00     0.00   0.00   0.00
  12  15     0.00  -0.00  -0.00     0.00  -0.00  -0.00    -0.00   0.00  -0.00
  13  16     0.00  -0.00  -0.00    -0.00   0.00  -0.00    -0.00  -0.00  -0.00
  14   8    -0.01   0.00   0.00    -0.00   0.00   0.00    -0.00   0.00   0.00
  15   6    -0.15  -0.05   0.19    -0.02  -0.01   0.02    -0.00  -0.00   0.00
  16   6     0.02  -0.00  -0.02     0.00  -0.00  -0.00     0.00   0.00  -0.00
  17   8     0.00   0.00  -0.00    -0.00  -0.00   0.00    -0.00  -0.00   0.00
  18   6    -0.00   0.00  -0.01     0.00  -0.00   0.01    -0.00   0.00   0.00
  19   6     0.00  -0.00   0.00     0.00   0.00  -0.00     0.00   0.00  -0.00
  20   1    -0.00  -0.00  -0.00    -0.00   0.00  -0.00    -0.00  -0.00  -0.00
  21   1     0.01  -0.01   0.00     0.00  -0.01   0.00    -0.00   0.00  -0.00
  22   1     0.00   0.00  -0.00     0.00   0.00  -0.00    -0.00   0.00   0.00
  23   1     0.00  -0.00   0.00    -0.00  -0.00  -0.00     0.00   0.00   0.00
  24   1    -0.04   0.09  -0.02    -0.02   0.04  -0.01     0.00  -0.01   0.00
  25   1    -0.00  -0.01   0.00     0.04   0.04  -0.01    -0.00  -0.00   0.00
  26   1     0.09   0.03  -0.05    -0.82  -0.24   0.42     0.01   0.00  -0.00
  27   1    -0.01  -0.00   0.01     0.11   0.04  -0.05    -0.00  -0.00   0.00
  28   1     0.00   0.00   0.00    -0.01  -0.01  -0.02     0.00  -0.00  -0.00
  29   1     0.00  -0.00  -0.00    -0.00   0.01   0.01     0.00   0.00   0.00
  30   1     0.00  -0.00   0.00    -0.00   0.00  -0.00    -0.32   0.10  -0.38
  31   1     0.01   0.01   0.00    -0.00  -0.00   0.00    -0.60  -0.54   0.01
  32   1    -0.01  -0.00   0.04    -0.00  -0.00   0.01     0.00   0.00   0.00
  33   1     0.58   0.17  -0.73     0.06   0.02  -0.08     0.01   0.00  -0.01
  34   1    -0.06  -0.02   0.09    -0.01  -0.00   0.01    -0.00  -0.00   0.00
  35   1    -0.02   0.01  -0.01    -0.00   0.00  -0.00    -0.00   0.00  -0.00
  36   1     0.01   0.00   0.01     0.00   0.00  -0.00    -0.00  -0.00  -0.00
  37   1     0.02  -0.02   0.01    -0.02   0.02  -0.01     0.00  -0.00   0.00
  38   1    -0.01   0.00   0.01     0.01  -0.00  -0.00     0.00  -0.00  -0.00
  39   1    -0.00  -0.00   0.00    -0.00   0.00   0.00    -0.00   0.00   0.00
  40   1     0.00   0.00  -0.00    -0.00  -0.00   0.00    -0.00  -0.00   0.00
  41   1    -0.00   0.00  -0.00     0.00  -0.00   0.00     0.00   0.00  -0.00
                    106                    107                    108
                        a                      a                      a 
 Frequencies --  3018.7710              3023.0723              3024.8308
 Red. masses --     1.7603                 1.7698                 1.7651
 Frc consts  --     0.0000                 0.0000                 0.0000
 IR Inten    --    46.1384                54.8013                48.5323
 Raman Activ --     0.0000                 0.0000                 0.0000
 Depolar     --     0.0000                 0.0000                 0.0000
 Atom AN      X      Y      Z        X      Y      Z        X      Y      Z
   1   6     0.00  -0.01   0.00    -0.08   0.24  -0.03     0.01  -0.02   0.00
   2   6     0.00  -0.00   0.00    -0.01   0.04  -0.01     0.00  -0.00   0.00
   3   8     0.00  -0.00   0.00    -0.00   0.00   0.00     0.00  -0.00  -0.00
   4  15    -0.00   0.00  -0.00     0.00   0.00  -0.00    -0.00  -0.00   0.00
   5  16     0.00  -0.00   0.00    -0.00  -0.00   0.00     0.00   0.00   0.00
   6   8     0.00  -0.00   0.00     0.00  -0.00  -0.00    -0.00   0.00   0.00
   7   6    -0.04  -0.01   0.02    -0.00  -0.00   0.00     0.00   0.00  -0.00
   8   6    -0.21  -0.09   0.11    -0.01  -0.00   0.01     0.00  -0.00  -0.00
   9  16    -0.00   0.00  -0.00    -0.00  -0.00   0.00     0.00  -0.00   0.00
  10   6     0.00   0.00  -0.00     0.00  -0.00   0.00     0.00   0.00  -0.00
  11  16    -0.00  -0.00   0.00     0.00   0.00  -0.00    -0.00   0.00  -0.00
  12  15     0.00   0.00   0.00    -0.00  -0.00   0.00     0.00  -0.00   0.00
  13  16     0.00   0.00  -0.00    -0.00   0.00   0.00    -0.00   0.00  -0.00
  14   8    -0.00   0.00  -0.00     0.00   0.00   0.00    -0.00   0.00   0.00
  15   6     0.00   0.00   0.00    -0.00  -0.00   0.00    -0.02  -0.01   0.03
  16   6    -0.00   0.00   0.00    -0.01  -0.00   0.02    -0.13  -0.04   0.22
  17   8    -0.00  -0.00  -0.00    -0.00   0.00  -0.00    -0.00  -0.00   0.00
  18   6    -0.00   0.00  -0.00     0.00   0.00  -0.00     0.00  -0.00   0.00
  19   6    -0.00   0.00  -0.00    -0.00   0.00  -0.00     0.02  -0.02   0.01
  20   1     0.00   0.00   0.00    -0.07  -0.03  -0.04     0.01   0.00   0.00
  21   1    -0.02   0.05  -0.01     0.37  -0.86   0.15    -0.04   0.09  -0.02
  22   1     0.00  -0.00  -0.00    -0.01   0.03  -0.00     0.00  -0.00  -0.00
  23   1    -0.00  -0.00  -0.00    -0.01  -0.01  -0.01     0.00   0.00   0.00
  24   1    -0.00   0.01  -0.00     0.05  -0.10   0.02    -0.01   0.01  -0.00
  25   1    -0.00   0.01   0.00    -0.00   0.00   0.00     0.00  -0.00   0.00
  26   1     0.11   0.03  -0.06     0.01   0.00  -0.00    -0.00  -0.00   0.00
  27   1     0.81   0.28  -0.42     0.04   0.02  -0.02    -0.00  -0.00   0.00
  28   1    -0.03  -0.02   0.01    -0.00  -0.00   0.00     0.00  -0.00  -0.00
  29   1    -0.02   0.06   0.03    -0.00   0.00   0.00     0.00   0.00   0.00
  30   1     0.00  -0.00   0.00    -0.00   0.00  -0.00     0.00   0.00   0.00
  31   1    -0.00  -0.00   0.00    -0.00   0.00   0.00    -0.00  -0.00   0.00
  32   1    -0.00  -0.00  -0.00    -0.00  -0.00  -0.00    -0.01  -0.00  -0.01
  33   1    -0.00   0.00  -0.00     0.01   0.00  -0.01     0.07   0.02  -0.08
  34   1     0.00   0.00  -0.00     0.06   0.02  -0.08     0.55   0.16  -0.75
  35   1     0.00  -0.00   0.00     0.00  -0.00   0.00    -0.02  -0.00   0.03
  36   1     0.00   0.00   0.00    -0.01  -0.00  -0.01    -0.07  -0.02  -0.05
  37   1     0.00  -0.00   0.00    -0.00   0.00  -0.00    -0.01   0.01  -0.01
  38   1     0.00  -0.00  -0.00     0.00  -0.00  -0.00    -0.00   0.00   0.00
  39   1     0.00  -0.00  -0.00    -0.00   0.00   0.00    -0.01   0.00   0.02
  40   1    -0.00  -0.00   0.00    -0.00  -0.00   0.00     0.00  -0.00  -0.00
  41   1     0.01  -0.01   0.01     0.00  -0.00   0.00    -0.08   0.07  -0.05
                    109                    110                    111
                        a                      a                      a 
 Frequencies --  3025.9574              3042.4867              3046.4280
 Red. masses --     1.8119                 1.6043                 1.6166
 Frc consts  --     0.0000                 0.0000                 0.0000
 IR Inten    --    38.9390                24.0335                17.7065
 Raman Activ --     0.0000                 0.0000                 0.0000
 Depolar     --     0.0000                 0.0000                 0.0000
 Atom AN      X      Y      Z        X      Y      Z        X      Y      Z
   1   6    -0.00  -0.00   0.00     0.01   0.01   0.00     0.02   0.02   0.01
   2   6     0.00  -0.00   0.00     0.00   0.00   0.00     0.00   0.00   0.00
   3   8    -0.00  -0.00  -0.00    -0.00  -0.00  -0.00     0.00  -0.00   0.00
   4  15     0.00   0.00   0.00     0.00   0.00   0.00    -0.00   0.00  -0.00
   5  16    -0.00  -0.00   0.00    -0.00  -0.00  -0.00     0.00   0.00  -0.00
   6   8    -0.00  -0.00  -0.00     0.00   0.00  -0.00     0.00  -0.00  -0.00
   7   6     0.00   0.00  -0.00    -0.00  -0.00   0.00     0.00   0.02  -0.00
   8   6     0.00   0.00  -0.00    -0.00  -0.00  -0.00     0.02   0.23   0.02
   9  16    -0.00   0.00  -0.00    -0.00   0.00  -0.00    -0.00   0.00  -0.00
  10   6     0.00  -0.00   0.00    -0.00  -0.00   0.00     0.00  -0.00   0.00
  11  16    -0.00  -0.00   0.00    -0.00  -0.00  -0.00     0.00   0.00   0.00
  12  15    -0.00  -0.00  -0.00    -0.00  -0.00  -0.00     0.00  -0.00  -0.00
  13  16     0.00   0.00  -0.00     0.00   0.00   0.00    -0.00  -0.00  -0.00
  14   8     0.00   0.00  -0.00     0.00  -0.00   0.00    -0.00   0.00   0.00
  15   6    -0.00  -0.00   0.00     0.00   0.00  -0.00    -0.00  -0.00  -0.00
  16   6    -0.02  -0.00   0.03    -0.00  -0.00  -0.00    -0.01  -0.00  -0.01
  17   8     0.00   0.00  -0.00     0.00   0.00   0.00     0.00   0.00  -0.00
  18   6    -0.03   0.02  -0.01     0.01  -0.01  -0.01    -0.00   0.00  -0.00
  19   6    -0.20   0.16  -0.07     0.13  -0.04  -0.19    -0.00  -0.00  -0.00
  20   1     0.00   0.00   0.00    -0.03  -0.03  -0.02    -0.07  -0.08  -0.04
  21   1    -0.01   0.01  -0.00    -0.00   0.01  -0.00    -0.00   0.01  -0.00
  22   1     0.00  -0.00  -0.00    -0.00   0.00   0.00     0.02   0.00  -0.01
  23   1    -0.00  -0.00  -0.00    -0.00  -0.00  -0.00    -0.00  -0.00  -0.00
  24   1    -0.00   0.00  -0.00    -0.00   0.00  -0.00     0.00  -0.00   0.00
  25   1    -0.00  -0.00  -0.00     0.00   0.00   0.00    -0.01  -0.04  -0.00
  26   1    -0.00  -0.00   0.00     0.00   0.00  -0.00    -0.01  -0.00   0.00
  27   1    -0.02  -0.01   0.01    -0.00  -0.00   0.00     0.07   0.05  -0.03
  28   1     0.00   0.00   0.00     0.00   0.00   0.00     0.01   0.05   0.13
  29   1     0.00   0.00   0.00     0.00   0.02   0.00    -0.14  -0.92  -0.17
  30   1    -0.00   0.00  -0.00    -0.00   0.00  -0.00    -0.00   0.00  -0.00
  31   1     0.00   0.00   0.00     0.00   0.00   0.00     0.00   0.00   0.00
  32   1    -0.00  -0.00  -0.00    -0.00  -0.00  -0.00     0.00   0.00   0.00
  33   1     0.01   0.00  -0.01    -0.00  -0.00   0.00     0.00   0.00  -0.00
  34   1     0.07   0.02  -0.09     0.00   0.00  -0.00     0.00   0.00  -0.01
  35   1     0.00  -0.00   0.00    -0.00   0.00  -0.00     0.00  -0.00  -0.00
  36   1    -0.01  -0.00  -0.01     0.01   0.00   0.02     0.03   0.01   0.04
  37   1     0.07  -0.06   0.04     0.00  -0.00  -0.00     0.00  -0.00   0.00
  38   1     0.02  -0.01  -0.02    -0.04   0.02   0.03    -0.00   0.00   0.00
  39   1     0.10  -0.02  -0.14    -0.65   0.23   0.65    -0.01   0.00   0.01
  40   1    -0.03   0.02  -0.00     0.04   0.04  -0.04     0.00   0.00  -0.00
  41   1     0.65  -0.54   0.39     0.15  -0.11   0.05     0.00  -0.00   0.00
                    112                    113                    114
                        a                      a                      a 
 Frequencies --  3046.7908              3048.1894              3052.3767
 Red. masses --     1.6245                 1.6239                 1.7437
 Frc consts  --     0.0000                 0.0000                 0.0000
 IR Inten    --    18.5631                19.6301                15.2997
 Raman Activ --     0.0000                 0.0000                 0.0000
 Depolar     --     0.0000                 0.0000                 0.0000
 Atom AN      X      Y      Z        X      Y      Z        X      Y      Z
   1   6     0.14   0.15   0.11    -0.00  -0.00  -0.00     0.00  -0.00  -0.01
   2   6     0.01   0.01   0.01    -0.00  -0.00  -0.00     0.00  -0.00  -0.00
   3   8    -0.00   0.00  -0.00     0.00  -0.00  -0.00    -0.00  -0.00   0.00
   4  15     0.00  -0.00   0.00     0.00  -0.00   0.00    -0.00   0.00  -0.00
   5  16    -0.00   0.00   0.00    -0.00   0.00  -0.00     0.00  -0.00   0.00
   6   8    -0.00   0.00   0.00    -0.00   0.00  -0.00     0.00   0.00   0.00
   7   6    -0.00  -0.00  -0.00     0.00  -0.00   0.00     0.00   0.00  -0.00
   8   6    -0.00  -0.03   0.00    -0.00  -0.01   0.00    -0.00  -0.00  -0.01
   9  16    -0.00   0.00  -0.00    -0.00  -0.00   0.00     0.00   0.00  -0.00
  10   6    -0.00  -0.00  -0.00     0.00   0.00   0.00    -0.00  -0.00  -0.00
  11  16     0.00  -0.00   0.00     0.00   0.00  -0.00    -0.00  -0.00  -0.00
  12  15    -0.00   0.00   0.00    -0.00  -0.00  -0.00     0.00  -0.00   0.00
  13  16     0.00   0.00  -0.00     0.00  -0.00  -0.00    -0.00  -0.00   0.00
  14   8    -0.00   0.00   0.00     0.00   0.00   0.00    -0.00   0.00   0.00
  15   6    -0.00  -0.00  -0.00    -0.01  -0.01  -0.02    -0.00  -0.00  -0.00
  16   6    -0.00  -0.00  -0.00    -0.12  -0.07  -0.19    -0.00  -0.00  -0.00
  17   8     0.00  -0.00  -0.00    -0.00  -0.00   0.00    -0.00  -0.00   0.00
  18   6    -0.00   0.00   0.00    -0.00   0.00   0.00     0.00   0.01  -0.01
  19   6    -0.00   0.01   0.01    -0.01  -0.00   0.01     0.12   0.21  -0.10
  20   1    -0.58  -0.66  -0.36     0.01   0.01   0.01     0.01   0.01   0.01
  21   1    -0.02   0.11  -0.00     0.00  -0.00   0.00     0.00  -0.00  -0.00
  22   1     0.10   0.02  -0.03    -0.00  -0.00   0.00    -0.03   0.00   0.01
  23   1    -0.02  -0.03  -0.01     0.00   0.00   0.00     0.00   0.00   0.00
  24   1     0.00  -0.00   0.00    -0.00   0.00   0.00    -0.00   0.00  -0.00
  25   1     0.00   0.01   0.00     0.00   0.00   0.00    -0.00  -0.00  -0.00
  26   1     0.00  -0.00  -0.00    -0.00  -0.00   0.00    -0.00   0.00  -0.00
  27   1    -0.01  -0.01   0.00    -0.00  -0.00   0.00    -0.00  -0.00  -0.00
  28   1    -0.00  -0.01  -0.03    -0.00  -0.00  -0.02     0.00   0.00   0.02
  29   1     0.02   0.11   0.02     0.01   0.04   0.01    -0.00  -0.00  -0.00
  30   1     0.00  -0.00   0.00    -0.00   0.00  -0.00     0.00  -0.00   0.00
  31   1     0.00   0.00   0.00    -0.00  -0.00   0.00     0.00   0.00   0.00
  32   1     0.00   0.00   0.00     0.02   0.01   0.04     0.00   0.00   0.00
  33   1     0.00  -0.00  -0.00    -0.00  -0.00   0.00     0.00   0.00  -0.00
  34   1    -0.00  -0.00   0.00     0.04   0.01  -0.10     0.00   0.00  -0.00
  35   1    -0.00   0.00  -0.00    -0.10   0.05  -0.03    -0.00   0.00  -0.00
  36   1     0.01   0.00   0.01     0.49   0.21   0.80     0.01   0.00   0.02
  37   1     0.00  -0.00   0.00    -0.00   0.00  -0.00     0.01  -0.01   0.01
  38   1     0.00  -0.00  -0.00     0.00  -0.00  -0.00    -0.01   0.01   0.01
  39   1     0.03  -0.01  -0.03     0.01  -0.01  -0.01    -0.02   0.04   0.02
  40   1    -0.01  -0.02   0.01     0.01   0.02  -0.01    -0.41  -0.80   0.34
  41   1    -0.01   0.00  -0.00    -0.00   0.00  -0.00     0.02   0.03  -0.01
                    115                    116                    117
                        a                      a                      a 
 Frequencies --  3054.1433              3054.7134              3056.3772
 Red. masses --     1.7860                 1.7675                 1.7740
 Frc consts  --     0.0000                 0.0000                 0.0000
 IR Inten    --    10.1995                12.3003                10.1444
 Raman Activ --     0.0000                 0.0000                 0.0000
 Depolar     --     0.0000                 0.0000                 0.0000
 Atom AN      X      Y      Z        X      Y      Z        X      Y      Z
   1   6     0.01   0.00  -0.00     0.24  -0.00  -0.10    -0.02   0.00   0.01
   2   6     0.00  -0.00   0.00     0.01  -0.00  -0.00    -0.00   0.00  -0.00
   3   8    -0.00   0.00  -0.00    -0.00  -0.00  -0.00     0.00  -0.00   0.00
   4  15    -0.00  -0.00   0.00    -0.00   0.00  -0.00    -0.00   0.00  -0.00
   5  16    -0.00  -0.00   0.00    -0.00   0.00   0.00     0.00  -0.00  -0.00
   6   8    -0.00   0.00   0.00     0.00  -0.00  -0.00     0.00  -0.00   0.00
   7   6     0.00  -0.00  -0.01    -0.00   0.00   0.00    -0.00   0.00   0.00
   8   6    -0.02  -0.07  -0.25    -0.00   0.00   0.01     0.00   0.00   0.00
   9  16     0.00  -0.00  -0.00    -0.00   0.00  -0.00     0.00  -0.00   0.00
  10   6     0.00  -0.00   0.00    -0.00  -0.00  -0.00    -0.00   0.00  -0.00
  11  16     0.00  -0.00  -0.00     0.00  -0.00   0.00    -0.00  -0.00   0.00
  12  15     0.00   0.00  -0.00    -0.00  -0.00   0.00    -0.00  -0.00   0.00
  13  16    -0.00   0.00  -0.00     0.00   0.00  -0.00    -0.00   0.00   0.00
  14   8    -0.00  -0.00  -0.00    -0.00   0.00  -0.00    -0.00  -0.00  -0.00
  15   6     0.00  -0.00  -0.00     0.00  -0.00   0.00     0.01  -0.00  -0.00
  16   6     0.00  -0.00  -0.00     0.01  -0.01   0.00     0.22  -0.14   0.03
  17   8    -0.00  -0.00  -0.00     0.00  -0.00  -0.00     0.00  -0.00  -0.00
  18   6    -0.00  -0.00   0.00    -0.00   0.00   0.00    -0.00   0.00   0.00
  19   6    -0.00  -0.01   0.00    -0.01  -0.01   0.00    -0.00   0.00  -0.00
  20   1    -0.01  -0.01  -0.01    -0.02  -0.06  -0.05     0.00   0.00   0.00
  21   1    -0.00   0.00  -0.00     0.03   0.01  -0.01    -0.00  -0.00   0.00
  22   1    -0.02   0.00   0.01    -0.86   0.06   0.42     0.05  -0.00  -0.03
  23   1    -0.00  -0.00  -0.00    -0.01  -0.01  -0.00     0.00   0.00   0.00
  24   1    -0.00   0.00  -0.00    -0.01   0.02  -0.00     0.00  -0.00   0.00
  25   1     0.00   0.01   0.00    -0.00  -0.00  -0.00    -0.00  -0.00  -0.00
  26   1    -0.02  -0.00   0.01     0.00   0.00  -0.00     0.00   0.00  -0.00
  27   1    -0.01  -0.01  -0.03     0.00   0.00  -0.00     0.00   0.00  -0.00
  28   1     0.06   0.15   0.94    -0.00  -0.00  -0.02    -0.00  -0.00  -0.02
  29   1     0.02   0.12  -0.01    -0.00  -0.01  -0.00    -0.00  -0.01  -0.00
  30   1    -0.00   0.00  -0.00     0.00  -0.00  -0.00     0.00  -0.00   0.00
  31   1     0.00   0.00  -0.00     0.00   0.00  -0.00    -0.00  -0.00  -0.00
  32   1     0.00   0.00   0.00    -0.00  -0.00  -0.00    -0.00  -0.00  -0.01
  33   1    -0.00  -0.00   0.00     0.00   0.00  -0.00    -0.01  -0.00   0.02
  34   1     0.00  -0.00  -0.00     0.00  -0.00  -0.00     0.02  -0.02   0.01
  35   1    -0.02   0.01  -0.00    -0.05   0.03  -0.00    -0.78   0.55  -0.05
  36   1     0.00   0.00   0.01    -0.00  -0.00  -0.01    -0.02  -0.04  -0.08
  37   1    -0.00   0.00  -0.00     0.00  -0.00   0.00     0.00  -0.00   0.00
  38   1     0.00  -0.00  -0.00     0.00  -0.00  -0.00     0.00  -0.00  -0.00
  39   1     0.01  -0.00  -0.01     0.01  -0.00  -0.01     0.00  -0.00  -0.00
  40   1     0.01   0.02  -0.01     0.01   0.02  -0.01    -0.00  -0.00   0.00
  41   1    -0.00   0.00  -0.00     0.00  -0.00   0.00     0.00  -0.00   0.00
