 Entering Gaussian System
 *********************************************
 Gaussian 98:
 frequency output generated by the xtb code
 *********************************************
                         Standard orientation:
 --------------------------------------------------------------------
  Center     Atomic     Atomic              Coordinates (Angstroms)
  Number     Number      Type              X           Y           Z
 --------------------------------------------------------------------
    1          6             0        3.393114   -0.032379   -2.633684
    2          6             0        2.026888    0.400377   -2.146447
    3          8             0        1.490682   -0.516735   -1.173074
    4         15             0        2.068435   -0.619551    0.295560
    5         16             0        2.773191    1.031882    1.089839
    6          8             0        3.097339   -1.821910    0.136220
    7          6             0        3.956575   -2.260814    1.210114
    8          6             0        5.367162   -1.740065    1.009702
    9         16             0        0.478262   -1.543041    1.323346
   10          6             0       -0.315979   -0.094149    2.110185
   11         16             0       -2.077482    0.016161    1.741324
   12         15             0       -1.941157    0.795189   -0.236827
   13         16             0       -0.636077    2.233688   -0.471895
   14          8             0       -3.454611    1.147537   -0.563492
   15          6             0       -4.137929    2.264922    0.045899
   16          6             0       -5.386008    2.548904   -0.767027
   17          8             0       -1.643414   -0.414585   -1.196524
   18          6             0       -2.434669   -1.630665   -1.236862
   19          6             0       -3.404946   -1.603195   -2.399435
   20          1             0        3.718875    0.637805   -3.423346
   21          1             0        4.108978    0.011028   -1.813846
   22          1             0        3.352006   -1.049880   -3.013327
   23          1             0        1.284191    0.395618   -2.945750
   24          1             0        2.066588    1.398946   -1.697262
   25          1             0        3.548554   -1.920464    2.165878
   26          1             0        3.926220   -3.351215    1.168469
   27          1             0        6.008849   -2.138918    1.789015
   28          1             0        5.746672   -2.049589    0.039883
   29          1             0        5.377817   -0.653490    1.064548
   30          1             0        0.192790    0.814236    1.775368
   31          1             0       -0.238795   -0.211529    3.188058
   32          1             0       -4.385931    1.994278    1.075504
   33          1             0       -3.460793    3.124805    0.053492
   34          1             0       -5.902777    3.401092   -0.337370
   35          1             0       -5.119459    2.775986   -1.795530
   36          1             0       -6.046913    1.687138   -0.754562
   37          1             0       -1.697690   -2.428776   -1.347400
   38          1             0       -2.959781   -1.744023   -0.284434
   39          1             0       -3.926545   -2.554488   -2.442517
   40          1             0       -4.127892   -0.802131   -2.270715
   41          1             0       -2.869208   -1.446652   -3.331712
 --------------------------------------------------------------------
     1 basis functions        1 primitive gaussians
     1 alpha electrons        1 beta electrons
 
 Harmonic frequencies (cm**-1), IR intensities (km*mol⁻¹),
 Raman scattering activities (A**4/amu), Raman depolarization ratios,
 reduced masses (AMU), force constants (mDyne/A) and normal coordinates:
                      1                      2                      3
                        a                      a                      a 
 Frequencies --    51.3760                54.3879                54.7466
 Red. masses --    26.2398                25.0243                23.0629
 Frc consts  --     0.0000                 0.0000                 0.0000
 IR Inten    --     0.2824                 0.7070                 5.5651
 Raman Activ --     0.0000                 0.0000                 0.0000
 Depolar     --     0.0000                 0.0000                 0.0000
 Atom AN      X      Y      Z        X      Y      Z        X      Y      Z
   1   6     0.05   0.02  -0.03    -0.15  -0.13  -0.05    -0.13   0.02   0.01
   2   6     0.03   0.04  -0.08    -0.17  -0.17  -0.07    -0.08   0.09   0.07
   3   8    -0.02   0.06  -0.12    -0.14  -0.17  -0.01    -0.09   0.17   0.15
   4  15    -0.19   0.10  -0.11    -0.08   0.01  -0.03     0.04   0.17   0.14
   5  16    -0.37   0.11   0.04    -0.17   0.22  -0.39     0.17   0.11   0.15
   6   8    -0.05   0.13  -0.03    -0.00   0.05   0.02    -0.01   0.11  -0.02
   7   6    -0.07   0.13  -0.01    -0.02   0.06   0.04     0.01  -0.00  -0.07
   8   6    -0.06   0.10  -0.00    -0.02   0.06   0.06     0.02  -0.05  -0.10
   9  16    -0.23  -0.04  -0.29     0.16  -0.05   0.30     0.18   0.11   0.29
  10   6    -0.04  -0.10   0.06    -0.04  -0.05   0.06    -0.05   0.05   0.03
  11  16    -0.06   0.09   0.14    -0.05  -0.30  -0.07    -0.06  -0.20  -0.16
  12  15     0.17  -0.10   0.09     0.08   0.01   0.06     0.00  -0.17  -0.14
  13  16     0.42  -0.33   0.07     0.09   0.06   0.43     0.23  -0.37  -0.13
  14   8     0.18   0.05  -0.05     0.08   0.04  -0.02     0.03   0.05  -0.07
  15   6     0.15   0.04  -0.02     0.05   0.04  -0.05     0.10   0.05   0.02
  16   6     0.12   0.01   0.01     0.08   0.05  -0.10     0.07   0.12   0.09
  17   8     0.06  -0.14   0.13     0.10   0.09  -0.06    -0.15  -0.13  -0.14
  18   6    -0.02  -0.07   0.11     0.10   0.07  -0.11    -0.22  -0.05  -0.10
  19   6     0.01  -0.03   0.09     0.09   0.10  -0.10    -0.25   0.04  -0.07
  20   1     0.02   0.00  -0.01    -0.05  -0.04  -0.02    -0.04  -0.00  -0.01
  21   1     0.01   0.01  -0.00    -0.04  -0.02  -0.02    -0.02   0.00  -0.01
  22   1     0.01   0.01  -0.01    -0.03  -0.04  -0.01    -0.06   0.01   0.01
  23   1     0.02   0.02  -0.03    -0.05  -0.07  -0.02    -0.04   0.03   0.03
  24   1     0.01   0.01  -0.02    -0.06  -0.04  -0.03    -0.00   0.03   0.01
  25   1    -0.02   0.05  -0.01    -0.01   0.02   0.01     0.02  -0.01  -0.01
  26   1    -0.02   0.04   0.01    -0.01   0.02   0.02    -0.01   0.00  -0.03
  27   1    -0.02   0.03   0.00    -0.01   0.02   0.02     0.01  -0.03  -0.04
  28   1    -0.02   0.02   0.00    -0.00   0.01   0.02    -0.01  -0.01  -0.03
  29   1    -0.01   0.03  -0.01    -0.01   0.02   0.01     0.02  -0.02  -0.02
  30   1     0.00  -0.02   0.06    -0.02  -0.01   0.01    -0.03   0.02  -0.00
  31   1    -0.01  -0.08   0.01    -0.02   0.00   0.02    -0.03   0.04   0.01
  32   1     0.05   0.01  -0.00     0.00   0.02  -0.02     0.04   0.01   0.01
  33   1     0.04   0.01  -0.01     0.02   0.01  -0.01     0.04   0.01   0.00
  34   1     0.04   0.00   0.00     0.02   0.02  -0.04     0.04   0.04   0.04
  35   1     0.03   0.00  -0.00     0.03   0.01  -0.03     0.01   0.04   0.02
  36   1     0.04  -0.00   0.01     0.02   0.02  -0.03     0.01   0.04   0.03
  37   1    -0.02  -0.03   0.04     0.03   0.02  -0.04    -0.08  -0.03  -0.04
  38   1    -0.01  -0.01   0.03     0.03   0.01  -0.03    -0.06  -0.00  -0.02
  39   1    -0.01  -0.00   0.02     0.03   0.03  -0.03    -0.09   0.02  -0.02
  40   1     0.01   0.00   0.02     0.03   0.03  -0.02    -0.06   0.03  -0.01
  41   1     0.01  -0.02   0.03     0.02   0.04  -0.03    -0.08   0.01  -0.02
                      4                      5                      6
                        a                      a                      a 
 Frequencies --    55.2668                62.7009                63.2236
 Red. masses --    17.5601                19.7180                15.1272
 Frc consts  --     0.0000                 0.0000                 0.0000
 IR Inten    --     0.7741                 5.1501                 7.0016
 Raman Activ --     0.0000                 0.0000                 0.0000
 Depolar     --     0.0000                 0.0000                 0.0000
 Atom AN      X      Y      Z        X      Y      Z        X      Y      Z
   1   6     0.22  -0.04  -0.03    -0.03  -0.05  -0.01    -0.03  -0.23  -0.08
   2   6     0.20  -0.05  -0.08    -0.04  -0.13   0.04     0.06  -0.04  -0.02
   3   8     0.22  -0.07  -0.11     0.04  -0.21   0.04    -0.01   0.09   0.07
   4  15     0.15   0.05  -0.09    -0.01  -0.16   0.09     0.03   0.02   0.08
   5  16    -0.02   0.17  -0.19    -0.36  -0.03   0.12     0.03  -0.09   0.31
   6   8     0.16   0.06   0.08     0.14   0.01   0.13     0.05   0.05  -0.01
   7   6     0.00   0.03   0.17     0.20   0.15   0.11     0.19   0.13  -0.09
   8   6     0.04  -0.03   0.29     0.16   0.23  -0.01     0.17   0.10  -0.34
   9  16     0.08   0.01  -0.23    -0.00  -0.26   0.01    -0.04  -0.05  -0.10
  10   6     0.03  -0.05  -0.06     0.01  -0.12  -0.06    -0.05  -0.05  -0.04
  11  16     0.00  -0.21   0.06     0.06  -0.02  -0.22    -0.10  -0.15   0.01
  12  15    -0.19  -0.07   0.10     0.04   0.13  -0.16    -0.10   0.01   0.07
  13  16    -0.15  -0.13   0.04     0.06   0.09  -0.25    -0.13   0.06   0.23
  14   8    -0.15   0.01   0.17     0.02   0.14  -0.01    -0.06   0.03   0.00
  15   6    -0.01   0.12   0.06     0.04   0.06   0.14     0.01   0.17  -0.19
  16   6     0.07   0.24  -0.02    -0.06   0.06   0.29     0.10   0.19  -0.32
  17   8    -0.22  -0.02   0.01    -0.06   0.11  -0.17    -0.05   0.03   0.03
  18   6    -0.22  -0.00  -0.01    -0.01   0.07  -0.03     0.03  -0.03   0.09
  19   6    -0.19   0.04  -0.03    -0.12  -0.00   0.07    -0.03  -0.12   0.13
  20   1     0.07  -0.01  -0.00    -0.03  -0.01  -0.00    -0.01  -0.09  -0.05
  21   1     0.05  -0.01   0.00    -0.00  -0.01  -0.01     0.01  -0.07  -0.04
  22   1     0.07  -0.01  -0.01     0.00  -0.01  -0.01    -0.05  -0.07  -0.00
  23   1     0.07  -0.02  -0.03    -0.02  -0.04   0.02     0.00  -0.00   0.01
  24   1     0.05  -0.01  -0.02    -0.02  -0.04   0.01     0.06  -0.01  -0.02
  25   1    -0.02   0.02   0.03     0.07   0.06   0.03     0.10   0.07  -0.02
  26   1    -0.01   0.01   0.06     0.08   0.04   0.06     0.05   0.04   0.00
  27   1    -0.01  -0.02   0.10     0.07   0.09  -0.01     0.08   0.05  -0.11
  28   1     0.03  -0.02   0.10     0.03   0.06  -0.01     0.01   0.00  -0.10
  29   1     0.02  -0.01   0.08     0.03   0.07  -0.02     0.05   0.03  -0.12
  30   1    -0.01  -0.00  -0.02     0.02  -0.04  -0.01    -0.02  -0.01  -0.02
  31   1     0.03  -0.02  -0.02    -0.01  -0.03  -0.02    -0.00  -0.01  -0.01
  32   1    -0.03   0.06   0.02     0.05  -0.00   0.04    -0.03   0.09  -0.05
  33   1     0.03   0.01   0.02     0.00   0.02   0.03     0.03   0.03  -0.07
  34   1     0.04   0.09  -0.02    -0.01   0.01   0.11     0.04   0.08  -0.13
  35   1     0.04   0.06  -0.00    -0.05   0.03   0.08     0.06   0.02  -0.09
  36   1    -0.01   0.09  -0.01    -0.01   0.01   0.10     0.01   0.07  -0.08
  37   1    -0.07  -0.01  -0.00     0.00   0.03  -0.02     0.02   0.00   0.02
  38   1    -0.07   0.00  -0.01     0.03   0.02   0.01     0.02  -0.01   0.03
  39   1    -0.06   0.02  -0.02    -0.03  -0.01   0.04     0.00  -0.04   0.06
  40   1    -0.05   0.02  -0.01    -0.04  -0.00   0.03    -0.01  -0.04   0.04
  41   1    -0.05   0.01  -0.00    -0.06  -0.00   0.00    -0.02  -0.04   0.03
                      7                      8                      9
                        a                      a                      a 
 Frequencies --    79.2148                74.0416                68.4773
 Red. masses --    21.2271                15.1529                12.0129
 Frc consts  --     0.0000                 0.0000                 0.0000
 IR Inten    --     5.7592                 9.6322                 1.6327
 Raman Activ --     0.0000                 0.0000                 0.0000
 Depolar     --     0.0000                 0.0000                 0.0000
 Atom AN      X      Y      Z        X      Y      Z        X      Y      Z
   1   6    -0.10   0.13   0.05    -0.02   0.30   0.07    -0.10   0.32  -0.00
   2   6    -0.12   0.06   0.05    -0.10   0.02   0.07    -0.14   0.15   0.04
   3   8    -0.11   0.02   0.03     0.03  -0.18  -0.03    -0.03   0.02  -0.03
   4  15    -0.06  -0.02  -0.00     0.02  -0.21  -0.02     0.02  -0.05  -0.07
   5  16    -0.34   0.06   0.09     0.19  -0.24  -0.13     0.13  -0.11  -0.06
   6   8     0.06   0.09  -0.12    -0.03  -0.20   0.06    -0.01  -0.06  -0.08
   7   6    -0.02  -0.05  -0.09     0.14   0.10   0.02    -0.11  -0.07   0.01
   8   6     0.01  -0.09   0.02     0.01   0.42  -0.06    -0.13   0.07   0.25
   9  16     0.15  -0.20   0.15    -0.05  -0.04   0.07     0.07  -0.09  -0.02
  10   6     0.14  -0.09   0.07     0.02   0.04   0.00    -0.01  -0.05  -0.06
  11  16     0.25   0.05   0.13     0.01   0.09   0.14    -0.01  -0.15  -0.16
  12  15     0.05  -0.07   0.05    -0.04  -0.03   0.08     0.01   0.04  -0.08
  13  16    -0.23   0.10  -0.35     0.11  -0.17   0.03     0.02   0.05   0.05
  14   8    -0.02  -0.18   0.17    -0.01   0.01   0.02     0.02   0.10  -0.06
  15   6     0.09   0.01  -0.04    -0.04   0.06  -0.10     0.07   0.12  -0.06
  16   6     0.25   0.19  -0.22     0.01  -0.00  -0.20     0.07   0.17  -0.06
  17   8     0.05  -0.09   0.09    -0.07  -0.05   0.09    -0.02   0.04  -0.08
  18   6    -0.04  -0.02   0.00    -0.19   0.04  -0.03     0.16  -0.09   0.17
  19   6     0.05   0.08  -0.07    -0.07   0.18  -0.13    -0.08  -0.32   0.37
  20   1    -0.03   0.05   0.02    -0.03   0.12   0.04    -0.05   0.12   0.01
  21   1    -0.03   0.04   0.02    -0.01   0.10   0.03    -0.03   0.09   0.00
  22   1    -0.02   0.04   0.01     0.05   0.09  -0.01    -0.00   0.10  -0.02
  23   1    -0.03   0.02   0.01    -0.02  -0.01   0.01    -0.04   0.04   0.01
  24   1    -0.05   0.02   0.02    -0.08  -0.00   0.04    -0.07   0.04   0.03
  25   1    -0.02  -0.03  -0.02     0.03   0.01   0.01    -0.08  -0.05  -0.01
  26   1    -0.02  -0.01  -0.05     0.11   0.03   0.02    -0.00  -0.02  -0.02
  27   1    -0.01  -0.05   0.01     0.04   0.17  -0.02    -0.06   0.02   0.09
  28   1     0.01  -0.01   0.01     0.01   0.14  -0.02     0.01   0.05   0.08
  29   1     0.01  -0.03   0.03    -0.07   0.12  -0.02    -0.06   0.02   0.09
  30   1     0.06  -0.03   0.02     0.01   0.00  -0.02    -0.01  -0.01  -0.02
  31   1     0.04  -0.03   0.02     0.02   0.03   0.00    -0.01  -0.01  -0.02
  32   1    -0.03   0.04  -0.02    -0.03   0.04  -0.03     0.02   0.04  -0.02
  33   1     0.07  -0.03  -0.00    -0.01   0.02  -0.03     0.03   0.03  -0.02
  34   1     0.09   0.08  -0.09    -0.01   0.00  -0.08     0.03   0.05  -0.02
  35   1     0.12   0.04  -0.05     0.02  -0.01  -0.06     0.02   0.04  -0.02
  36   1     0.04   0.08  -0.09     0.01  -0.00  -0.06     0.01   0.06  -0.01
  37   1    -0.02  -0.02   0.01    -0.08  -0.01   0.01     0.07   0.00   0.02
  38   1    -0.03  -0.00  -0.01    -0.09   0.02  -0.02     0.11  -0.03   0.08
  39   1    -0.00   0.03  -0.04    -0.04   0.06  -0.07     0.01  -0.11   0.16
  40   1     0.02   0.03  -0.03    -0.01   0.07  -0.05    -0.04  -0.11   0.13
  41   1     0.04   0.03  -0.01     0.01   0.05  -0.02    -0.08  -0.09   0.07
                     10                     11                     12
                        a                      a                      a 
 Frequencies --    76.1188                75.0314                80.4269
 Red. masses --    12.4703                11.4860                11.0527
 Frc consts  --     0.0000                 0.0000                 0.0000
 IR Inten    --     2.7087                 0.4473                 0.4712
 Raman Activ --     0.0000                 0.0000                 0.0000
 Depolar     --     0.0000                 0.0000                 0.0000
 Atom AN      X      Y      Z        X      Y      Z        X      Y      Z
   1   6    -0.19  -0.10  -0.27     0.20   0.27   0.25    -0.28   0.25  -0.39
   2   6    -0.07   0.02  -0.05     0.05   0.02   0.06    -0.18   0.08   0.03
   3   8     0.01   0.06   0.03     0.09  -0.11  -0.03     0.18  -0.15   0.01
   4  15     0.09   0.03   0.00     0.00  -0.03   0.02     0.09  -0.03   0.09
   5  16     0.01  -0.04   0.20    -0.19   0.14  -0.16    -0.02   0.05   0.02
   6   8     0.12   0.08  -0.05     0.03   0.00   0.07     0.10  -0.01   0.21
   7   6    -0.04  -0.02   0.04     0.07  -0.05   0.00     0.07   0.02   0.20
   8   6    -0.01  -0.02   0.26     0.15  -0.35  -0.26     0.16  -0.30  -0.03
   9  16     0.10  -0.11  -0.11     0.03  -0.01   0.09    -0.10   0.05  -0.10
  10   6     0.08  -0.08  -0.01    -0.03  -0.00   0.01    -0.04   0.03  -0.03
  11  16     0.14  -0.00   0.00    -0.04  -0.00  -0.04    -0.08   0.09   0.05
  12  15     0.09   0.07   0.02     0.02   0.03  -0.02    -0.05  -0.01   0.02
  13  16     0.10   0.07   0.05     0.03   0.03   0.07     0.03  -0.08   0.03
  14   8     0.06  -0.01  -0.02     0.03   0.01  -0.09    -0.02   0.02  -0.03
  15   6    -0.10  -0.04  -0.15    -0.05  -0.02  -0.13     0.00   0.03  -0.00
  16   6    -0.14  -0.32  -0.20    -0.08  -0.15  -0.14     0.00   0.07   0.01
  17   8     0.02   0.03   0.02     0.02  -0.00   0.01    -0.01  -0.02   0.04
  18   6    -0.14   0.12   0.03    -0.03   0.03   0.07     0.03  -0.04  -0.01
  19   6    -0.27   0.27   0.14    -0.24   0.11   0.24     0.18  -0.09  -0.14
  20   1    -0.07  -0.03  -0.09     0.05   0.10   0.09    -0.14   0.12  -0.10
  21   1    -0.02  -0.05  -0.11     0.02   0.11   0.10    -0.03   0.03  -0.16
  22   1    -0.10  -0.03  -0.08     0.12   0.08   0.06    -0.09   0.09  -0.17
  23   1    -0.06   0.03   0.02     0.05  -0.03  -0.01    -0.11   0.05   0.06
  24   1     0.03   0.00  -0.01    -0.05   0.00   0.02    -0.04   0.00   0.05
  25   1    -0.05  -0.02   0.00     0.08   0.05   0.00     0.06   0.08   0.05
  26   1    -0.01  -0.01  -0.01    -0.04  -0.01   0.04    -0.04   0.01   0.12
  27   1    -0.03  -0.02   0.09     0.05  -0.11  -0.09     0.05  -0.09  -0.01
  28   1     0.03   0.01   0.08    -0.02  -0.15  -0.08    -0.00  -0.15  -0.01
  29   1    -0.00  -0.01   0.09     0.10  -0.10  -0.11     0.11  -0.08  -0.06
  30   1     0.03  -0.02   0.01    -0.01  -0.00   0.00    -0.01   0.01  -0.01
  31   1     0.02  -0.03  -0.01    -0.01   0.00   0.00    -0.00   0.01  -0.01
  32   1    -0.02   0.01  -0.03    -0.01   0.00  -0.03     0.00   0.00  -0.00
  33   1    -0.07   0.02  -0.07    -0.03   0.01  -0.05     0.01   0.00   0.00
  34   1    -0.07  -0.10  -0.09    -0.04  -0.05  -0.05     0.01   0.02   0.01
  35   1    -0.05  -0.12  -0.06    -0.03  -0.05  -0.04    -0.00   0.02   0.00
  36   1    -0.01  -0.12  -0.03    -0.01  -0.05  -0.03    -0.00   0.02   0.00
  37   1    -0.07   0.01  -0.03    -0.02   0.00  -0.03     0.02  -0.01   0.03
  38   1    -0.01   0.04   0.02     0.04  -0.00   0.04    -0.02  -0.00  -0.02
  39   1    -0.10   0.09   0.04    -0.08   0.04   0.08     0.06  -0.03  -0.05
  40   1    -0.06   0.09   0.07    -0.06   0.03   0.12     0.04  -0.03  -0.07
  41   1    -0.10   0.08   0.02    -0.12   0.05   0.05     0.08  -0.03  -0.02
                     13                     14                     15
                        a                      a                      a 
 Frequencies --    96.9730                96.0510               124.3649
 Red. masses --    13.5574                 9.7505                15.6435
 Frc consts  --     0.0000                 0.0000                 0.0000
 IR Inten    --     1.6624                 1.5829                 3.4610
 Raman Activ --     0.0000                 0.0000                 0.0000
 Depolar     --     0.0000                 0.0000                 0.0000
 Atom AN      X      Y      Z        X      Y      Z        X      Y      Z
   1   6    -0.04  -0.02  -0.12     0.01   0.03   0.02     0.09   0.00  -0.25
   2   6     0.02   0.02   0.01     0.01   0.04   0.01     0.22   0.08   0.06
   3   8     0.06  -0.02  -0.01    -0.01   0.03  -0.00     0.25  -0.08  -0.09
   4  15    -0.02  -0.00   0.03    -0.01   0.00  -0.00     0.06  -0.10   0.00
   5  16     0.09  -0.02  -0.04     0.07  -0.02  -0.04    -0.39   0.06   0.07
   6   8    -0.08  -0.07   0.13    -0.02  -0.01   0.02    -0.02  -0.11  -0.04
   7   6    -0.00   0.07   0.11    -0.03   0.04   0.04     0.08  -0.32  -0.21
   8   6    -0.03   0.10  -0.01    -0.02   0.00   0.01    -0.05   0.10   0.01
   9  16    -0.16   0.11  -0.08    -0.01  -0.03  -0.02     0.08   0.15   0.27
  10   6    -0.06   0.05   0.01    -0.03  -0.04   0.01    -0.00   0.18  -0.03
  11  16    -0.09   0.01  -0.03    -0.06  -0.12   0.02    -0.04   0.07   0.02
  12  15     0.08  -0.18  -0.08     0.02  -0.10   0.02    -0.07  -0.03  -0.01
  13  16    -0.23   0.11   0.02    -0.24   0.12  -0.05    -0.01  -0.06   0.12
  14   8     0.04  -0.23  -0.11     0.03  -0.03  -0.02    -0.03   0.02  -0.08
  15   6     0.14  -0.24   0.08     0.36   0.32  -0.28     0.02   0.05  -0.07
  16   6     0.23   0.13   0.07    -0.08  -0.13   0.24    -0.05   0.02   0.03
  17   8     0.25  -0.14   0.01     0.09  -0.13   0.11     0.00  -0.03   0.03
  18   6     0.13  -0.06  -0.11    -0.03  -0.04   0.01     0.03  -0.05  -0.02
  19   6    -0.21   0.29   0.19     0.05   0.09  -0.05    -0.01  -0.01   0.02
  20   1    -0.02   0.01  -0.03     0.00   0.01   0.01     0.01   0.04  -0.05
  21   1     0.01  -0.03  -0.05     0.00   0.01   0.01     0.06  -0.08  -0.10
  22   1    -0.03   0.00  -0.06     0.00   0.01   0.01    -0.03   0.03  -0.13
  23   1    -0.01   0.03   0.02     0.00   0.01   0.00     0.03   0.11   0.05
  24   1     0.03  -0.00   0.02     0.00   0.01   0.01     0.12  -0.01   0.08
  25   1     0.01   0.04   0.03    -0.01   0.03   0.01    -0.00  -0.23  -0.02
  26   1     0.01   0.02   0.06    -0.01   0.01   0.03     0.09  -0.09  -0.19
  27   1     0.01   0.05  -0.01    -0.01   0.01   0.01     0.01   0.00  -0.03
  28   1    -0.02   0.02  -0.01    -0.01  -0.02   0.01     0.02   0.15  -0.02
  29   1    -0.02   0.03  -0.02     0.00   0.00  -0.02    -0.09   0.03   0.10
  30   1    -0.02   0.02   0.01    -0.01  -0.01   0.00    -0.02   0.04  -0.05
  31   1    -0.02   0.01   0.00    -0.01  -0.01   0.00     0.01   0.09  -0.01
  32   1     0.01  -0.12   0.00     0.26   0.26  -0.00     0.03   0.03  -0.01
  33   1     0.07  -0.09   0.09     0.11   0.09  -0.32     0.01   0.01  -0.05
  34   1     0.10   0.04   0.06     0.03   0.02   0.03    -0.00   0.01   0.02
  35   1     0.09   0.08   0.04    -0.18  -0.18  -0.00    -0.04  -0.00   0.00
  36   1     0.02   0.07  -0.04    -0.01  -0.04   0.29    -0.01   0.01   0.04
  37   1     0.02  -0.02  -0.15    -0.02  -0.03   0.01     0.02  -0.00  -0.03
  38   1     0.12  -0.08   0.00    -0.03  -0.01  -0.01     0.02  -0.03   0.00
  39   1    -0.08   0.09   0.03    -0.01   0.04  -0.03     0.00  -0.01  -0.00
  40   1    -0.04   0.09   0.17     0.03   0.04  -0.02    -0.01  -0.01   0.03
  41   1    -0.14   0.14   0.02     0.03   0.03  -0.00    -0.02   0.02   0.00
                     16                     17                     18
                        a                      a                      a 
 Frequencies --   134.0598               140.0361               128.7660
 Red. masses --    16.3649                17.8590                13.3775
 Frc consts  --     0.0000                 0.0000                 0.0000
 IR Inten    --     9.2546                20.0276                 1.1409
 Raman Activ --     0.0000                 0.0000                 0.0000
 Depolar     --     0.0000                 0.0000                 0.0000
 Atom AN      X      Y      Z        X      Y      Z        X      Y      Z
   1   6     0.04  -0.03  -0.13    -0.07  -0.09   0.00    -0.08  -0.01   0.13
   2   6     0.17   0.14   0.07     0.09   0.13   0.24    -0.20  -0.18  -0.05
   3   8     0.07   0.06  -0.07     0.01   0.07   0.14    -0.07  -0.08   0.14
   4  15    -0.10   0.01  -0.02     0.04   0.00   0.18     0.12   0.04   0.11
   5  16     0.03  -0.03  -0.08     0.14   0.24  -0.36     0.07   0.13   0.00
   6   8    -0.16  -0.08   0.08     0.02  -0.01   0.06     0.14   0.09  -0.03
   7   6    -0.11   0.10   0.11     0.12  -0.16  -0.10     0.14  -0.20  -0.16
   8   6    -0.10   0.01  -0.10     0.05   0.06  -0.01     0.11  -0.01   0.10
   9  16     0.03  -0.04   0.14    -0.08  -0.21  -0.12    -0.12   0.03  -0.21
  10   6    -0.03  -0.09   0.13    -0.14  -0.25   0.08    -0.04  -0.00  -0.03
  11  16    -0.02  -0.23   0.07    -0.21  -0.06  -0.04    -0.11   0.08   0.13
  12  15    -0.03   0.08   0.17     0.04   0.08   0.01    -0.13   0.00   0.10
  13  16     0.12  -0.15  -0.38    -0.00   0.09  -0.17     0.06  -0.21  -0.13
  14   8    -0.06   0.05   0.26     0.05   0.05  -0.10    -0.08   0.04   0.04
  15   6    -0.11   0.12   0.02    -0.03  -0.05   0.01    -0.03   0.11  -0.04
  16   6    -0.07  -0.06  -0.10     0.01   0.02  -0.03    -0.08   0.04  -0.00
  17   8     0.00   0.18  -0.01     0.05  -0.05   0.15     0.05   0.05   0.06
  18   6     0.27   0.00  -0.14    -0.12   0.06   0.20     0.28  -0.08  -0.18
  19   6     0.03   0.08   0.06     0.08   0.04   0.04     0.01   0.12   0.05
  20   1     0.02   0.01  -0.01    -0.01  -0.01   0.02    -0.04  -0.03   0.01
  21   1     0.04  -0.09  -0.06     0.01  -0.11  -0.02    -0.05   0.08   0.05
  22   1    -0.05   0.01  -0.09    -0.10  -0.01  -0.04     0.04  -0.02   0.09
  23   1     0.03   0.13   0.04    -0.00   0.13   0.09    -0.04  -0.15  -0.03
  24   1     0.11   0.01   0.07     0.10   0.01   0.12    -0.12  -0.02  -0.08
  25   1    -0.01   0.09   0.02     0.03  -0.13   0.00     0.02  -0.17  -0.02
  26   1    -0.04   0.03   0.10     0.07  -0.04  -0.11     0.07  -0.05  -0.16
  27   1    -0.01   0.04  -0.03     0.03  -0.01  -0.03     0.03  -0.06   0.01
  28   1    -0.06  -0.05  -0.02     0.02   0.09  -0.02     0.06   0.09   0.01
  29   1    -0.02   0.01  -0.08    -0.02   0.01   0.06     0.00  -0.01   0.13
  30   1    -0.01  -0.02   0.06    -0.02  -0.06   0.08    -0.02   0.00  -0.01
  31   1    -0.02  -0.04   0.04    -0.07  -0.13   0.02     0.00  -0.01  -0.01
  32   1    -0.05   0.08   0.01    -0.02  -0.05  -0.01     0.01   0.06  -0.00
  33   1    -0.04   0.04  -0.02    -0.02  -0.01   0.04    -0.01   0.03  -0.05
  34   1    -0.04  -0.01  -0.08    -0.01  -0.02   0.01    -0.01   0.02  -0.01
  35   1    -0.00  -0.06  -0.03     0.02   0.04   0.00    -0.04  -0.01  -0.01
  36   1    -0.01  -0.03  -0.01     0.01  -0.00  -0.05    -0.02   0.01   0.03
  37   1     0.12   0.05  -0.14    -0.06  -0.02   0.12     0.12   0.03  -0.18
  38   1     0.14  -0.10  -0.02    -0.08   0.08   0.04     0.15  -0.15  -0.03
  39   1     0.06  -0.00  -0.01    -0.01   0.03   0.02     0.05   0.01  -0.05
  40   1    -0.03  -0.03   0.11     0.04   0.04  -0.05    -0.03  -0.01   0.14
  41   1    -0.05   0.11  -0.00     0.07  -0.04   0.03    -0.06   0.15  -0.01
                     19                     20                     21
                        a                      a                      a 
 Frequencies --   160.1341               169.8725               186.5743
 Red. masses --    19.0070                16.4567                16.6575
 Frc consts  --     0.0000                 0.0000                 0.0000
 IR Inten    --     7.0337                 9.3126                 4.9900
 Raman Activ --     0.0000                 0.0000                 0.0000
 Depolar     --     0.0000                 0.0000                 0.0000
 Atom AN      X      Y      Z        X      Y      Z        X      Y      Z
   1   6     0.08   0.08  -0.09     0.02   0.09  -0.07    -0.11  -0.06   0.14
   2   6    -0.05  -0.15  -0.25    -0.08  -0.14  -0.13    -0.06   0.07   0.16
   3   8     0.09  -0.10  -0.12     0.14  -0.10   0.03    -0.12   0.04   0.10
   4  15     0.05   0.05  -0.12     0.05   0.11   0.13     0.02  -0.09   0.04
   5  16     0.02  -0.11   0.23     0.01   0.16   0.10    -0.16   0.03  -0.04
   6   8     0.02   0.02  -0.06    -0.20  -0.13   0.19    -0.02  -0.09   0.04
   7   6    -0.02   0.00  -0.04    -0.00  -0.20  -0.02     0.02  -0.03   0.04
   8   6    -0.01  -0.00   0.01    -0.11   0.06  -0.11     0.00  -0.01  -0.01
   9  16     0.15   0.11   0.14    -0.15   0.21  -0.15    -0.14   0.18  -0.21
  10   6    -0.16  -0.01   0.01    -0.02  -0.02   0.20     0.13   0.35  -0.38
  11  16    -0.29  -0.30  -0.07     0.06  -0.19  -0.04     0.12  -0.40  -0.07
  12  15    -0.03   0.10   0.09     0.21  -0.02   0.03     0.04   0.01   0.09
  13  16     0.00   0.02  -0.27    -0.02   0.17  -0.08     0.07  -0.05  -0.09
  14   8     0.02   0.08  -0.13     0.09  -0.07   0.27     0.03  -0.01   0.09
  15   6    -0.06  -0.05   0.03     0.09   0.02   0.06    -0.00  -0.00   0.05
  16   6    -0.03   0.06   0.03     0.14  -0.15  -0.08     0.03  -0.05  -0.02
  17   8     0.15  -0.04   0.27    -0.09   0.10  -0.21     0.08   0.03   0.06
  18   6    -0.02   0.08   0.23    -0.10   0.08  -0.02     0.00   0.08   0.11
  19   6     0.16   0.18   0.09    -0.08  -0.13  -0.04     0.09   0.09   0.05
  20   1    -0.01   0.01  -0.05    -0.04   0.02  -0.04    -0.00  -0.02   0.05
  21   1     0.00   0.11  -0.01     0.00   0.10  -0.02    -0.03  -0.05   0.04
  22   1     0.10   0.01   0.01     0.07   0.01   0.01    -0.06  -0.01   0.03
  23   1    -0.00  -0.14  -0.08    -0.02  -0.13  -0.04    -0.02   0.06   0.05
  24   1    -0.09  -0.02  -0.13    -0.09  -0.02  -0.09     0.01   0.01   0.07
  25   1    -0.01  -0.00  -0.01     0.02  -0.13   0.03     0.01  -0.00   0.01
  26   1    -0.01   0.00  -0.01     0.04  -0.06  -0.08     0.01  -0.01   0.02
  27   1    -0.01  -0.00   0.01     0.02   0.00  -0.08     0.01   0.02   0.00
  28   1     0.00   0.00   0.00    -0.06   0.09  -0.06     0.00  -0.02   0.00
  29   1    -0.00  -0.00   0.01    -0.08   0.01   0.03    -0.01  -0.00  -0.02
  30   1    -0.07   0.01   0.01    -0.00   0.01   0.12    -0.04   0.09  -0.26
  31   1    -0.05   0.00   0.00    -0.03  -0.07   0.05     0.14   0.23  -0.10
  32   1    -0.03  -0.06  -0.01     0.01   0.05   0.02    -0.01   0.00   0.01
  33   1    -0.03  -0.01   0.06     0.02   0.01  -0.01    -0.00   0.00   0.01
  34   1    -0.02  -0.00   0.04     0.02  -0.03  -0.08    -0.00  -0.01  -0.02
  35   1     0.00   0.07   0.02     0.06  -0.09  -0.03     0.02  -0.03  -0.00
  36   1    -0.01   0.02  -0.04     0.05  -0.05   0.00     0.01  -0.02  -0.00
  37   1    -0.04  -0.01   0.11    -0.03   0.01   0.04    -0.02   0.00   0.06
  38   1    -0.05   0.06   0.05    -0.04   0.07  -0.00    -0.02   0.05   0.03
  39   1    -0.00   0.08   0.01    -0.02  -0.04   0.04    -0.01   0.05   0.03
  40   1     0.08   0.09  -0.02    -0.02  -0.03  -0.06     0.05   0.06  -0.02
  41   1     0.10   0.01   0.05    -0.02  -0.09  -0.02     0.05  -0.02   0.02
                     22                     23                     24
                        a                      a                      a 
 Frequencies --   218.9800               219.1298               243.3444
 Red. masses --    18.3421                11.9411                15.9566
 Frc consts  --     0.0000                 0.0000                 0.0000
 IR Inten    --     4.8192                 8.7114                14.2132
 Raman Activ --     0.0000                 0.0000                 0.0000
 Depolar     --     0.0000                 0.0000                 0.0000
 Atom AN      X      Y      Z        X      Y      Z        X      Y      Z
   1   6    -0.01  -0.02   0.03     0.03   0.03  -0.03    -0.13  -0.08   0.16
   2   6     0.04   0.05   0.09     0.02  -0.00  -0.01    -0.10   0.04   0.09
   3   8    -0.09  -0.09  -0.10     0.02  -0.01  -0.01    -0.08  -0.01   0.03
   4  15    -0.08  -0.11  -0.14    -0.06   0.02   0.02     0.32  -0.08  -0.15
   5  16     0.02  -0.25  -0.06     0.05  -0.01  -0.01    -0.19   0.02   0.06
   6   8     0.27   0.20  -0.20     0.01   0.07  -0.01     0.02  -0.27  -0.08
   7   6     0.15   0.08  -0.12     0.01   0.00  -0.03     0.02  -0.04   0.02
   8   6     0.25  -0.06   0.17     0.01  -0.00   0.01    -0.01   0.02  -0.01
   9  16    -0.23   0.25   0.13    -0.05  -0.06   0.05     0.20   0.35  -0.19
  10   6    -0.17   0.12   0.16    -0.04  -0.02  -0.01    -0.02  -0.08   0.28
  11  16    -0.26  -0.05   0.02    -0.02   0.13  -0.20     0.01   0.00   0.02
  12  15     0.13  -0.02   0.07    -0.11   0.04  -0.12    -0.04  -0.00  -0.03
  13  16    -0.01   0.10  -0.08     0.15  -0.19   0.08     0.00  -0.06  -0.00
  14   8     0.08  -0.02   0.17    -0.26  -0.37   0.22    -0.05  -0.03  -0.08
  15   6     0.08  -0.00   0.08    -0.04  -0.09  -0.00    -0.04  -0.02  -0.07
  16   6     0.13  -0.13  -0.04    -0.02   0.06   0.02    -0.08   0.08   0.02
  17   8    -0.06   0.07  -0.12     0.15   0.13  -0.11     0.03   0.03  -0.04
  18   6    -0.03   0.04  -0.04     0.06   0.17   0.11     0.04   0.03  -0.01
  19   6    -0.07  -0.07  -0.02     0.09   0.10   0.09     0.01   0.02   0.01
  20   1     0.03   0.04   0.06    -0.01   0.01  -0.02     0.05   0.02   0.12
  21   1    -0.01  -0.09   0.02     0.01   0.02  -0.01    -0.08  -0.14   0.09
  22   1    -0.04   0.02  -0.06     0.01   0.00   0.00    -0.08   0.01  -0.04
  23   1     0.01   0.09   0.02     0.01  -0.00  -0.00    -0.03   0.04   0.02
  24   1     0.04  -0.01   0.08     0.00  -0.00  -0.00    -0.01   0.00   0.05
  25   1     0.02   0.02  -0.04     0.00  -0.01  -0.00    -0.01   0.03  -0.01
  26   1     0.02   0.03  -0.05     0.00   0.00  -0.03     0.02  -0.01   0.06
  27   1     0.01  -0.06   0.08     0.00  -0.03  -0.01    -0.04   0.20   0.13
  28   1     0.12  -0.01   0.07     0.00   0.02  -0.01     0.08  -0.17   0.09
  29   1     0.11  -0.02   0.08     0.01  -0.00   0.03    -0.06   0.02  -0.22
  30   1    -0.05   0.04   0.06     0.01  -0.01   0.01     0.01   0.01   0.21
  31   1    -0.06   0.01   0.04    -0.04  -0.01  -0.00    -0.08  -0.16   0.07
  32   1     0.01   0.02   0.02    -0.01   0.05   0.02    -0.00  -0.01  -0.02
  33   1     0.02   0.00   0.01     0.04  -0.06  -0.06    -0.01  -0.01  -0.02
  34   1     0.01  -0.03  -0.06     0.18   0.21  -0.16     0.01   0.04   0.02
  35   1     0.06  -0.07  -0.01    -0.02  -0.26  -0.06    -0.04   0.02  -0.00
  36   1     0.05  -0.05   0.00    -0.17   0.15   0.23    -0.05   0.04   0.02
  37   1    -0.01   0.01  -0.00    -0.01   0.02   0.08     0.01   0.00   0.00
  38   1    -0.01   0.02  -0.01     0.00   0.11   0.03     0.01   0.01   0.00
  39   1    -0.01  -0.03   0.02    -0.11   0.10   0.15    -0.07   0.04   0.07
  40   1    -0.03  -0.02  -0.02     0.14   0.14  -0.07     0.07   0.07  -0.04
  41   1    -0.03  -0.04  -0.01     0.05  -0.16   0.01     0.00  -0.09  -0.01
                     25                     26                     27
                        a                      a                      a 
 Frequencies --   211.5318               225.1974               251.9726
 Red. masses --     4.9724                 7.2892                11.1035
 Frc consts  --     0.0000                 0.0000                 0.0000
 IR Inten    --     3.7078                 4.8521                 2.4918
 Raman Activ --     0.0000                 0.0000                 0.0000
 Depolar     --     0.0000                 0.0000                 0.0000
 Atom AN      X      Y      Z        X      Y      Z        X      Y      Z
   1   6    -0.02  -0.01   0.01     0.02   0.04  -0.06    -0.02  -0.00  -0.00
   2   6    -0.01   0.03  -0.00     0.05   0.10  -0.03     0.03   0.11   0.05
   3   8    -0.00   0.07   0.03     0.05   0.22   0.09    -0.03   0.08  -0.02
   4  15     0.12  -0.05  -0.02     0.12  -0.12   0.05    -0.07  -0.09  -0.04
   5  16    -0.07   0.03  -0.01    -0.09   0.03  -0.09    -0.06  -0.14  -0.09
   6   8     0.01  -0.11  -0.04     0.03  -0.13  -0.09     0.03  -0.02   0.03
   7   6     0.00  -0.02   0.01     0.01  -0.03  -0.02     0.07   0.04   0.04
   8   6    -0.01   0.00  -0.00     0.01  -0.00   0.02     0.09  -0.02   0.05
   9  16     0.08   0.02  -0.01    -0.01  -0.10   0.09    -0.16   0.20  -0.01
  10   6    -0.08  -0.01  -0.06    -0.09   0.00  -0.10     0.11   0.03   0.29
  11  16    -0.13   0.05  -0.13    -0.21   0.10   0.08     0.27  -0.20   0.01
  12  15     0.06   0.07  -0.02     0.03  -0.03   0.07    -0.03   0.01  -0.06
  13  16     0.09   0.09   0.02    -0.02  -0.00  -0.02     0.01  -0.04  -0.00
  14   8     0.02  -0.04   0.06     0.04   0.03   0.07    -0.04  -0.04  -0.16
  15   6    -0.00  -0.09   0.09     0.05   0.02   0.06    -0.07  -0.04  -0.13
  16   6     0.07  -0.04  -0.01     0.08  -0.08  -0.01    -0.15   0.14   0.03
  17   8    -0.06  -0.06   0.10    -0.01   0.04  -0.04     0.03   0.02  -0.03
  18   6    -0.12  -0.01   0.08     0.04  -0.00  -0.09    -0.02   0.05   0.06
  19   6     0.01  -0.01  -0.03    -0.04  -0.02  -0.02     0.03   0.03   0.02
  20   1    -0.03  -0.05  -0.05    -0.16  -0.23  -0.29    -0.14  -0.21  -0.23
  21   1     0.01   0.06  -0.01     0.11   0.35  -0.12     0.08   0.28  -0.09
  22   1     0.00  -0.03   0.07     0.06  -0.12   0.33     0.01  -0.11   0.30
  23   1    -0.01  -0.00   0.00     0.00  -0.01   0.00     0.00   0.06   0.02
  24   1    -0.00   0.01  -0.01     0.01   0.04  -0.04     0.03   0.02   0.03
  25   1    -0.01   0.01  -0.01    -0.01   0.01  -0.02     0.02   0.02   0.01
  26   1     0.01  -0.01   0.02     0.01  -0.01   0.02     0.02   0.01   0.02
  27   1    -0.02   0.10   0.07    -0.05   0.18   0.14     0.05  -0.16  -0.09
  28   1     0.04  -0.09   0.05     0.10  -0.17   0.10    -0.04   0.13  -0.06
  29   1    -0.03   0.01  -0.11    -0.05   0.01  -0.20     0.08  -0.02   0.18
  30   1    -0.02  -0.00  -0.01    -0.03  -0.01  -0.07     0.05   0.02   0.16
  31   1    -0.03  -0.00  -0.02     0.00   0.04  -0.03    -0.02  -0.07   0.08
  32   1    -0.02  -0.04   0.02     0.01   0.01   0.02    -0.01  -0.02  -0.04
  33   1     0.00  -0.03   0.05     0.01   0.01   0.02    -0.01  -0.02  -0.04
  34   1     0.16   0.16  -0.18    -0.03  -0.05  -0.00     0.00   0.04   0.07
  35   1     0.05  -0.27  -0.05     0.04   0.01   0.01    -0.08   0.08   0.01
  36   1    -0.11   0.09   0.19     0.06  -0.05  -0.04    -0.07   0.06   0.00
  37   1    -0.04  -0.01   0.04     0.02   0.01  -0.04    -0.02   0.00   0.04
  38   1    -0.05   0.00   0.01     0.03  -0.02  -0.02    -0.01   0.04   0.02
  39   1     0.31  -0.16  -0.28    -0.13   0.05   0.12     0.08  -0.03  -0.06
  40   1    -0.26  -0.26   0.15     0.09   0.10  -0.07    -0.05  -0.05   0.04
  41   1     0.01   0.40   0.06    -0.02  -0.18  -0.04     0.02   0.10   0.03
                     28                     29                     30
                        a                      a                      a 
 Frequencies --   248.1984               262.7314               296.4549
 Red. masses --     9.1148                12.8718                16.6784
 Frc consts  --     0.0000                 0.0000                 0.0000
 IR Inten    --     4.8327                15.4905                 7.8851
 Raman Activ --     0.0000                 0.0000                 0.0000
 Depolar     --     0.0000                 0.0000                 0.0000
 Atom AN      X      Y      Z        X      Y      Z        X      Y      Z
   1   6     0.00   0.00   0.01     0.08   0.06  -0.09     0.00   0.00  -0.01
   2   6     0.00   0.01  -0.00     0.06  -0.12   0.03     0.01  -0.01   0.04
   3   8    -0.01   0.01  -0.01     0.08  -0.14   0.04     0.01  -0.06  -0.01
   4  15    -0.01   0.00  -0.01    -0.19   0.05   0.20    -0.06  -0.00   0.02
   5  16     0.00  -0.01  -0.00     0.13   0.06  -0.00     0.01  -0.03  -0.00
   6   8    -0.01  -0.00   0.03     0.02   0.21  -0.10     0.00   0.04  -0.00
   7   6    -0.00   0.01   0.03    -0.02  -0.04  -0.18     0.01  -0.00  -0.03
   8   6    -0.00   0.00  -0.00    -0.01   0.00   0.01     0.02  -0.00   0.01
   9  16     0.03  -0.03  -0.01    -0.30  -0.06   0.05    -0.08   0.10  -0.01
  10   6     0.04   0.01  -0.00     0.11   0.06   0.10     0.02   0.01   0.08
  11  16    -0.00  -0.10   0.29     0.23  -0.18   0.09     0.16   0.01  -0.40
  12  15     0.06  -0.01   0.12    -0.01   0.00  -0.01     0.06  -0.01  -0.16
  13  16    -0.06   0.10  -0.09    -0.01  -0.00  -0.02     0.01   0.12   0.10
  14   8     0.20   0.27  -0.31     0.01   0.01  -0.16     0.00   0.23   0.26
  15   6    -0.09  -0.11   0.06    -0.05  -0.05  -0.08    -0.17   0.17   0.17
  16   6    -0.03   0.03  -0.00    -0.09   0.09   0.03    -0.08   0.00  -0.06
  17   8    -0.05  -0.00   0.02     0.01   0.03  -0.04    -0.00  -0.36   0.28
  18   6     0.02  -0.06  -0.14    -0.02   0.05   0.02     0.03  -0.35  -0.03
  19   6    -0.09  -0.08  -0.06     0.00   0.00   0.01     0.04   0.06  -0.03
  20   1     0.01   0.00   0.01    -0.01   0.07   0.00    -0.03  -0.02  -0.03
  21   1    -0.00  -0.01   0.01     0.04  -0.00  -0.04     0.02   0.04  -0.02
  22   1    -0.00   0.00  -0.00     0.05   0.04  -0.08     0.01  -0.01   0.04
  23   1     0.00   0.00  -0.00     0.01  -0.04   0.01     0.00   0.01   0.01
  24   1     0.00   0.00   0.00     0.00  -0.03   0.01     0.01  -0.01   0.03
  25   1     0.00   0.01   0.01    -0.01  -0.05  -0.04     0.00  -0.01  -0.00
  26   1    -0.00   0.00   0.01    -0.01  -0.01  -0.10     0.00  -0.00  -0.02
  27   1     0.02  -0.07  -0.06    -0.11   0.29   0.24    -0.01   0.03   0.03
  28   1    -0.04   0.07  -0.04     0.18  -0.28   0.16     0.03  -0.03   0.02
  29   1     0.02  -0.00   0.08    -0.08   0.02  -0.33    -0.00   0.00  -0.03
  30   1    -0.01   0.00  -0.03     0.03   0.01   0.01     0.03   0.01   0.09
  31   1     0.05   0.02  -0.00     0.04   0.03   0.03    -0.06  -0.05   0.02
  32   1    -0.05  -0.14  -0.02    -0.00  -0.03  -0.03    -0.08   0.04   0.04
  33   1    -0.06  -0.00   0.12    -0.01  -0.01  -0.01    -0.07   0.06   0.07
  34   1     0.21   0.25  -0.23     0.02   0.05   0.03    -0.03   0.04  -0.10
  35   1     0.01  -0.34  -0.07    -0.05   0.02  -0.00     0.02  -0.08  -0.02
  36   1    -0.21   0.17   0.26    -0.07   0.06   0.03    -0.03   0.01   0.02
  37   1     0.02   0.00  -0.08    -0.01   0.01   0.02     0.02  -0.08  -0.08
  38   1     0.02  -0.06  -0.04    -0.01   0.03   0.01     0.02  -0.17  -0.01
  39   1    -0.14   0.03   0.11     0.04  -0.02  -0.02    -0.13   0.09  -0.01
  40   1     0.07   0.07  -0.07    -0.03  -0.03   0.01     0.13   0.12  -0.00
  41   1    -0.05  -0.19  -0.06     0.00   0.04   0.01     0.03  -0.05  -0.01
                     31                     32                     33
                        a                      a                      a 
 Frequencies --   309.2895               340.7634               344.7460
 Red. masses --    12.7003                17.0063                17.3621
 Frc consts  --     0.0000                 0.0000                 0.0000
 IR Inten    --    15.0183                 2.3007                17.6401
 Raman Activ --     0.0000                 0.0000                 0.0000
 Depolar     --     0.0000                 0.0000                 0.0000
 Atom AN      X      Y      Z        X      Y      Z        X      Y      Z
   1   6     0.06   0.03  -0.09     0.08   0.05  -0.09     0.06   0.03  -0.08
   2   6    -0.02   0.08  -0.36     0.03  -0.11  -0.04     0.03  -0.08  -0.04
   3   8    -0.14   0.53   0.03     0.05   0.15   0.24     0.03   0.12   0.16
   4  15    -0.08  -0.06  -0.03     0.26  -0.21   0.20     0.16  -0.14   0.14
   5  16    -0.07  -0.07  -0.11    -0.07   0.07  -0.08    -0.05   0.04  -0.06
   6   8    -0.08  -0.18   0.24     0.17  -0.07  -0.34     0.10  -0.05  -0.22
   7   6     0.24  -0.11   0.07    -0.15   0.14  -0.00    -0.09   0.09  -0.01
   8   6     0.24  -0.03   0.11    -0.14   0.02  -0.04    -0.08   0.01  -0.02
   9  16    -0.13  -0.06   0.13    -0.19  -0.01   0.05    -0.16   0.01   0.04
  10   6     0.02   0.01   0.05    -0.04   0.05   0.04     0.04   0.01   0.12
  11  16     0.07  -0.04  -0.02    -0.05  -0.07   0.02     0.10   0.04  -0.05
  12  15     0.01   0.00  -0.02     0.15   0.08   0.04    -0.17  -0.16  -0.11
  13  16     0.02   0.00   0.01     0.19   0.17  -0.02    -0.27  -0.26   0.03
  14   8    -0.01   0.00   0.01    -0.03  -0.18   0.10     0.05   0.29  -0.11
  15   6    -0.03   0.01  -0.01    -0.08  -0.05  -0.12     0.06   0.10   0.17
  16   6    -0.04   0.03   0.00    -0.15   0.14   0.02     0.16  -0.16  -0.04
  17   8     0.00  -0.02   0.01     0.03  -0.08   0.12    -0.03   0.08  -0.21
  18   6     0.00  -0.02   0.00    -0.03  -0.06  -0.09     0.06   0.06   0.16
  19   6     0.00   0.01   0.00    -0.09  -0.09  -0.07     0.16   0.16   0.11
  20   1     0.13   0.10   0.10     0.02   0.10   0.04     0.01   0.07   0.02
  21   1    -0.07  -0.12   0.06     0.01  -0.05  -0.02     0.01  -0.03  -0.02
  22   1     0.02   0.06  -0.16     0.05   0.05  -0.13     0.04   0.03  -0.09
  23   1     0.01  -0.10  -0.11     0.00  -0.11  -0.00     0.00  -0.08  -0.00
  24   1    -0.04   0.08  -0.22    -0.02   0.00  -0.08    -0.01   0.00  -0.06
  25   1     0.09  -0.07   0.04    -0.08   0.14  -0.05    -0.05   0.09  -0.03
  26   1     0.09  -0.03  -0.02    -0.07   0.04   0.11    -0.04   0.02   0.07
  27   1     0.04   0.03   0.08    -0.01  -0.08  -0.09    -0.01  -0.06  -0.05
  28   1     0.12  -0.04   0.06    -0.11   0.08  -0.06    -0.06   0.05  -0.04
  29   1     0.05  -0.01  -0.01     0.00   0.00   0.08     0.01   0.00   0.05
  30   1     0.01  -0.00   0.01    -0.02   0.01  -0.01     0.03   0.00   0.06
  31   1     0.00   0.01   0.01     0.00   0.03   0.01    -0.02  -0.02   0.03
  32   1    -0.01   0.00  -0.00    -0.02   0.02  -0.03     0.01  -0.02   0.03
  33   1    -0.01   0.00  -0.00    -0.01  -0.03  -0.06    -0.01   0.05   0.09
  34   1    -0.00   0.01   0.01     0.00   0.03   0.08    -0.01  -0.03  -0.11
  35   1    -0.02   0.01   0.00    -0.08   0.10   0.01     0.10  -0.12  -0.01
  36   1    -0.02   0.01   0.00    -0.07   0.06  -0.01     0.08  -0.07   0.02
  37   1    -0.00  -0.01  -0.00    -0.00  -0.01  -0.05     0.00  -0.00   0.08
  38   1     0.00  -0.01   0.00    -0.01  -0.04  -0.03     0.01   0.07   0.05
  39   1    -0.01   0.01  -0.00    -0.03  -0.03   0.02     0.04   0.05  -0.04
  40   1     0.01   0.01   0.00    -0.03  -0.03  -0.02     0.05   0.05   0.05
  41   1     0.00   0.00   0.00    -0.05  -0.05  -0.03     0.08   0.10   0.06
                     34                     35                     36
                        a                      a                      a 
 Frequencies --   382.3450               417.6357               427.9793
 Red. masses --    18.7975                16.0767                18.8544
 Frc consts  --     0.0000                 0.0000                 0.0000
 IR Inten    --     6.5473                 7.6589                30.5397
 Raman Activ --     0.0000                 0.0000                 0.0000
 Depolar     --     0.0000                 0.0000                 0.0000
 Atom AN      X      Y      Z        X      Y      Z        X      Y      Z
   1   6     0.02   0.02  -0.03     0.16   0.10  -0.17     0.00   0.00  -0.00
   2   6     0.01  -0.03   0.00     0.13  -0.24   0.16     0.00  -0.00   0.00
   3   8    -0.02   0.03   0.04    -0.29  -0.02   0.17    -0.02  -0.01  -0.01
   4  15    -0.04  -0.03   0.06    -0.22  -0.00   0.19     0.00   0.00  -0.01
   5  16    -0.01  -0.02  -0.02    -0.03  -0.01  -0.01    -0.00  -0.00   0.00
   6   8    -0.00  -0.00  -0.02    -0.33  -0.20  -0.08     0.01   0.01   0.02
   7   6    -0.01   0.02  -0.01     0.04   0.16  -0.17    -0.00  -0.01   0.01
   8   6     0.00   0.00   0.01     0.19  -0.03   0.12    -0.01   0.00  -0.01
   9  16    -0.02   0.06  -0.02     0.32   0.14  -0.20     0.04  -0.01  -0.01
  10   6     0.05  -0.00   0.07    -0.02  -0.02  -0.06    -0.03   0.00   0.01
  11  16     0.14  -0.09  -0.13    -0.04   0.04   0.03    -0.08  -0.12   0.35
  12  15    -0.36   0.41   0.06     0.03  -0.03   0.01     0.01   0.08  -0.35
  13  16     0.13   0.02   0.00    -0.01   0.00  -0.00     0.21   0.23   0.01
  14   8    -0.18  -0.12  -0.25     0.01  -0.00   0.02    -0.08  -0.11   0.00
  15   6     0.24  -0.10   0.05    -0.01   0.00  -0.01     0.04  -0.06  -0.03
  16   6     0.30  -0.20   0.03    -0.02   0.01  -0.00     0.03  -0.02   0.00
  17   8    -0.17   0.07   0.35     0.01   0.00  -0.03    -0.46  -0.01  -0.22
  18   6    -0.00  -0.03  -0.09    -0.00   0.01   0.00     0.03  -0.30   0.16
  19   6    -0.07  -0.06  -0.06     0.00   0.00   0.00     0.19   0.18   0.09
  20   1    -0.01   0.02  -0.00    -0.11   0.11  -0.05    -0.00   0.00  -0.00
  21   1     0.01   0.00  -0.01     0.13   0.07  -0.12     0.00   0.00  -0.00
  22   1     0.02   0.01  -0.02     0.12   0.05  -0.11     0.00   0.00   0.00
  23   1     0.00  -0.02   0.00     0.04  -0.03   0.04     0.00   0.00  -0.00
  24   1     0.00  -0.00  -0.01     0.05  -0.07   0.05     0.00  -0.00   0.00
  25   1    -0.00   0.01  -0.00     0.02   0.07  -0.05     0.00  -0.01   0.01
  26   1    -0.00   0.00   0.00     0.02   0.04   0.00    -0.00  -0.00  -0.00
  27   1    -0.00  -0.01   0.00    -0.05  -0.10   0.08     0.00   0.01  -0.00
  28   1     0.00   0.00   0.00     0.13   0.00   0.06    -0.01  -0.00  -0.00
  29   1     0.01  -0.00   0.01     0.14  -0.01   0.09    -0.01   0.00  -0.01
  30   1     0.03   0.01   0.06    -0.02   0.01   0.01    -0.04  -0.00  -0.04
  31   1    -0.02  -0.04   0.02    -0.00  -0.04  -0.02     0.05   0.03   0.00
  32   1     0.10  -0.03   0.02    -0.01   0.00  -0.00     0.02   0.00  -0.00
  33   1     0.10  -0.05  -0.00    -0.01   0.00  -0.00     0.02  -0.03  -0.02
  34   1     0.04  -0.07  -0.04    -0.00   0.00   0.00     0.01  -0.01   0.01
  35   1     0.12  -0.08   0.01    -0.01   0.01  -0.00     0.00   0.00   0.00
  36   1     0.13  -0.09   0.01    -0.01   0.01  -0.00     0.01  -0.00  -0.00
  37   1     0.05   0.04  -0.09    -0.00  -0.00   0.00     0.06  -0.04   0.01
  38   1     0.01  -0.11  -0.03    -0.00   0.01   0.00     0.03  -0.12   0.05
  39   1    -0.05  -0.01   0.05     0.00   0.00   0.00    -0.07   0.13  -0.11
  40   1     0.00   0.01  -0.04    -0.00   0.00   0.00     0.15   0.14   0.07
  41   1    -0.04  -0.08  -0.04     0.00   0.00   0.00     0.13   0.09   0.08
                     37                     38                     39
                        a                      a                      a 
 Frequencies --   433.1165               439.3688               483.9513
 Red. masses --    18.0192                22.2645                20.2781
 Frc consts  --     0.0000                 0.0000                 0.0000
 IR Inten    --    46.2130               130.1030               137.9736
 Raman Activ --     0.0000                 0.0000                 0.0000
 Depolar     --     0.0000                 0.0000                 0.0000
 Atom AN      X      Y      Z        X      Y      Z        X      Y      Z
   1   6    -0.09  -0.06   0.09    -0.02  -0.01   0.02    -0.14  -0.07   0.12
   2   6    -0.06   0.09  -0.03    -0.02   0.02  -0.01    -0.11   0.15  -0.13
   3   8     0.21  -0.15  -0.13     0.06  -0.02  -0.02     0.56   0.05   0.03
   4  15     0.14   0.13  -0.11     0.00   0.01  -0.00    -0.28  -0.11   0.38
   5  16     0.08   0.30   0.15     0.01   0.04   0.02    -0.08  -0.22  -0.17
   6   8    -0.33  -0.36  -0.18    -0.05  -0.06  -0.03    -0.09   0.07  -0.07
   7   6     0.04   0.20  -0.20     0.00   0.03  -0.04    -0.05   0.11  -0.14
   8   6     0.21  -0.02   0.13     0.03  -0.00   0.02     0.03  -0.00   0.02
   9  16    -0.27  -0.17   0.16    -0.01  -0.02  -0.00     0.26   0.12  -0.14
  10   6     0.03  -0.02  -0.01    -0.02  -0.00   0.04    -0.03   0.03  -0.01
  11  16     0.05  -0.01  -0.06    -0.03  -0.14   0.40    -0.02   0.02  -0.00
  12  15     0.01   0.01   0.06    -0.16   0.11  -0.53     0.01  -0.02   0.03
  13  16     0.00   0.01  -0.00     0.09   0.05   0.02    -0.01   0.00  -0.00
  14   8     0.01  -0.02  -0.02    -0.18   0.08   0.07     0.02  -0.00   0.01
  15   6     0.01  -0.03  -0.02    -0.04   0.16   0.17     0.00  -0.01  -0.01
  16   6     0.00   0.00   0.01     0.05  -0.05  -0.02    -0.01   0.00   0.00
  17   8    -0.09   0.02   0.00     0.46  -0.16   0.05    -0.03   0.01  -0.02
  18   6     0.00  -0.03   0.01    -0.03   0.10  -0.08     0.00  -0.01   0.01
  19   6     0.02   0.02   0.01    -0.10  -0.09  -0.05     0.01   0.01   0.00
  20   1     0.04  -0.06   0.01     0.01  -0.01   0.01     0.10  -0.08   0.04
  21   1    -0.06  -0.03   0.05    -0.02  -0.01   0.02    -0.12  -0.07   0.10
  22   1    -0.06  -0.03   0.06    -0.02  -0.01   0.01    -0.11  -0.03   0.07
  23   1    -0.02   0.04  -0.00    -0.01   0.00  -0.00    -0.06  -0.07  -0.01
  24   1    -0.02   0.01   0.02    -0.01   0.01  -0.00    -0.08   0.07  -0.10
  25   1     0.00   0.12  -0.08     0.00   0.02  -0.01    -0.01   0.04  -0.04
  26   1     0.03   0.05   0.04     0.00   0.01   0.01    -0.01   0.03  -0.02
  27   1    -0.06  -0.12   0.08    -0.01  -0.02   0.01    -0.05  -0.04   0.03
  28   1     0.13   0.01   0.06     0.02   0.00   0.01     0.05  -0.00   0.02
  29   1     0.16  -0.01   0.11     0.03  -0.00   0.02     0.05  -0.00   0.03
  30   1     0.01  -0.02  -0.04    -0.03  -0.00  -0.03    -0.01   0.02   0.03
  31   1     0.01   0.04   0.00     0.05   0.03   0.01    -0.01  -0.03  -0.01
  32   1     0.01  -0.01  -0.01    -0.01   0.04   0.05    -0.00  -0.00  -0.00
  33   1     0.00  -0.01  -0.01    -0.00   0.04   0.04    -0.00  -0.00  -0.00
  34   1     0.01   0.00   0.01    -0.05  -0.02  -0.08     0.00   0.00   0.01
  35   1    -0.01   0.01   0.00     0.06  -0.05  -0.00    -0.01   0.00   0.00
  36   1    -0.01   0.00   0.00     0.06  -0.05  -0.01    -0.00   0.00  -0.00
  37   1     0.01   0.00  -0.01    -0.06  -0.03   0.02     0.00  -0.00   0.00
  38   1     0.00  -0.03   0.00    -0.02   0.10  -0.02     0.00  -0.00   0.00
  39   1    -0.01   0.02  -0.01     0.04  -0.07   0.04    -0.00   0.01  -0.01
  40   1     0.02   0.02   0.01    -0.09  -0.08  -0.03     0.01   0.01   0.00
  41   1     0.01   0.01   0.01    -0.07  -0.03  -0.04     0.01   0.01   0.00
                     40                     41                     42
                        a                      a                      a 
 Frequencies --   612.3912               646.1074               671.0716
 Red. masses --    25.2947                25.3251                18.3664
 Frc consts  --     0.0000                 0.0000                 0.0000
 IR Inten    --   165.8892               199.3836                13.1184
 Raman Activ --     0.0000                 0.0000                 0.0000
 Depolar     --     0.0000                 0.0000                 0.0000
 Atom AN      X      Y      Z        X      Y      Z        X      Y      Z
   1   6     0.01   0.01  -0.01    -0.00  -0.00  -0.00     0.00   0.00  -0.00
   2   6    -0.01   0.11  -0.14    -0.00   0.00  -0.00     0.00   0.04  -0.04
   3   8    -0.13  -0.05  -0.24    -0.00  -0.01   0.00    -0.02  -0.02  -0.04
   4  15    -0.40  -0.40   0.14     0.03   0.03  -0.00    -0.09  -0.16   0.06
   5  16     0.21   0.46   0.21    -0.01  -0.02  -0.01     0.05   0.09   0.04
   6   8     0.22  -0.18  -0.17    -0.01   0.00   0.01     0.04   0.01  -0.04
   7   6     0.06  -0.11   0.12    -0.00   0.01  -0.01     0.01  -0.01   0.02
   8   6     0.00   0.00   0.00    -0.00  -0.00  -0.00     0.00   0.00   0.00
   9  16     0.13  -0.03  -0.11     0.02  -0.04  -0.02    -0.14   0.46   0.21
  10   6    -0.05   0.17   0.09    -0.15   0.05   0.02     0.06  -0.61  -0.45
  11  16    -0.02   0.00  -0.01     0.05  -0.03   0.06     0.11   0.00   0.09
  12  15     0.01  -0.00   0.00     0.27   0.39  -0.36     0.01   0.02  -0.04
  13  16    -0.01  -0.01   0.00    -0.36  -0.40   0.08    -0.02  -0.02   0.00
  14   8     0.01   0.00   0.00     0.29  -0.01   0.20     0.04   0.00   0.03
  15   6     0.00  -0.00  -0.00     0.04  -0.13  -0.12     0.01  -0.02  -0.02
  16   6    -0.00   0.00   0.00    -0.01   0.00  -0.01    -0.00  -0.00  -0.00
  17   8    -0.00   0.01   0.00    -0.16   0.09   0.24    -0.01   0.01   0.01
  18   6     0.00   0.01   0.00     0.02   0.09  -0.01    -0.00   0.01   0.00
  19   6     0.00   0.00   0.00     0.01   0.00  -0.01     0.00   0.00   0.00
  20   1     0.06  -0.03  -0.01     0.00  -0.00  -0.00     0.02  -0.01  -0.00
  21   1    -0.03  -0.00   0.02    -0.00   0.00   0.00    -0.01  -0.00   0.01
  22   1    -0.01  -0.01   0.03     0.00  -0.00   0.00    -0.01  -0.00   0.01
  23   1     0.01   0.07  -0.05     0.00  -0.00  -0.00     0.00   0.02  -0.01
  24   1     0.01   0.01   0.00     0.00  -0.00   0.00    -0.00   0.01  -0.00
  25   1    -0.01   0.03  -0.00    -0.00  -0.00   0.00    -0.00   0.01  -0.00
  26   1     0.02  -0.03   0.10    -0.00   0.00  -0.00    -0.00  -0.00   0.01
  27   1     0.07   0.04  -0.03    -0.00  -0.00   0.00     0.01   0.01  -0.00
  28   1    -0.04   0.02  -0.02     0.00  -0.00   0.00    -0.00   0.00  -0.00
  29   1    -0.05   0.00  -0.01     0.00  -0.00   0.00    -0.01   0.00  -0.00
  30   1    -0.00   0.04   0.04    -0.04   0.00  -0.02     0.02  -0.13  -0.04
  31   1    -0.02  -0.00   0.02     0.00   0.03   0.00    -0.03  -0.16  -0.12
  32   1    -0.00  -0.00  -0.00    -0.01  -0.03  -0.04    -0.00  -0.00  -0.01
  33   1    -0.00   0.00   0.00    -0.02  -0.01  -0.01    -0.00  -0.00  -0.00
  34   1     0.00   0.00   0.00     0.07   0.01   0.07     0.01   0.00   0.01
  35   1    -0.00   0.00  -0.00    -0.06   0.04  -0.01    -0.01   0.01  -0.00
  36   1    -0.00   0.00   0.00    -0.06   0.04   0.00    -0.01   0.01   0.00
  37   1     0.00   0.00  -0.00     0.05   0.07  -0.06     0.00   0.01  -0.00
  38   1     0.00  -0.00  -0.00     0.02  -0.06  -0.00     0.00  -0.00  -0.00
  39   1     0.00  -0.00   0.00     0.02  -0.01   0.04     0.00  -0.00   0.00
  40   1    -0.00  -0.00  -0.00    -0.02  -0.01  -0.03    -0.00  -0.00  -0.00
  41   1    -0.00  -0.00  -0.00    -0.01  -0.03  -0.01    -0.00  -0.00  -0.00
                     43                     44                     45
                        a                      a                      a 
 Frequencies --   705.1815               737.0220               754.6825
 Red. masses --    17.1596                18.9783                18.6154
 Frc consts  --     0.0000                 0.0000                 0.0000
 IR Inten    --    40.1375               221.0601                68.1356
 Raman Activ --     0.0000                 0.0000                 0.0000
 Depolar     --     0.0000                 0.0000                 0.0000
 Atom AN      X      Y      Z        X      Y      Z        X      Y      Z
   1   6    -0.00  -0.00   0.00     0.06   0.01  -0.05    -0.00  -0.00   0.00
   2   6     0.00  -0.01   0.01    -0.02   0.15  -0.20     0.00  -0.01   0.01
   3   8     0.01   0.01   0.01    -0.27  -0.11  -0.24     0.01   0.02   0.01
   4  15     0.02   0.05  -0.03     0.40  -0.37   0.27     0.02  -0.10  -0.05
   5  16    -0.01  -0.02  -0.01     0.00   0.03   0.01     0.02   0.04   0.02
   6   8     0.02  -0.02  -0.02    -0.22   0.28   0.25    -0.03   0.05   0.05
   7   6     0.01  -0.01   0.01    -0.10   0.20  -0.15    -0.02   0.04  -0.02
   8   6     0.00  -0.00   0.00    -0.07   0.00  -0.03    -0.01   0.00  -0.01
   9  16     0.01  -0.04   0.00     0.02  -0.02  -0.03     0.00  -0.00  -0.00
  10   6    -0.78   0.09  -0.15    -0.05   0.04   0.02    -0.01   0.01  -0.01
  11  16     0.50   0.00   0.09     0.02  -0.00   0.00    -0.01  -0.01   0.01
  12  15    -0.08  -0.08   0.08     0.02  -0.05  -0.01    -0.03   0.53   0.25
  13  16     0.05   0.06  -0.02     0.01   0.01  -0.00    -0.11  -0.15   0.01
  14   8     0.01   0.00  -0.03    -0.03  -0.00  -0.02     0.05  -0.02   0.03
  15   6    -0.00   0.01   0.01    -0.00   0.01   0.01     0.01  -0.02  -0.02
  16   6    -0.00   0.00   0.00    -0.00   0.00   0.00     0.01  -0.01   0.00
  17   8     0.03   0.00  -0.04    -0.02   0.01   0.03     0.31  -0.08  -0.37
  18   6    -0.00  -0.02  -0.00     0.01   0.04  -0.00    -0.06  -0.42   0.01
  19   6    -0.00  -0.00   0.00     0.01   0.00   0.00    -0.09  -0.07  -0.06
  20   1    -0.01   0.00   0.00     0.11  -0.04  -0.02    -0.01   0.00   0.00
  21   1     0.00   0.00  -0.00    -0.04   0.01   0.04     0.00   0.00  -0.00
  22   1     0.00   0.00  -0.00     0.01  -0.01   0.03     0.00   0.00  -0.00
  23   1    -0.00  -0.00   0.00     0.01   0.15  -0.06    -0.00  -0.01   0.01
  24   1     0.00  -0.00   0.00     0.04   0.00   0.03     0.00  -0.00  -0.00
  25   1    -0.00   0.01  -0.00     0.01  -0.09   0.02    -0.00  -0.02   0.01
  26   1    -0.00  -0.00   0.01     0.00   0.06  -0.19     0.00   0.01  -0.04
  27   1     0.01   0.00  -0.00    -0.13  -0.08   0.04    -0.02  -0.02   0.01
  28   1    -0.00   0.00  -0.00     0.03  -0.05   0.03     0.00  -0.01   0.00
  29   1    -0.01   0.00   0.00     0.11  -0.00   0.00     0.02  -0.00  -0.00
  30   1    -0.15   0.01   0.01    -0.01   0.01   0.00     0.01   0.00   0.01
  31   1    -0.19  -0.03  -0.04    -0.01   0.00   0.00    -0.00  -0.01  -0.00
  32   1     0.00  -0.00  -0.00     0.00   0.00   0.00    -0.00  -0.01  -0.01
  33   1    -0.00   0.00  -0.00     0.00   0.00   0.00    -0.00   0.00  -0.00
  34   1    -0.00   0.00  -0.00    -0.01  -0.00  -0.01     0.02  -0.00   0.02
  35   1     0.00  -0.00  -0.00     0.01  -0.00   0.00    -0.01   0.01  -0.00
  36   1     0.00  -0.00   0.00     0.01  -0.00  -0.00    -0.01   0.01   0.00
  37   1    -0.01  -0.01   0.01     0.01   0.02  -0.01    -0.07  -0.18   0.15
  38   1    -0.01   0.01  -0.00     0.00  -0.00  -0.00    -0.06   0.09   0.00
  39   1    -0.00   0.00  -0.01     0.01  -0.00   0.01    -0.15   0.06  -0.18
  40   1     0.00   0.00   0.01    -0.01  -0.00  -0.01     0.08   0.05   0.11
  41   1    -0.00   0.00   0.00     0.00  -0.01  -0.00    -0.00   0.08   0.01
                     46                     47                     48
                        a                      a                      a 
 Frequencies --   767.4309               785.7340               795.2949
 Red. masses --    21.7362                19.7650                 6.1242
 Frc consts  --     0.0000                 0.0000                 0.0000
 IR Inten    --   348.9107               257.3495                 1.8616
 Raman Activ --     0.0000                 0.0000                 0.0000
 Depolar     --     0.0000                 0.0000                 0.0000
 Atom AN      X      Y      Z        X      Y      Z        X      Y      Z
   1   6    -0.07  -0.02   0.06    -0.00   0.00   0.00     0.01  -0.00  -0.01
   2   6     0.03  -0.13   0.19     0.00  -0.00   0.01    -0.01   0.01  -0.02
   3   8     0.24   0.17   0.24     0.02  -0.00   0.01    -0.03  -0.02  -0.02
   4  15    -0.10  -0.45  -0.49    -0.02   0.01  -0.01     0.04   0.09   0.05
   5  16     0.10   0.22   0.10     0.00   0.00   0.00    -0.01  -0.03  -0.02
   6   8    -0.10   0.18   0.21     0.01  -0.01  -0.01     0.00  -0.03  -0.01
   7   6    -0.07   0.14  -0.10     0.00  -0.01   0.00     0.00  -0.01   0.00
   8   6    -0.04   0.00  -0.02     0.00  -0.00   0.00     0.00   0.00   0.00
   9  16     0.03  -0.00   0.00    -0.00  -0.00   0.01    -0.04  -0.11   0.08
  10   6    -0.02   0.07  -0.03    -0.03   0.03  -0.07     0.15   0.33  -0.38
  11  16    -0.00  -0.01   0.01     0.02  -0.02   0.04    -0.08  -0.08   0.11
  12  15    -0.00  -0.07  -0.04     0.60   0.09   0.06    -0.03   0.00  -0.04
  13  16     0.02   0.02  -0.00    -0.13  -0.14   0.03     0.01   0.01  -0.00
  14   8     0.01   0.01   0.01    -0.46  -0.14  -0.34     0.04   0.03   0.06
  15   6     0.00  -0.01  -0.00    -0.09   0.20   0.21     0.02  -0.04  -0.03
  16   6    -0.00  -0.00  -0.00    -0.05   0.07   0.03     0.01  -0.01  -0.01
  17   8    -0.05   0.02   0.05    -0.06   0.02   0.02    -0.00  -0.01  -0.00
  18   6     0.01   0.06  -0.00    -0.01  -0.01   0.01     0.01   0.01  -0.00
  19   6     0.01   0.01   0.01    -0.00  -0.01  -0.01     0.00   0.00   0.00
  20   1    -0.11   0.05   0.02    -0.00   0.00   0.00     0.02  -0.00  -0.00
  21   1     0.05  -0.01  -0.04     0.00  -0.00  -0.00    -0.01   0.01   0.01
  22   1    -0.02   0.02  -0.04    -0.00   0.00  -0.00     0.01  -0.00   0.00
  23   1     0.00  -0.17   0.06     0.00  -0.01   0.00    -0.01   0.03  -0.00
  24   1    -0.05   0.01  -0.05    -0.00   0.00  -0.00     0.02  -0.01   0.01
  25   1     0.00  -0.08   0.02     0.00   0.00  -0.00    -0.00   0.01  -0.00
  26   1     0.02   0.04  -0.15    -0.00  -0.00   0.01    -0.00  -0.00   0.01
  27   1    -0.09  -0.06   0.03     0.00   0.00  -0.00     0.01   0.00  -0.00
  28   1     0.01  -0.04   0.02     0.00   0.00  -0.00    -0.00   0.00  -0.00
  29   1     0.08  -0.00  -0.00    -0.00  -0.00   0.00    -0.00   0.00  -0.00
  30   1     0.04   0.02   0.07     0.02   0.02   0.05     0.23   0.20   0.49
  31   1    -0.04  -0.06  -0.01    -0.03  -0.05  -0.02    -0.28  -0.46  -0.14
  32   1    -0.00  -0.00  -0.00     0.06   0.07   0.08    -0.01  -0.00  -0.01
  33   1    -0.00  -0.00   0.00     0.03   0.01  -0.02    -0.00  -0.00   0.00
  34   1     0.00   0.00   0.00    -0.19   0.01  -0.18     0.03  -0.00   0.03
  35   1    -0.00   0.00  -0.00     0.14  -0.08   0.03    -0.02   0.01  -0.00
  36   1    -0.00   0.00   0.00     0.09  -0.06  -0.03    -0.01   0.01   0.00
  37   1     0.01   0.03  -0.02     0.01   0.02  -0.02    -0.00  -0.00   0.00
  38   1     0.01  -0.01   0.00     0.00  -0.03   0.00    -0.00   0.01  -0.00
  39   1     0.02  -0.01   0.03    -0.01   0.00  -0.01     0.00  -0.00   0.00
  40   1    -0.01  -0.01  -0.02     0.00   0.00   0.00    -0.00  -0.00   0.00
  41   1    -0.00  -0.01  -0.00     0.00   0.00   0.00    -0.00  -0.00  -0.00
                     49                     50                     51
                        a                      a                      a 
 Frequencies --   818.7106               819.9566               822.6477
 Red. masses --     2.9268                 3.0117                 2.9543
 Frc consts  --     0.0000                 0.0000                 0.0000
 IR Inten    --     2.2092                 2.6516                 1.3695
 Raman Activ --     0.0000                 0.0000                 0.0000
 Depolar     --     0.0000                 0.0000                 0.0000
 Atom AN      X      Y      Z        X      Y      Z        X      Y      Z
   1   6     0.06   0.06   0.05     0.03   0.03   0.02     0.01   0.01   0.01
   2   6     0.11   0.19   0.12     0.05   0.10   0.05     0.02   0.04   0.02
   3   8    -0.11  -0.12  -0.07    -0.07  -0.05  -0.02    -0.03  -0.02  -0.01
   4  15     0.02   0.06   0.07     0.06  -0.07  -0.01     0.01  -0.00   0.01
   5  16    -0.01  -0.02  -0.01     0.00   0.01   0.00    -0.00  -0.00  -0.00
   6   8     0.01  -0.06  -0.08    -0.04   0.12   0.15    -0.00   0.01   0.01
   7   6    -0.01   0.07   0.09     0.03  -0.16  -0.19     0.00  -0.01  -0.01
   8   6     0.01   0.03   0.04    -0.01  -0.07  -0.07    -0.00  -0.01  -0.01
   9  16    -0.00  -0.00  -0.00     0.01  -0.00  -0.01    -0.00  -0.00   0.00
  10   6     0.00   0.00  -0.01     0.00   0.01   0.00    -0.00   0.01  -0.01
  11  16    -0.00  -0.00   0.00    -0.00  -0.00   0.00    -0.00  -0.00   0.01
  12  15    -0.00  -0.00  -0.00    -0.00  -0.00  -0.01    -0.02   0.05   0.05
  13  16     0.00   0.00  -0.00     0.00   0.00   0.00    -0.01  -0.01  -0.00
  14   8     0.00   0.01   0.00     0.00   0.01   0.00     0.00  -0.03   0.01
  15   6    -0.01  -0.01   0.00    -0.00  -0.01   0.01     0.02   0.06  -0.02
  16   6    -0.00  -0.01   0.00    -0.00  -0.00   0.00     0.01   0.03  -0.01
  17   8    -0.02  -0.00   0.01    -0.02  -0.00   0.01     0.17   0.01  -0.12
  18   6     0.03  -0.00  -0.02     0.03  -0.00  -0.02    -0.22  -0.00   0.17
  19   6     0.01  -0.00  -0.01     0.01   0.00  -0.01    -0.10   0.01   0.04
  20   1    -0.04  -0.09  -0.10    -0.01  -0.04  -0.05    -0.01  -0.02  -0.02
  21   1     0.26  -0.22  -0.19     0.12  -0.10  -0.09     0.05  -0.04  -0.04
  22   1    -0.39   0.04  -0.01    -0.18   0.02  -0.01    -0.08   0.01  -0.00
  23   1     0.23  -0.34  -0.15     0.10  -0.15  -0.07     0.05  -0.07  -0.03
  24   1    -0.38   0.13  -0.14    -0.18   0.06  -0.06    -0.08   0.03  -0.03
  25   1    -0.12  -0.17   0.04     0.24   0.35  -0.08     0.02   0.03  -0.01
  26   1     0.15   0.02  -0.13    -0.31  -0.04   0.28    -0.02  -0.00   0.02
  27   1     0.04  -0.04  -0.05    -0.08   0.08   0.09    -0.00   0.01   0.01
  28   1    -0.15  -0.12  -0.01     0.31   0.26   0.02     0.02   0.02   0.00
  29   1     0.15   0.01  -0.08    -0.33  -0.02   0.17    -0.02  -0.00   0.01
  30   1     0.00   0.00   0.01     0.00   0.00   0.01     0.00   0.00   0.01
  31   1    -0.01  -0.01  -0.00    -0.00  -0.01  -0.00    -0.00  -0.01  -0.00
  32   1     0.02   0.01   0.01     0.02   0.01   0.01    -0.09  -0.05  -0.05
  33   1    -0.01   0.00  -0.02    -0.01   0.00  -0.03     0.04  -0.01   0.11
  34   1     0.01   0.00  -0.00     0.01   0.00  -0.00    -0.03  -0.02   0.01
  35   1     0.02   0.00   0.01     0.02   0.01   0.01    -0.09  -0.02  -0.03
  36   1    -0.01   0.01  -0.02    -0.01   0.01  -0.02     0.06  -0.04   0.08
  37   1     0.00  -0.01   0.06     0.00  -0.01   0.06    -0.03   0.08  -0.43
  38   1    -0.04   0.03  -0.03    -0.04   0.03  -0.03     0.32  -0.26   0.22
  39   1    -0.01   0.01   0.02    -0.01   0.01   0.02     0.06  -0.04  -0.14
  40   1     0.01   0.00   0.05     0.01   0.00   0.05    -0.10  -0.00  -0.38
  41   1    -0.05   0.01  -0.03    -0.05   0.01  -0.03     0.36  -0.08   0.21
                     52                     53                     54
                        a                      a                      a 
 Frequencies --   824.9432               912.6001               918.7885
 Red. masses --     2.2209                12.7783                14.4988
 Frc consts  --     0.0000                 0.0000                 0.0000
 IR Inten    --     2.9031               305.2638               358.7876
 Raman Activ --     0.0000                 0.0000                 0.0000
 Depolar     --     0.0000                 0.0000                 0.0000
 Atom AN      X      Y      Z        X      Y      Z        X      Y      Z
   1   6     0.00  -0.00   0.00     0.18   0.06  -0.16    -0.00  -0.00   0.01
   2   6     0.00   0.00   0.00    -0.01   0.26  -0.19    -0.00  -0.01   0.01
   3   8    -0.00  -0.00  -0.00    -0.11  -0.27   0.49     0.00   0.01  -0.01
   4  15     0.00  -0.00   0.00    -0.14   0.10  -0.15     0.00  -0.01   0.00
   5  16     0.00  -0.00  -0.00     0.00   0.00   0.00     0.00   0.00   0.00
   6   8    -0.00   0.00   0.00     0.30  -0.20   0.21    -0.01   0.01  -0.01
   7   6     0.00  -0.00  -0.00    -0.06   0.11  -0.21     0.00  -0.00   0.01
   8   6     0.00  -0.00  -0.00    -0.16   0.01  -0.06     0.00  -0.00   0.00
   9  16    -0.00   0.00   0.00     0.00   0.01  -0.01    -0.00   0.00   0.00
  10   6    -0.00   0.00  -0.00     0.00  -0.01   0.00     0.00  -0.00  -0.00
  11  16    -0.00  -0.00  -0.00     0.00   0.00  -0.00    -0.00  -0.00   0.01
  12  15     0.05  -0.01   0.00    -0.00   0.00   0.01    -0.11   0.25   0.13
  13  16    -0.00  -0.00   0.00     0.00   0.00  -0.00    -0.01  -0.00   0.01
  14   8    -0.08  -0.08   0.01     0.00  -0.00  -0.00     0.24  -0.21  -0.06
  15   6     0.12   0.18  -0.12    -0.00   0.00   0.00    -0.05   0.13   0.10
  16   6     0.05   0.08  -0.06    -0.00   0.00   0.00    -0.07   0.06   0.01
  17   8    -0.05  -0.00   0.03    -0.01  -0.02  -0.01    -0.21  -0.60  -0.24
  18   6     0.06   0.00  -0.04     0.00   0.01  -0.00     0.13   0.30  -0.10
  19   6     0.03   0.00  -0.01     0.00   0.00   0.00     0.15   0.12   0.11
  20   1    -0.00  -0.00  -0.00     0.29  -0.13  -0.06    -0.01   0.00   0.00
  21   1     0.01  -0.00  -0.00    -0.06  -0.03   0.06     0.00  -0.00  -0.00
  22   1    -0.01   0.00  -0.00    -0.04  -0.03   0.07     0.00   0.00  -0.00
  23   1     0.01  -0.01  -0.00    -0.10   0.03   0.05     0.00  -0.00  -0.00
  24   1    -0.01   0.00  -0.00    -0.03   0.03   0.03     0.00  -0.00  -0.00
  25   1     0.00   0.01  -0.00     0.01  -0.00  -0.03    -0.00  -0.00   0.00
  26   1    -0.01  -0.00   0.00     0.08   0.02  -0.00    -0.00  -0.00  -0.00
  27   1     0.00   0.00   0.00    -0.18  -0.10   0.05     0.00   0.00  -0.00
  28   1     0.00   0.00   0.00     0.03  -0.03   0.02    -0.00   0.00  -0.00
  29   1    -0.01  -0.00   0.00     0.07  -0.00   0.02    -0.00  -0.00  -0.00
  30   1    -0.00  -0.00  -0.00    -0.01  -0.00  -0.00    -0.00   0.00   0.00
  31   1     0.00   0.00  -0.00     0.00   0.00   0.00     0.00  -0.00  -0.00
  32   1    -0.38  -0.21  -0.19    -0.00  -0.00  -0.00     0.03  -0.01   0.02
  33   1     0.17  -0.07   0.45     0.00   0.00   0.00     0.01   0.01   0.01
  34   1    -0.11  -0.09   0.05    -0.00  -0.00  -0.00    -0.11   0.01  -0.09
  35   1    -0.38  -0.08  -0.13    -0.00  -0.00  -0.00     0.04  -0.03   0.01
  36   1     0.24  -0.16   0.33     0.00  -0.00   0.00     0.03  -0.02  -0.01
  37   1     0.01  -0.02   0.11    -0.00  -0.00  -0.00    -0.09  -0.04  -0.08
  38   1    -0.08   0.06  -0.06     0.00  -0.00  -0.00     0.02   0.02  -0.04
  39   1    -0.02   0.01   0.04     0.01  -0.00   0.01     0.18  -0.05   0.21
  40   1     0.03   0.00   0.10    -0.00  -0.00  -0.00    -0.06  -0.05  -0.05
  41   1    -0.09   0.02  -0.05     0.00  -0.00   0.00    -0.01  -0.06  -0.01
                     55                     56                     57
                        a                      a                      a 
 Frequencies --   937.6366               937.3023              1030.0142
 Red. masses --    12.6966                11.7263                 8.0697
 Frc consts  --     0.0000                 0.0000                 0.0000
 IR Inten    --   280.1855                77.1300               156.4202
 Raman Activ --     0.0000                 0.0000                 0.0000
 Depolar     --     0.0000                 0.0000                 0.0000
 Atom AN      X      Y      Z        X      Y      Z        X      Y      Z
   1   6     0.04   0.01  -0.03    -0.15  -0.04   0.13    -0.01  -0.00   0.01
   2   6    -0.01   0.04  -0.02     0.04  -0.15   0.08     0.01   0.00  -0.01
   3   8    -0.00  -0.05   0.09     0.02   0.18  -0.34     0.00  -0.01   0.01
   4  15     0.01  -0.03  -0.03    -0.04   0.11   0.12    -0.00  -0.00  -0.00
   5  16     0.00   0.00   0.00    -0.01  -0.02  -0.01     0.00   0.00   0.00
   6   8    -0.12   0.08  -0.08     0.39  -0.25   0.26     0.00  -0.00   0.00
   7   6     0.00  -0.04   0.07    -0.01   0.13  -0.24    -0.01  -0.00  -0.00
   8   6     0.07  -0.00   0.03    -0.26   0.01  -0.10     0.01   0.00   0.00
   9  16     0.01   0.00  -0.01    -0.02   0.01   0.02     0.00   0.00  -0.00
  10   6    -0.03  -0.00   0.01     0.00  -0.02  -0.01    -0.00  -0.00  -0.00
  11  16     0.02  -0.00   0.01     0.01   0.00   0.00     0.00  -0.00   0.00
  12  15     0.17   0.06   0.10     0.05   0.02   0.03     0.01  -0.00   0.01
  13  16    -0.01  -0.01   0.01    -0.01  -0.00   0.00     0.00   0.01   0.00
  14   8    -0.49   0.40   0.09    -0.14   0.11   0.03     0.01  -0.05  -0.04
  15   6     0.04  -0.23  -0.20     0.01  -0.07  -0.06    -0.12   0.09  -0.01
  16   6     0.21  -0.16  -0.00     0.06  -0.05  -0.00     0.11  -0.07   0.03
  17   8    -0.04  -0.28  -0.12    -0.01  -0.08  -0.03    -0.11  -0.24   0.03
  18   6     0.03   0.11  -0.05     0.01   0.03  -0.01     0.38   0.33   0.23
  19   6     0.07   0.06   0.06     0.02   0.02   0.02    -0.31  -0.21  -0.24
  20   1     0.06  -0.03  -0.01    -0.23   0.10   0.05    -0.01   0.00   0.00
  21   1    -0.01  -0.01   0.01     0.05   0.03  -0.05     0.00   0.00  -0.00
  22   1    -0.01  -0.01   0.01     0.03   0.02  -0.05     0.00   0.00  -0.00
  23   1    -0.02  -0.00   0.01     0.09  -0.00  -0.06     0.00   0.00  -0.00
  24   1    -0.01   0.00   0.01     0.04  -0.01  -0.03     0.00   0.00  -0.00
  25   1    -0.01  -0.00   0.01     0.05   0.01  -0.02    -0.00  -0.00  -0.00
  26   1    -0.03  -0.01  -0.00     0.12   0.02   0.02    -0.00  -0.00  -0.00
  27   1     0.09   0.04  -0.02    -0.29  -0.15   0.08     0.01   0.00  -0.00
  28   1    -0.02   0.01  -0.01     0.07  -0.03   0.04    -0.00   0.00  -0.00
  29   1    -0.03   0.00  -0.01     0.09  -0.01   0.05    -0.00   0.00  -0.00
  30   1    -0.00  -0.01  -0.02    -0.01  -0.00  -0.01     0.00  -0.00  -0.00
  31   1    -0.00   0.02   0.00     0.00   0.01  -0.00    -0.00   0.00   0.00
  32   1    -0.09   0.04  -0.04    -0.02   0.01  -0.01    -0.06   0.03  -0.01
  33   1    -0.05  -0.00  -0.03    -0.02   0.00  -0.01    -0.05   0.03  -0.01
  34   1     0.26  -0.03   0.22     0.08  -0.01   0.06     0.10  -0.01   0.08
  35   1    -0.09   0.07  -0.01    -0.02   0.02  -0.00    -0.01   0.03   0.01
  36   1    -0.07   0.05   0.03    -0.02   0.02   0.01    -0.02   0.02   0.02
  37   1    -0.06  -0.03  -0.06    -0.02  -0.01  -0.02     0.14   0.10   0.12
  38   1     0.01   0.01  -0.01     0.00   0.00  -0.00     0.16   0.09   0.11
  39   1     0.10  -0.03   0.11     0.03  -0.01   0.03    -0.28   0.08  -0.38
  40   1    -0.04  -0.03  -0.04    -0.01  -0.01  -0.01     0.09   0.10   0.00
  41   1     0.00  -0.03  -0.00     0.00  -0.01  -0.00     0.05   0.12   0.04
                     58                     59                     60
                        a                      a                      a 
 Frequencies --  1037.6761              1044.3071              1051.3306
 Red. masses --     8.5763                 9.2963                 9.7147
 Frc consts  --     0.0000                 0.0000                 0.0000
 IR Inten    --   201.5226               106.7070               101.6784
 Raman Activ --     0.0000                 0.0000                 0.0000
 Depolar     --     0.0000                 0.0000                 0.0000
 Atom AN      X      Y      Z        X      Y      Z        X      Y      Z
   1   6    -0.20  -0.05   0.18    -0.00  -0.00   0.00    -0.23  -0.06   0.19
   2   6     0.23   0.13  -0.26     0.00   0.00  -0.00     0.28   0.18  -0.33
   3   8    -0.03  -0.13   0.13     0.00  -0.00   0.00    -0.02  -0.21   0.24
   4  15    -0.01   0.00  -0.00    -0.00   0.00   0.00     0.00  -0.00  -0.03
   5  16    -0.00   0.00   0.00     0.00  -0.00  -0.00    -0.00  -0.00  -0.00
   6   8     0.12  -0.11   0.19    -0.00   0.00  -0.00    -0.15   0.12  -0.19
   7   6    -0.42   0.03  -0.22     0.00  -0.00   0.00     0.36  -0.03   0.19
   8   6     0.33   0.02   0.09    -0.00   0.00  -0.00    -0.25  -0.03  -0.04
   9  16     0.00   0.00  -0.00     0.00   0.00  -0.00     0.01  -0.00  -0.01
  10   6     0.00  -0.00   0.00    -0.00  -0.00   0.00    -0.00   0.01   0.00
  11  16    -0.00   0.00  -0.00     0.00  -0.00   0.00    -0.00  -0.00  -0.00
  12  15    -0.00  -0.00   0.00    -0.01   0.01   0.02    -0.00  -0.00   0.00
  13  16     0.00   0.00  -0.00     0.01   0.01   0.00     0.00   0.00   0.00
  14   8     0.00   0.00  -0.00    -0.13   0.25   0.16     0.00  -0.00  -0.00
  15   6     0.00  -0.00   0.00     0.47  -0.38   0.01    -0.00   0.00   0.00
  16   6    -0.00   0.00  -0.00    -0.37   0.21  -0.11     0.00  -0.00  -0.00
  17   8     0.00   0.00  -0.00    -0.01  -0.11  -0.01     0.00   0.00  -0.00
  18   6    -0.01  -0.01  -0.01     0.12   0.10   0.06    -0.01  -0.00  -0.00
  19   6     0.01   0.00   0.01    -0.08  -0.04  -0.06     0.00   0.00   0.00
  20   1    -0.28   0.13   0.06    -0.00   0.00   0.00    -0.30   0.14   0.07
  21   1     0.05   0.06  -0.05     0.00   0.00  -0.00     0.04   0.07  -0.05
  22   1     0.04   0.03  -0.08     0.00   0.00  -0.00     0.04   0.04  -0.08
  23   1     0.10   0.05  -0.10     0.00  -0.00  -0.00     0.11   0.04  -0.10
  24   1     0.11   0.02  -0.06     0.00   0.00  -0.00     0.14   0.03  -0.07
  25   1    -0.17  -0.02  -0.06     0.00  -0.00   0.00     0.12   0.02   0.04
  26   1    -0.16   0.00  -0.04     0.00  -0.00   0.00     0.12  -0.00   0.03
  27   1     0.30   0.15  -0.09    -0.00  -0.00   0.00    -0.20  -0.10   0.06
  28   1    -0.05   0.05  -0.05     0.00  -0.00   0.00     0.02  -0.04   0.03
  29   1    -0.04   0.02  -0.08     0.00   0.00   0.00     0.02  -0.01   0.05
[...]
  33   1    -0.00  -0.00   0.00     0.15   0.20  -0.03     0.00   0.00  -0.00
  34   1     0.00  -0.00   0.00     0.01  -0.01  -0.00     0.00  -0.00  -0.00
  35   1     0.00   0.00  -0.00     0.01   0.01  -0.05     0.00   0.00  -0.00
  36   1    -0.00  -0.00   0.00    -0.00  -0.00   0.00    -0.00  -0.00   0.00
  37   1    -0.00  -0.00   0.01    -0.00   0.00   0.00     0.65  -0.70  -0.11
  38   1     0.11   0.02  -0.19     0.01   0.00  -0.02    -0.04   0.02   0.03
  39   1    -0.00  -0.00  -0.00     0.00   0.00  -0.00     0.01   0.01  -0.00
  40   1    -0.00   0.00  -0.00    -0.00   0.00   0.00    -0.05   0.05   0.01
  41   1    -0.01  -0.00   0.01    -0.00  -0.00   0.00    -0.00  -0.01   0.01
                    103                    104                    105
                        a                      a                      a 
 Frequencies --  2968.8276              2980.5719              3018.2670
 Red. masses --     1.7038                 1.7070                 1.7553
 Frc consts  --     0.0000                 0.0000                 0.0000
 IR Inten    --    12.9872                12.7005                40.3485
 Raman Activ --     0.0000                 0.0000                 0.0000
 Depolar     --     0.0000                 0.0000                 0.0000
 Atom AN      X      Y      Z        X      Y      Z        X      Y      Z
   1   6    -0.00   0.00  -0.00    -0.02  -0.00  -0.03     0.16   0.03   0.20
   2   6    -0.00  -0.00  -0.00     0.17  -0.00   0.18     0.03   0.00   0.03
   3   8    -0.00   0.00  -0.00    -0.00  -0.01   0.01    -0.00  -0.00   0.00
   4  15     0.00  -0.00  -0.00    -0.00  -0.00  -0.00     0.00   0.00  -0.00
   5  16    -0.00  -0.00   0.00    -0.00  -0.00  -0.00    -0.00  -0.00   0.00
   6   8    -0.01   0.01  -0.01     0.00   0.00   0.00    -0.00  -0.00   0.00
   7   6     0.02   0.25   0.00     0.00   0.00  -0.00     0.00   0.00  -0.00
   8   6     0.00  -0.02   0.00     0.00  -0.00   0.00     0.00   0.00  -0.00
   9  16     0.00   0.00   0.00     0.00   0.00   0.00     0.00   0.00   0.00
  10   6    -0.00  -0.00  -0.00     0.00   0.00  -0.00     0.00  -0.00   0.01
  11  16    -0.00   0.00  -0.00    -0.00  -0.00   0.00     0.00  -0.00   0.00
  12  15    -0.00  -0.00   0.00    -0.00  -0.00   0.00    -0.00  -0.00   0.00
  13  16     0.00   0.00  -0.00     0.00  -0.00  -0.00     0.00   0.00  -0.00
  14   8    -0.00   0.00   0.00    -0.00   0.00   0.00     0.00   0.00  -0.00
  15   6     0.00   0.00   0.00    -0.00  -0.00  -0.00     0.00  -0.00  -0.00
  16   6    -0.00  -0.00  -0.00     0.00   0.00  -0.00     0.00   0.00  -0.00
  17   8     0.00   0.00   0.00     0.00   0.00   0.00     0.00   0.00  -0.00
  18   6    -0.00   0.00  -0.00    -0.00   0.00   0.00    -0.00   0.00   0.00
  19   6     0.00  -0.00  -0.00     0.00   0.00  -0.00     0.00   0.00  -0.00
  20   1    -0.00   0.00  -0.00    -0.01  -0.01   0.01     0.02   0.00   0.03
  21   1     0.00   0.00   0.00     0.10   0.01   0.11    -0.62  -0.04  -0.72
  22   1    -0.00  -0.00  -0.00    -0.00   0.01  -0.00     0.02  -0.06   0.01
  23   1     0.01   0.00   0.01    -0.64  -0.02  -0.70    -0.10  -0.00  -0.11
  24   1    -0.00   0.00   0.00     0.03   0.04   0.04     0.00  -0.01  -0.00
  25   1    -0.02   0.05   0.06    -0.00   0.00   0.00    -0.00   0.00   0.01
  26   1    -0.02  -0.96  -0.05    -0.00  -0.01  -0.00     0.00  -0.01  -0.00
  27   1    -0.01   0.00  -0.01    -0.00   0.00  -0.00    -0.00   0.00  -0.00
  28   1    -0.00  -0.00   0.01     0.00  -0.00  -0.00    -0.00   0.00   0.01
  29   1     0.00   0.09   0.00    -0.00   0.00   0.00     0.00  -0.02  -0.00
  30   1     0.00   0.00  -0.00     0.00  -0.00   0.00     0.00   0.00   0.00
  31   1     0.00  -0.00   0.00     0.00  -0.00   0.00    -0.00   0.01  -0.05
  32   1     0.00   0.00  -0.00    -0.00  -0.00   0.00    -0.00  -0.00   0.00
  33   1    -0.00  -0.00   0.00     0.00   0.00  -0.00     0.00   0.00   0.00
  34   1    -0.00   0.00   0.00     0.00   0.00  -0.00    -0.00   0.00   0.00
  35   1    -0.00  -0.00   0.00    -0.00  -0.00   0.00    -0.00  -0.00   0.00
  36   1     0.00   0.00  -0.00    -0.00  -0.00  -0.00    -0.00  -0.00  -0.00
  37   1     0.01  -0.01  -0.00     0.00  -0.00  -0.00     0.00  -0.00  -0.00
  38   1    -0.00   0.00   0.00     0.00   0.00  -0.00     0.00   0.00  -0.00
  39   1     0.00   0.00   0.00    -0.00  -0.00  -0.00    -0.00  -0.00  -0.00
  40   1    -0.00   0.00   0.00    -0.00   0.00   0.00    -0.00   0.00   0.00
  41   1     0.00  -0.00  -0.00    -0.00  -0.00   0.00    -0.00  -0.00   0.00
                    106                    107                    108
                        a                      a                      a 
 Frequencies --  3018.9792              3035.9486              3045.4541
 Red. masses --     1.7926                 1.7602                 1.6172
 Frc consts  --     0.0000                 0.0000                 0.0000
 IR Inten    --    12.7612                33.3899                14.0471
 Raman Activ --     0.0000                 0.0000                 0.0000
 Depolar     --     0.0000                 0.0000                 0.0000
 Atom AN      X      Y      Z        X      Y      Z        X      Y      Z
   1   6     0.01   0.00   0.01     0.00  -0.01   0.00    -0.01   0.21   0.10
   2   6     0.00   0.00   0.00     0.00  -0.00   0.00     0.00   0.01   0.01
   3   8     0.00  -0.00   0.00    -0.00  -0.00  -0.00     0.00  -0.00  -0.00
   4  15     0.00  -0.00  -0.00    -0.00   0.00  -0.00    -0.00   0.00   0.00
   5  16    -0.00  -0.00   0.00     0.00  -0.00   0.00     0.00   0.00   0.00
   6   8    -0.00   0.00   0.00     0.00  -0.00   0.00     0.00  -0.00  -0.00
   7   6    -0.00  -0.00   0.00    -0.00  -0.03  -0.01    -0.00  -0.00   0.00
   8   6    -0.00   0.00  -0.00     0.01  -0.26  -0.03    -0.00  -0.00  -0.00
   9  16     0.00  -0.00  -0.00    -0.00  -0.00   0.00    -0.00   0.00   0.00
  10   6    -0.01   0.04  -0.26     0.00   0.00  -0.00     0.00   0.00  -0.00
  11  16    -0.00   0.00  -0.00    -0.00  -0.00  -0.00    -0.00  -0.00   0.00
  12  15    -0.00   0.00  -0.00     0.00   0.00   0.00     0.00   0.00  -0.00
  13  16    -0.00  -0.00   0.00    -0.00  -0.00   0.00    -0.00   0.00   0.00
  14   8     0.00   0.00  -0.00    -0.00  -0.00  -0.00    -0.00  -0.00   0.00
  15   6     0.00   0.00   0.00     0.00   0.00  -0.00    -0.00  -0.00   0.00
  16   6     0.00   0.00  -0.00     0.00   0.00   0.00    -0.00  -0.00   0.00
  17   8    -0.00   0.00   0.00    -0.00  -0.00  -0.00     0.00   0.00   0.00
  18   6    -0.00  -0.00   0.00    -0.00   0.00   0.00     0.00   0.00  -0.00
  19   6     0.00  -0.00  -0.00    -0.00   0.00  -0.00     0.01   0.00  -0.01
  20   1     0.00  -0.00   0.00     0.00   0.00  -0.01     0.04   0.12  -0.09
  21   1    -0.03  -0.00  -0.04    -0.02  -0.00  -0.02     0.04   0.03   0.06
  22   1     0.00  -0.00   0.00     0.00   0.03   0.01    -0.05  -0.89  -0.33
  23   1    -0.00  -0.00  -0.00     0.00  -0.00   0.00    -0.01   0.00  -0.01
  24   1    -0.00  -0.00  -0.00     0.00  -0.00   0.00    -0.00  -0.04  -0.02
  25   1     0.00  -0.00  -0.00    -0.00   0.00   0.01     0.00  -0.00  -0.00
  26   1    -0.00   0.00   0.00    -0.00   0.08   0.00    -0.00   0.00   0.00
  27   1     0.00  -0.00   0.00     0.01  -0.04   0.00     0.01  -0.01   0.01
  28   1    -0.00   0.00   0.00    -0.02  -0.01   0.07     0.01  -0.01  -0.01
  29   1     0.00  -0.00  -0.00     0.00   0.96   0.05    -0.00   0.03   0.00
  30   1    -0.02  -0.03  -0.02    -0.00  -0.00   0.00    -0.00  -0.00   0.00
  31   1     0.07  -0.12   0.95     0.00  -0.00   0.00     0.00  -0.00   0.00
  32   1     0.00   0.00  -0.00     0.00  -0.00   0.00    -0.00  -0.00   0.00
  33   1    -0.00  -0.00  -0.00     0.00   0.00   0.00     0.00   0.00   0.00
  34   1    -0.00   0.00   0.00     0.00  -0.00  -0.00     0.00  -0.00  -0.00
  35   1    -0.00  -0.00   0.00     0.00   0.00   0.00     0.00   0.00  -0.01
  36   1    -0.00  -0.00  -0.00    -0.00  -0.00   0.00     0.00   0.01   0.00
  37   1    -0.00   0.00   0.00     0.00  -0.00  -0.00    -0.00   0.00  -0.00
  38   1     0.00   0.00  -0.00     0.00   0.00  -0.00    -0.00  -0.00   0.00
  39   1    -0.00  -0.00  -0.00    -0.00  -0.00  -0.00    -0.00  -0.01  -0.00
  40   1    -0.00   0.00   0.00     0.00  -0.00  -0.00    -0.01   0.01   0.00
  41   1    -0.00  -0.00   0.00    -0.00  -0.00   0.00    -0.02  -0.00   0.03
                    109                    110                    111
                        a                      a                      a 
 Frequencies --  3049.1382              3050.8498              3050.7914
 Red. masses --     1.9552                 1.8009                 1.6583
 Frc consts  --     0.0000                 0.0000                 0.0000
 IR Inten    --    24.8374                18.0460                33.1499
 Raman Activ --     0.0000                 0.0000                 0.0000
 Depolar     --     0.0000                 0.0000                 0.0000
 Atom AN      X      Y      Z        X      Y      Z        X      Y      Z
   1   6    -0.00   0.00   0.01    -0.00  -0.01   0.01    -0.00  -0.02   0.01
   2   6     0.00   0.00   0.00    -0.00  -0.00   0.00    -0.00  -0.00   0.00
   3   8    -0.00  -0.00   0.00     0.00   0.00  -0.00    -0.00   0.00   0.00
   4  15     0.00   0.00   0.00    -0.00  -0.00   0.00     0.00  -0.00   0.00
   5  16     0.00   0.00   0.00     0.00  -0.00  -0.00     0.00   0.00   0.00
   6   8    -0.00  -0.00   0.00    -0.00   0.00  -0.00     0.00   0.00  -0.00
   7   6     0.00  -0.00  -0.00    -0.00   0.00   0.00    -0.01   0.01   0.01
   8   6     0.00   0.00  -0.00    -0.03   0.02   0.07    -0.09   0.06   0.20
   9  16    -0.00   0.00   0.00    -0.00   0.00  -0.00    -0.00   0.00   0.00
  10   6     0.00  -0.00  -0.00    -0.00  -0.00   0.00     0.00   0.00  -0.00
  11  16    -0.00   0.00  -0.00     0.00   0.00  -0.00    -0.00  -0.00   0.00
  12  15    -0.00  -0.00  -0.00     0.00   0.00  -0.00    -0.00  -0.00   0.00
  13  16    -0.00  -0.00  -0.00    -0.00  -0.00  -0.00    -0.00   0.00   0.00
  14   8     0.00   0.00   0.00    -0.00   0.00   0.00     0.00  -0.00  -0.00
  15   6    -0.00  -0.00  -0.00     0.01   0.01  -0.02    -0.00  -0.00   0.01
  16   6    -0.01  -0.01  -0.01     0.09   0.10  -0.21    -0.03  -0.04   0.07
  17   8     0.00   0.00   0.00     0.00   0.00   0.00    -0.00   0.00  -0.00
  18   6    -0.02   0.01   0.02    -0.00   0.00  -0.00     0.00  -0.00   0.00
  19   6    -0.22   0.09   0.17    -0.00   0.02  -0.03    -0.00  -0.01   0.02
  20   1     0.00   0.01  -0.01     0.01   0.02  -0.02     0.02   0.04  -0.05
  21   1    -0.00   0.00  -0.00    -0.00  -0.00  -0.00    -0.01  -0.00  -0.01
  22   1    -0.00  -0.03  -0.01    -0.00  -0.00   0.00     0.00   0.03   0.01
  23   1    -0.00  -0.00  -0.00     0.00  -0.00   0.00    -0.00  -0.00  -0.00
  24   1    -0.00  -0.00  -0.00     0.00  -0.00  -0.00     0.00   0.00   0.00
  25   1    -0.00   0.00   0.00     0.00  -0.00  -0.01     0.01  -0.01  -0.04
  26   1    -0.00  -0.00  -0.00    -0.00  -0.00   0.00    -0.00  -0.01   0.00
  27   1     0.00  -0.00   0.00     0.01  -0.00   0.02     0.04  -0.02   0.09
  28   1    -0.00   0.00   0.01     0.10  -0.09  -0.27     0.31  -0.26  -0.81
  29   1    -0.00  -0.00  -0.00    -0.00   0.03   0.01    -0.01   0.08   0.03
  30   1     0.00   0.00  -0.00     0.00   0.00  -0.00    -0.00  -0.00   0.00
  31   1     0.00  -0.00   0.00    -0.00   0.00  -0.00     0.00  -0.00   0.00
  32   1    -0.00  -0.00   0.00    -0.01  -0.01   0.04     0.00   0.00  -0.01
  33   1     0.00   0.00  -0.00    -0.01  -0.01  -0.00     0.00   0.00   0.00
  34   1     0.00  -0.01  -0.01     0.02  -0.00  -0.03    -0.01   0.00   0.01
  35   1    -0.02  -0.01   0.06    -0.22  -0.17   0.81     0.07   0.06  -0.26
  36   1     0.04   0.05  -0.00    -0.13  -0.18  -0.02     0.05   0.07   0.01
  37   1     0.04  -0.04  -0.01     0.00  -0.00  -0.00    -0.00   0.00   0.00
  38   1     0.02   0.00  -0.03    -0.00  -0.00   0.00     0.00   0.00  -0.00
  39   1     0.01   0.09   0.03     0.02   0.04  -0.00    -0.01  -0.01   0.00
  40   1     0.44  -0.52  -0.07     0.07  -0.08  -0.02    -0.03   0.03   0.01
  41   1     0.31   0.11  -0.55    -0.09  -0.02   0.15     0.04   0.01  -0.07
                    112                    113                    114
                        a                      a                      a 
 Frequencies --  3051.4786              3054.7271              3054.8422
 Red. masses --     1.3467                 1.7872                 1.5439
 Frc consts  --     0.0000                 0.0000                 0.0000
 IR Inten    --     9.6983                 9.4998                14.5735
 Raman Activ --     0.0000                 0.0000                 0.0000
 Depolar     --     0.0000                 0.0000                 0.0000
 Atom AN      X      Y      Z        X      Y      Z        X      Y      Z
   1   6     0.00   0.00  -0.01    -0.07  -0.19   0.17     0.00   0.00  -0.00
   2   6    -0.00  -0.00  -0.00     0.00  -0.01   0.01     0.00   0.00  -0.00
   3   8    -0.00  -0.00  -0.00    -0.00   0.00  -0.00     0.00  -0.00   0.00
   4  15     0.00   0.00   0.00    -0.00  -0.00  -0.00     0.00   0.00  -0.00
   5  16    -0.00  -0.00  -0.00    -0.00  -0.00  -0.00    -0.00  -0.00  -0.00
   6   8    -0.00   0.00  -0.00    -0.00   0.00   0.00     0.00  -0.00   0.00
   7   6    -0.00   0.00   0.00     0.00  -0.00  -0.00     0.00  -0.00  -0.00
   8   6    -0.00   0.00   0.00     0.01  -0.00  -0.01    -0.00  -0.00  -0.00
   9  16    -0.00  -0.00  -0.00     0.00  -0.00  -0.00    -0.00  -0.00   0.00
  10   6     0.00   0.00  -0.00    -0.00   0.00  -0.00     0.00   0.00   0.00
  11  16    -0.00   0.00  -0.00     0.00   0.00   0.00    -0.00  -0.00  -0.00
  12  15    -0.00   0.00  -0.00     0.00   0.00   0.00     0.00  -0.00   0.00
  13  16    -0.00  -0.00   0.00    -0.00  -0.00  -0.00    -0.00  -0.00  -0.00
  14   8     0.00   0.00   0.00    -0.00   0.00  -0.00    -0.00  -0.00   0.00
  15   6    -0.00  -0.00   0.00    -0.00  -0.00   0.00    -0.01  -0.01  -0.00
  16   6    -0.04  -0.04   0.05    -0.00  -0.01   0.00    -0.13  -0.16  -0.06
  17   8     0.00  -0.00   0.00    -0.00   0.00  -0.00    -0.00   0.00  -0.00
  18   6    -0.00   0.01  -0.01     0.00  -0.00  -0.00     0.00  -0.00   0.00
  19   6    -0.05   0.07  -0.13    -0.00  -0.01  -0.01     0.02  -0.04   0.01
  20   1    -0.01  -0.02   0.02     0.28   0.59  -0.69    -0.01  -0.02   0.02
  21   1    -0.00   0.00  -0.00    -0.01  -0.03   0.02    -0.00   0.00  -0.00
  22   1     0.00   0.01   0.00    -0.00   0.11   0.07     0.00  -0.00  -0.00
  23   1     0.00   0.00   0.00    -0.01  -0.00  -0.01    -0.00  -0.00  -0.00
  24   1    -0.00   0.00   0.00     0.00   0.01   0.01    -0.00  -0.00  -0.00
  25   1     0.00  -0.00  -0.00    -0.00   0.00   0.00    -0.00   0.00   0.00
  26   1    -0.00  -0.00  -0.00     0.00  -0.00  -0.00     0.00   0.00   0.00
  27   1     0.01  -0.00   0.01    -0.02   0.01  -0.03     0.00  -0.00   0.01
  28   1     0.01  -0.01  -0.02    -0.03   0.02   0.07    -0.00   0.00   0.01
  29   1    -0.00  -0.00   0.00     0.00  -0.02  -0.00    -0.00   0.00  -0.00
  30   1    -0.00  -0.00   0.00    -0.00  -0.00   0.00    -0.00  -0.00   0.00
  31   1     0.00  -0.00   0.00    -0.00  -0.00   0.00    -0.00  -0.00  -0.00
  32   1     0.00   0.00  -0.01     0.00   0.00  -0.00    -0.00  -0.00   0.00
  33   1     0.01   0.01  -0.00     0.00   0.00  -0.00     0.02   0.03  -0.00
  34   1    -0.00  -0.01   0.00    -0.00  -0.00   0.00     0.02  -0.09  -0.04
  35   1     0.04   0.03  -0.16     0.00   0.00  -0.01    -0.09  -0.08   0.27
  36   1     0.10   0.14   0.00     0.02   0.02  -0.00     0.55   0.73  -0.02
  37   1     0.02  -0.02  -0.00    -0.00   0.00   0.00    -0.01   0.01   0.00
  38   1    -0.01  -0.00   0.02    -0.00  -0.00   0.00     0.00  -0.00  -0.00
  39   1     0.14   0.28  -0.00     0.02   0.04   0.00     0.02   0.03   0.00
  40   1     0.40  -0.44  -0.09    -0.00   0.00   0.00    -0.10   0.11   0.02
  41   1    -0.35  -0.09   0.57    -0.01  -0.00   0.02     0.03   0.00  -0.04
                    115                    116                    117
                        a                      a                      a 
 Frequencies --  3056.1995              3059.0462              3061.2722
 Red. masses --     1.8942                 1.7701                 1.7767
 Frc consts  --     0.0000                 0.0000                 0.0000
 IR Inten    --     9.8283                10.7734                 9.6340
 Raman Activ --     0.0000                 0.0000                 0.0000
 Depolar     --     0.0000                 0.0000                 0.0000
 Atom AN      X      Y      Z        X      Y      Z        X      Y      Z
   1   6    -0.00  -0.01   0.01     0.00   0.01  -0.00    -0.00   0.00  -0.00
   2   6    -0.00  -0.00  -0.00    -0.00   0.00  -0.00     0.00   0.00   0.00
   3   8     0.00   0.00  -0.00     0.00  -0.00  -0.00     0.00  -0.00  -0.00
   4  15    -0.00   0.00  -0.00    -0.00   0.00   0.00     0.00  -0.00   0.00
   5  16     0.00  -0.00   0.00     0.00   0.00  -0.00    -0.00  -0.00  -0.00
   6   8    -0.00   0.00  -0.00     0.00   0.00  -0.00    -0.00  -0.00   0.00
   7   6     0.00   0.00   0.00     0.00  -0.01   0.01    -0.00   0.00  -0.00
   8   6     0.00   0.00   0.00     0.14  -0.09   0.20    -0.00   0.00  -0.01
   9  16     0.00   0.00  -0.00     0.00  -0.00  -0.00    -0.00  -0.00   0.00
  10   6     0.00   0.00  -0.00     0.00   0.00  -0.00     0.00  -0.00   0.00
  11  16    -0.00   0.00   0.00    -0.00  -0.00   0.00     0.00  -0.00   0.00
  12  15     0.00  -0.00  -0.00    -0.00  -0.00  -0.00    -0.00  -0.00  -0.00
  13  16    -0.00  -0.00   0.00     0.00  -0.00   0.00     0.00   0.00   0.00
  14   8     0.00   0.00   0.00     0.00   0.00   0.00     0.00   0.00   0.00
  15   6    -0.00  -0.00   0.00    -0.00  -0.00  -0.00     0.00  -0.01  -0.01
  16   6    -0.02  -0.01   0.00     0.00  -0.01  -0.00     0.11  -0.21  -0.11
  17   8    -0.00  -0.00   0.00     0.00   0.00   0.00     0.00  -0.00   0.00
  18   6    -0.00   0.01  -0.00    -0.00   0.00   0.00    -0.00   0.00   0.00
  19   6     0.09   0.27  -0.02    -0.00   0.00   0.00     0.00   0.00  -0.00
  20   1     0.01   0.02  -0.03    -0.01  -0.01   0.02    -0.00  -0.00   0.00
  21   1     0.00  -0.00   0.00     0.00   0.00   0.00     0.00   0.00   0.00
  22   1     0.00   0.02   0.01    -0.00  -0.02  -0.01    -0.00  -0.00  -0.00
  23   1     0.00   0.00   0.00     0.00   0.00   0.00     0.00  -0.00  -0.00
  24   1     0.00   0.00   0.00    -0.00  -0.00  -0.00    -0.00  -0.00  -0.00
  25   1     0.00  -0.00  -0.00     0.00  -0.00  -0.01    -0.00   0.00   0.00
  26   1    -0.00  -0.00  -0.00     0.00   0.02   0.00     0.00  -0.00  -0.00
  27   1    -0.00   0.00  -0.00    -0.56   0.36  -0.69     0.02  -0.01   0.02
  28   1     0.00  -0.00  -0.00     0.05  -0.04  -0.05    -0.00   0.00   0.00
  29   1     0.00  -0.00   0.00     0.02   0.00   0.03    -0.00   0.00  -0.00
  30   1    -0.00  -0.00  -0.00    -0.00  -0.00   0.00     0.00   0.00  -0.00
  31   1     0.00  -0.00   0.00     0.00  -0.00   0.00    -0.00   0.00  -0.00
  32   1    -0.00   0.00   0.00     0.00   0.00  -0.00    -0.00  -0.00   0.01
  33   1     0.00   0.00  -0.00     0.00   0.00  -0.00     0.01   0.01  -0.00
  34   1     0.01  -0.02  -0.01    -0.01   0.02   0.01    -0.45   0.75   0.38
  35   1    -0.00  -0.00   0.00     0.00  -0.00  -0.00     0.00  -0.04   0.02
  36   1     0.05   0.07  -0.00     0.01   0.01  -0.00     0.06   0.03  -0.02
  37   1     0.02  -0.02  -0.00     0.00  -0.00  -0.00     0.00  -0.00  -0.00
  38   1    -0.01  -0.00   0.01     0.00   0.00  -0.00     0.00   0.00  -0.00
  39   1    -0.44  -0.79  -0.03     0.00   0.00   0.00    -0.01  -0.01  -0.00
  40   1     0.19  -0.16  -0.04     0.00  -0.00  -0.00     0.00  -0.00  -0.00
  41   1    -0.07   0.01   0.14     0.00   0.00  -0.00    -0.00  -0.00   0.00
