      -----------------------------------------------------------      
     |                   =====================                   |     
     |                           x T B                           |     
     |                   =====================                   |     
     |                         S. Grimme                         |     
     |          Mulliken Center for Theoretical Chemistry        |     
     |                    University of Bonn                     |     
      -----------------------------------------------------------      

   * xtb version 6.7.1 (edcfbbe) compiled by 'albert@albert-system' on 2024-07-22

   xtb is free software: you can redistribute it and/or modify it under
   the terms of the GNU Lesser General Public License as published by
   the Free Software Foundation, either version 3 of the License, or
   (at your option) any later version.
   
   xtb is distributed in the hope that it will be useful,
   but WITHOUT ANY WARRANTY; without even the implied warranty of
   MERCHANTABILITY or FITNESS FOR A PARTICULAR PURPOSE.  See the
   GNU Lesser General Public License for more details.
   
   Cite this work as:
   * C. Bannwarth, E. Caldeweyher, S. Ehlert, A. Hansen, P. Pracht,
     J. Seibert, S. Spicher, S. Grimme, WIREs Comput. Mol. Sci., 2020, 11,
     e01493. DOI: 10.1002/wcms.1493
   
   for GFN2-xTB:
   * C. Bannwarth, S. Ehlert and S. Grimme., J. Chem. Theory Comput., 2019,
     15, 1652-1671. DOI: 10.1021/acs.jctc.8b01176
   for GFN1-xTB:
   * S. Grimme, C. Bannwarth, P. Shushkov, J. Chem. Theory Comput., 2017,
     13, 1989-2009. DOI: 10.1021/acs.jctc.7b00118
   for GFN0-xTB:
   * P. Pracht, E. Caldeweyher, S. Ehlert, S. Grimme, ChemRxiv, 2019, preprint.
     DOI: 10.26434/chemrxiv.8326202.v1
   for GFN-FF:
   * S. Spicher and S. Grimme, Angew. Chem. Int. Ed., 2020, 59, 15665-15673.
     DOI: 10.1002/anie.202004239
   
   for ALPB and GBSA implicit solvation:
   * S. Ehlert, M. Stahn, S. Spicher, S. Grimme, J. Chem. Theory Comput.,
     2021, 17, 4250-4261. DOI: 10.1021/acs.jctc.1c00471
   
   for ddCOSMO and CPCM-X implicit solvation:
   * M. Stahn, S. Ehlert, S. Grimme, J. Phys. Chem. A,
     2023, XX, XXXX-XXXX. DOI: 10.1021/acs.jpca.3c04382
   
   for DFT-D4:
   * E. Caldeweyher, C. Bannwarth and S. Grimme, J. Chem. Phys., 2017,
     147, 034112. DOI: 10.1063/1.4993215
   * E. Caldeweyher, S. Ehlert, A. Hansen, H. Neugebauer, S. Spicher,
     C. Bannwarth and S. Grimme, J. Chem. Phys., 2019, 150, 154122.
     DOI: 10.1063/1.5090222
   * E. Caldeweyher, J.-M. Mewes, S. Ehlert and S. Grimme, Phys. Chem. Chem. Phys.
     2020, 22, 8499-8512. DOI: 10.1039/D0CP00502A
   
   for sTDA-xTB:
   * S. Grimme and C. Bannwarth, J. Chem. Phys., 2016, 145, 054103.
     DOI: 10.1063/1.4959605
   
   in the mass-spec context:
   * V. Asgeirsson, C. Bauer and S. Grimme, Chem. Sci., 2017, 8, 4879.
     DOI: 10.1039/c7sc00601b
   * J. Koopman and S. Grimme, ACS Omega 2019, 4, 12, 15120-15133.
     DOI: 10.1021/acsomega.9b02011
   
   for metadynamics refer to:
   * S. Grimme, J. Chem. Theory Comput., 2019, 155, 2847-2862
     DOI: 10.1021/acs.jctc.9b00143
   
   for SPH calculations refer to:
   * S. Spicher and S. Grimme, J. Chem. Theory Comput., 2021, 17, 1701-1714
     DOI: 10.1021/acs.jctc.0c01306
   
   for ONIOM refer to:
   * C. Plett, A. Katbashev, S. Ehlert, S. Grimme, M. Bursch,
     Phys. Chem. Chem. Phys., 2023, 25, 17860-17868. DOI: 10.1039/D3CP02178E
   
   for DIPRO refer to:
   * J. Kohn, N. Gildemeister, S. Grimme, D. Fazzi, A. Hansen,
     J. Chem. Phys., 2023, just accepted.
   
   for PTB refer to:
   * S. Grimme, M. Mueller, A. Hansen, J. Chem. Phys., 2023, 158, 124111.
     DOI: 10.1063/5.0137838
   
   with help from (in alphabetical order)
   P. Atkinson, C. Bannwarth, F. Bohle, G. Brandenburg, E. Caldeweyher
   M. Checinski, S. Dohm, S. Ehlert, S. Ehrlich, I. Gerasimov, C. Hölzer
   A. Katbashev, J. Kohn, J. Koopman, C. Lavigne, S. Lehtola, F. März, M. Müller,
   F. Musil, H. Neugebauer, J. Pisarek, C. Plett, P. Pracht, F. Pultar,
   J. Seibert, P. Shushkov, S. Spicher, M. Stahn, M. Steiner, T. Strunk,
   J. Stückrath, T. Rose, and J. Unsleber
   
 * started run on 2025/04/09 at 14:02:38.592     
   ID    Z sym.   atoms
    1    6 C      1, 2, 7, 8, 10, 15, 16, 18, 19
    2    8 O      3, 6, 14, 17
    3   15 P      4, 12
    4   16 S      5, 9, 11, 13
    5    1 H      20-41

           -------------------------------------------------
          |                Calculation Setup                |
           -------------------------------------------------

          program call               : /srv/scratch/z5358697/.xtb/bin/xtb xtb_rrho.coord --gfn2 --bhess vtight --chrg 0 --enso --norestart -I rrho-xcontrol-inp --parallel 1 --alpb water
          hostname                   : k163
          coordinate file            : xtb_rrho.coord
          omp threads                :                     1


           -------------------------------------------------
          |                 G F N 2 - x T B                 |
           -------------------------------------------------

        Reference                      10.1021/acs.jctc.8b01176
      * Hamiltonian:
        H0-scaling (s, p, d)           1.850000    2.230000    2.230000
        zeta-weighting                 0.500000
      * Dispersion:
        s8                             2.700000
        a1                             0.520000
        a2                             5.000000
        s9                             5.000000
      * Repulsion:
        kExp                           1.500000    1.000000
        rExp                           1.000000
      * Coulomb:
        alpha                          2.000000
        third order                    shell-resolved
        anisotropic                    true
        a3                             3.000000
        a5                             4.000000
        cn-shift                       1.200000
        cn-exp                         4.000000
        max-rad                        5.000000

      * Solvation model:               ALPB
        Solvent                        water
        Parameter file                 internal GFN2-xTB/ALPB
        Dielectric constant                8.0200E+01
        Reference state                gsolv [1 M gas/solution]
        Free energy shift                  1.0808E-03 Eh       6.7819E-01 kcal/mol
        Temperature                        2.9815E+02 K
        Density                            1.0000E+00 kg/L
        Solvent mass                       1.8000E+01 g/mol
        Interaction kernel             P16
        Born radius scaling (c1)           1.4744E+00
        Born radii integrator          GBOBC
        Born offset                        0.0000E+00 a0       0.0000E+00 AA
        H-bond correction              true
        Ion screening                  false
        Surface tension                    1.0000E-05 Eh       1.5569E+01 dyn/cm
        Grid points                               974 per atom

          ...................................................
          :                      SETUP                      :
          :.................................................:
          :  # basis functions                 134          :
          :  # atomic orbitals                 128          :
          :  # shells                           66          :
          :  # electrons                       116          :
          :  max. iterations                   250          :
          :  Hamiltonian                  GFN2-xTB          :
          :  restarted?                      false          :
          :  GBSA solvation                   true          :
          :  PC potential                    false          :
          :  electronic temp.          300.0000000     K    :
          :  accuracy                    1.0000000          :
          :  -> integral cutoff          0.2500000E+02      :
          :  -> integral neglect         0.1000000E-07      :
          :  -> SCF convergence          0.1000000E-05 Eh   :
          :  -> wf. convergence          0.1000000E-03 e    :
          :  Broyden damping             0.4000000          :
          :  net charge                          0          :
          :  unpaired electrons                  0          :
          ...................................................

 iter      E             dE          RMSdq      gap      omega  full diag
   1    -65.4125990 -0.654126E+02  0.637E+00    4.38       0.0  T
   2    -65.5359108 -0.123312E+00  0.354E+00    3.82       1.0  T
   3    -65.5546950 -0.187842E-01  0.112E+00    3.45       1.0  T
   4    -65.5584524 -0.375732E-02  0.529E-01    3.39       1.0  T
   5    -65.5593574 -0.905083E-03  0.274E-01    3.46       1.0  T
   6    -65.5595626 -0.205147E-03  0.121E-01    3.45       1.0  T
   7    -65.5596100 -0.474547E-04  0.428E-02    3.47       1.0  T
   8    -65.5596139 -0.386058E-05  0.176E-02    3.46       1.0  T
   9    -65.5596147 -0.762422E-06  0.554E-03    3.46       2.8  T
  10    -65.5596147 -0.451307E-08  0.271E-03    3.46       5.8  T
  11    -65.5596147 -0.425905E-07  0.751E-04    3.46      20.8  T
  12    -65.5596147 -0.782350E-09  0.368E-04    3.46      42.4  T

   *** convergence criteria satisfied after 12 iterations ***

         #    Occupation            Energy/Eh            Energy/eV
      -------------------------------------------------------------
         1        2.0000           -0.7626019             -20.7515
       ...           ...                  ...                  ...
        52        2.0000           -0.4471015             -12.1663
        53        2.0000           -0.4181783             -11.3792
        54        2.0000           -0.4102517             -11.1635
        55        2.0000           -0.4005503             -10.8995
        56        2.0000           -0.3997152             -10.8768
        57        2.0000           -0.3964264             -10.7873
        58        2.0000           -0.3957788             -10.7697 (HOMO)
        59                         -0.2684823              -7.3058 (LUMO)
        60                         -0.2626773              -7.1478
        61                         -0.2274797              -6.1900
        62                         -0.1933479              -5.2613
        63                         -0.1875940              -5.1047
       ...                                ...                  ...
       128                          1.2794041              34.8144
      -------------------------------------------------------------
                  HL-Gap            0.1272965 Eh            3.4639 eV
             Fermi-level           -0.3321306 Eh           -9.0377 eV

 SCC (total)                   0 d,  0 h,  0 min,  0.085 sec
 SCC setup                      ...        0 min,  0.002 sec (  2.848%)
 Dispersion                     ...        0 min,  0.000 sec (  0.352%)
 classical contributions        ...        0 min,  0.000 sec (  0.068%)
 integral evaluation            ...        0 min,  0.028 sec ( 33.237%)
 iterations                     ...        0 min,  0.032 sec ( 38.009%)
 molecular gradient             ...        0 min,  0.022 sec ( 25.231%)
 printout                       ...        0 min,  0.000 sec (  0.237%)

         :::::::::::::::::::::::::::::::::::::::::::::::::::::
         ::                     SUMMARY                     ::
         :::::::::::::::::::::::::::::::::::::::::::::::::::::
         :: total energy             -65.019872777971 Eh    ::
         :: total w/o Gsasa/hb       -65.021673569429 Eh    ::
         :: gradient norm              0.056273940662 Eh/a0 ::
         :: HOMO-LUMO gap              3.463912911259 eV    ::
         ::.................................................::
         :: SCC energy               -65.558814856838 Eh    ::
         :: -> isotropic ES            0.125326098664 Eh    ::
         :: -> anisotropic ES         -0.015677288056 Eh    ::
         :: -> anisotropic XC          0.031409234051 Eh    ::
         :: -> dispersion             -0.051219756142 Eh    ::
         :: -> Gsolv                  -0.022211635888 Eh    ::
         ::    -> Gelec               -0.024012427346 Eh    ::
         ::    -> Gsasa                0.005011069691 Eh    ::
         ::    -> Ghb                 -0.004291037932 Eh    ::
         ::    -> Gshift               0.001080759698 Eh    ::
         :: repulsion energy           0.538942078866 Eh    ::
         :: add. restraining           0.000000000000 Eh    ::
         :: total charge              -0.000000000000 e     ::
         :::::::::::::::::::::::::::::::::::::::::::::::::::::

metadynamics with 1 initial structures loaded
           -------------------------------------------------
          |           Optimal kpush determination           |
           -------------------------------------------------
      ----------------------------------------------------------- 
     |                   =====================                   |
     |                        A N C O P T                        |
     |                   =====================                   |
     |               Approximate Normal Coordinate               |
     |                Rational Function Optimizer                |
      ----------------------------------------------------------- 
target rmsd / Å         0.100000
unbiased initial rmsd   0.254653
 
iter. min.        max.        rmsd       kpush
      ----------------------------------------------------------- 
     |                   =====================                   |
     |                        A N C O P T                        |
     |                   =====================                   |
     |               Approximate Normal Coordinate               |
     |                Rational Function Optimizer                |
      ----------------------------------------------------------- 
 1    0.000000    1.863636    0.014936   -0.931818
      ----------------------------------------------------------- 
     |                   =====================                   |
     |                        A N C O P T                        |
     |                   =====================                   |
     |               Approximate Normal Coordinate               |
     |                Rational Function Optimizer                |
      ----------------------------------------------------------- 
 2    0.000000    0.931818    0.020892   -0.465909
      ----------------------------------------------------------- 
     |                   =====================                   |
     |                        A N C O P T                        |
     |                   =====================                   |
     |               Approximate Normal Coordinate               |
     |                Rational Function Optimizer                |
      ----------------------------------------------------------- 
 3    0.000000    0.465909    0.030335   -0.232955
      ----------------------------------------------------------- 
     |                   =====================                   |
     |                        A N C O P T                        |
     |                   =====================                   |
     |               Approximate Normal Coordinate               |
     |                Rational Function Optimizer                |
      ----------------------------------------------------------- 
 4    0.000000    0.232955    0.045437   -0.116477
      ----------------------------------------------------------- 
     |                   =====================                   |
     |                        A N C O P T                        |
     |                   =====================                   |
     |               Approximate Normal Coordinate               |
     |                Rational Function Optimizer                |
      ----------------------------------------------------------- 
 5    0.000000    0.116477    0.069001   -0.058239
      ----------------------------------------------------------- 
     |                   =====================                   |
     |                        A N C O P T                        |
     |                   =====================                   |
     |               Approximate Normal Coordinate               |
     |                Rational Function Optimizer                |
      ----------------------------------------------------------- 
 6    0.000000    0.058239    0.102854   -0.029119
      ----------------------------------------------------------- 
     |                   =====================                   |
     |                        A N C O P T                        |
     |                   =====================                   |
     |               Approximate Normal Coordinate               |
     |                Rational Function Optimizer                |
      ----------------------------------------------------------- 
 7    0.029119    0.058239    0.081889   -0.043679
      ----------------------------------------------------------- 
     |                   =====================                   |
     |                        A N C O P T                        |
     |                   =====================                   |
     |               Approximate Normal Coordinate               |
     |                Rational Function Optimizer                |
      ----------------------------------------------------------- 
 8    0.029119    0.043679    0.090811   -0.036399
      ----------------------------------------------------------- 
     |                   =====================                   |
     |                        A N C O P T                        |
     |                   =====================                   |
     |               Approximate Normal Coordinate               |
     |                Rational Function Optimizer                |
      ----------------------------------------------------------- 
 9    0.029119    0.036399    0.096444   -0.032759
      ----------------------------------------------------------- 
     |                   =====================                   |
     |                        A N C O P T                        |
     |                   =====================                   |
     |               Approximate Normal Coordinate               |
     |                Rational Function Optimizer                |
      ----------------------------------------------------------- 
10    0.029119    0.032759    0.099544   -0.030939
final kpush: -0.030939
           -------------------------------------------------
          |            Biased Numerical Hessian             |
           -------------------------------------------------
kpush                :  -0.03094
alpha                :   1.00000
step length          :   0.00500
SCC accuracy         :   0.30000
Hessian scale factor :   1.00000
frozen atoms in %    :   0.00000    0
RMS gradient         :   0.00007
estimated CPU  time      0.18 min
estimated wall time      0.18 min

writing file <hessian>.

 projected vibrational frequencies (cm⁻¹)
eigval :       -0.00    -0.00    -0.00    -0.00     0.00     0.00
eigval :       50.76    53.63    58.75    65.24    68.60    79.29
eigval :       69.02    77.94    77.26    74.86    75.45    96.73
eigval :       97.64    92.75   122.93   128.95   133.99   133.83
eigval :      168.42   184.08   188.01   207.79   228.14   227.79
eigval :      236.56   227.61   252.00   236.45   262.82   271.93
eigval :      314.68   311.57   334.37   377.29   427.57   444.95
eigval :      437.54   459.19   479.29   623.56   628.01   678.19
eigval :      718.86   726.55   747.62   752.72   798.01   797.54
eigval :      815.77   820.61   820.23   825.55   913.10   917.89
eigval :      932.31   955.21  1038.28  1043.17  1056.41  1063.67
eigval :     1077.58  1093.20  1094.12  1096.89  1102.78  1126.21
eigval :     1131.04  1131.66  1131.91  1166.64  1233.49  1233.77
eigval :     1239.60  1245.56  1305.57  1308.00  1312.79  1325.02
eigval :     1351.82  1389.22  1389.22  1392.17  1393.87  1436.73
eigval :     1436.72  1437.90  1453.80  1457.52  1460.60  1461.55
eigval :     1472.16  1473.34  1473.47  1473.85  1474.72  2905.78
eigval :     2912.83  2926.42  2928.93  2928.89  2932.57  2973.53
eigval :     2976.09  2978.83  3011.24  3013.31  3025.71  3039.42
eigval :     3045.39  3048.31  3050.56  3052.27  3053.87  3053.86
eigval :     3054.81  3058.55  3060.98
           -------------------------------------------------
          |                Property Printout                |
           -------------------------------------------------

    * Orbital Energies and Occupations

         #    Occupation            Energy/Eh            Energy/eV
      -------------------------------------------------------------
         1        2.0000           -0.7687874             -20.9198
       ...           ...                  ...                  ...
        46        2.0000           -0.4662904             -12.6884
        47        2.0000           -0.4617735             -12.5655
        48        2.0000           -0.4569684             -12.4347
        49        2.0000           -0.4548758             -12.3778
        50        2.0000           -0.4510453             -12.2736
        51        2.0000           -0.4470224             -12.1641
        52        2.0000           -0.4461403             -12.1401
        53        2.0000           -0.4190974             -11.4042
        54        2.0000           -0.4106974             -11.1756
        55        2.0000           -0.3984024             -10.8411
        56        2.0000           -0.3970315             -10.8038
        57        2.0000           -0.3942461             -10.7280
        58        2.0000           -0.3920867             -10.6692 (HOMO)
        59                         -0.2710999              -7.3770 (LUMO)
        60                         -0.2639439              -7.1823
        61                         -0.2222628              -6.0481
        62                         -0.1880212              -5.1163
        63                         -0.1809770              -4.9246
        64                         -0.1717775              -4.6743
        65                         -0.1666190              -4.5339
        66                         -0.1541943              -4.1958
        67                         -0.1387478              -3.7755
        68                         -0.1326035              -3.6083
        69                         -0.0548615              -1.4929
       ...                                ...                  ...
       128                          1.2709761              34.5850
      -------------------------------------------------------------
                  HL-Gap            0.1209869 Eh            3.2922 eV
             Fermi-level           -0.3315933 Eh           -9.0231 eV

     #   Z          covCN         q      C6AA      α(0)
     1   6 C        3.751    -0.127    23.010     6.841
     2   6 C        3.870     0.075    19.293     6.246
     3   8 O        1.655    -0.252    18.187     5.757
     4  15 P        3.889     0.368   144.916    21.625
     5  16 S        0.926    -0.467   159.832    21.384
     6   8 O        1.655    -0.255    18.239     5.765
     7   6 C        3.894     0.101    18.873     6.176
     8   6 C        3.752    -0.132    23.102     6.854
     9  16 S        2.026    -0.159   147.786    20.461
    10   6 C        3.804     0.039    19.911     6.353
    11  16 S        2.027    -0.102   145.326    20.290
    12  15 P        3.778     0.369   144.874    21.621
    13  16 S        0.926    -0.481   160.487    21.427
    14   8 O        1.654    -0.263    18.368     5.786
    15   6 C        3.800     0.073    19.369     6.266
    16   6 C        3.751    -0.133    23.128     6.858
    17   8 O        1.655    -0.250    18.151     5.751
    18   6 C        3.845     0.074    19.323     6.253
    19   6 C        3.751    -0.131    23.083     6.852
    20   1 H        0.925     0.076     2.025     2.225
    21   1 H        0.925     0.051     2.303     2.373
    22   1 H        0.925     0.089     1.893     2.152
    23   1 H        0.924     0.064     2.148     2.292
    24   1 H        0.924     0.096     1.823     2.111
    25   1 H        0.924     0.048     2.343     2.394
    26   1 H        0.924     0.048     2.343     2.394
    27   1 H        0.925     0.072     2.061     2.245
    28   1 H        0.925     0.082     1.956     2.187
    29   1 H        0.925     0.079     1.994     2.208
    30   1 H        0.925     0.111     1.689     2.032
    31   1 H        0.924     0.081     1.973     2.196
    32   1 H        0.924     0.071     2.074     2.252
    33   1 H        0.924     0.093     1.852     2.128
    34   1 H        0.925     0.087     1.904     2.158
    35   1 H        0.925     0.070     2.087     2.259
    36   1 H        0.925     0.068     2.106     2.270
    37   1 H        0.924     0.095     1.834     2.118
    38   1 H        0.924     0.059     2.209     2.324
    39   1 H        0.925     0.076     2.018     2.222
    40   1 H        0.925     0.084     1.942     2.179
    41   1 H        0.925     0.055     2.261     2.352

 Mol. C6AA /au·bohr⁶  :      26406.602778
 Mol. C8AA /au·bohr⁸  :     862845.335602
 Mol. α(0) /au        :        257.636451


Wiberg/Mayer (AO) data.
largest (>0.10) Wiberg bond orders for each atom

 ---------------------------------------------------------------------------
     #   Z sym  total        # sym  WBO       # sym  WBO       # sym  WBO
 ---------------------------------------------------------------------------
     1   6 C    3.986 --     2 C    1.021    20 H    0.981    22 H    0.976
                            21 H    0.975
     2   6 C    3.882 --     1 C    1.021    23 H    0.968    24 H    0.964
                             3 O    0.883
     3   8 O    2.411 --     4 P    1.331     2 C    0.883
     4  15 P    5.279 --     5 S    1.515     3 O    1.331     6 O    1.318
                             9 S    0.971
     5  16 S    1.852 --     4 P    1.515     9 S    0.145
     6   8 O    2.403 --     4 P    1.318     7 C    0.890
     7   6 C    3.896 --     8 C    1.017    25 H    0.970    26 H    0.968
                             6 O    0.890
     8   6 C    3.981 --     7 C    1.017    27 H    0.983    29 H    0.982
                            28 H    0.976
     9  16 S    2.264 --     4 P    0.971    10 C    0.969     5 S    0.145
    10   6 C    3.951 --    11 S    1.001     9 S    0.969    30 H    0.961
                            31 H    0.948
    11  16 S    2.280 --    10 C    1.001    12 P    0.959    13 S    0.132
    12  15 P    5.313 --    13 S    1.534    14 O    1.349    17 O    1.328
                            11 S    0.959
    13  16 S    1.847 --    12 P    1.534    11 S    0.132
    14   8 O    2.406 --    12 P    1.349    15 C    0.862
    15   6 C    3.880 --    16 C    1.024    32 H    0.966    33 H    0.964
                            14 O    0.862
    16   6 C    3.985 --    15 C    1.024    35 H    0.982    36 H    0.976
                            34 H    0.974
    17   8 O    2.415 --    12 P    1.328    18 C    0.887
    18   6 C    3.890 --    19 C    1.022    38 H    0.969    37 H    0.964
                            17 O    0.887
    19   6 C    3.986 --    18 C    1.022    39 H    0.981    41 H    0.978
                            40 H    0.976
    20   1 H    0.994 --     1 C    0.981
    21   1 H    0.997 --     1 C    0.975
    22   1 H    0.992 --     1 C    0.976
    23   1 H    0.996 --     2 C    0.968
    24   1 H    0.990 --     2 C    0.964
    25   1 H    0.998 --     7 C    0.970
    26   1 H    0.998 --     7 C    0.968
    27   1 H    0.995 --     8 C    0.983
    28   1 H    0.992 --     8 C    0.976
    29   1 H    0.994 --     8 C    0.982
    30   1 H    0.988 --    10 C    0.961
    31   1 H    0.993 --    10 C    0.948
    32   1 H    0.995 --    15 C    0.966
    33   1 H    0.991 --    15 C    0.964
    34   1 H    0.991 --    16 C    0.974
    35   1 H    0.995 --    16 C    0.982
    36   1 H    0.995 --    16 C    0.976
    37   1 H    0.991 --    18 C    0.964
    38   1 H    0.996 --    18 C    0.969
    39   1 H    0.994 --    19 C    0.981
    40   1 H    0.992 --    19 C    0.976
    41   1 H    0.997 --    19 C    0.978
 ---------------------------------------------------------------------------

Topologies differ in total number of bonds
Writing topology from bond orders to xtbtopo.mol

molecular dipole:
                 x           y           z       tot (Debye)
 q only:       -1.061      -2.971       1.324
   full:       -0.703      -2.368       1.578       7.450
molecular quadrupole (traceless):
                xx          xy          yy          xz          yz          zz
 q only:       21.387      -1.981     -16.136      -0.553      12.916      -5.251
  q+dip:       23.957      -2.808     -18.085      -1.656      12.568      -5.872
   full:       24.857      -3.217     -18.425      -2.030      13.039      -6.432

           -------------------------------------------------
          |                Geometry Summary                 |
           -------------------------------------------------

      molecular mass/u    :      384.4756129
   center of mass at/Å    :        0.0051689       0.0196210      -0.0002052
  moments of inertia/u·Å² :        0.1406445E+04   0.3528176E+04   0.3700367E+04
rotational constants/cm⁻¹ :        0.1198599E-01   0.4778001E-02   0.4555666E-02

 * 39 selected distances

     #   Z          #   Z                                           value/Å
     1   6 C        2   6 C                                       1.5157676
     2   6 C        3   8 O                                       1.4398855
     3   8 O        4  15 P                                       1.5811689
     4  15 P        5  16 S                                       1.9639702
     4  15 P        6   8 O                                       1.5847874
     6   8 O        7   6 C                                       1.4391421
     7   6 C        8   6 C                                       1.5146141
     4  15 P        9  16 S                                       2.1260716
    10   6 C       11  16 S                                       1.7995420
    11  16 S       12  15 P                                       2.1299739 (max)
    12  15 P       13  16 S                                       1.9595293
    12  15 P       14   8 O                                       1.5783141
    14   8 O       15   6 C                                       1.4485172
    15   6 C       16   6 C                                       1.5131265
    12  15 P       17   8 O                                       1.5893247
    17   8 O       18   6 C                                       1.4385629
    18   6 C       19   6 C                                       1.5155362
     1   6 C       20   1 H                                       1.0870082
     1   6 C       21   1 H                                       1.0895273
     1   6 C       22   1 H                                       1.0856178
     2   6 C       23   1 H                                       1.0946895
     2   6 C       24   1 H                                       1.0910618
     7   6 C       25   1 H                                       1.0959156
     7   6 C       26   1 H                                       1.0956979
     8   6 C       27   1 H                                       1.0861795
     8   6 C       28   1 H                                       1.0851952 (min)
     8   6 C       29   1 H                                       1.0860810
    10   6 C       30   1 H                                       1.0871197
    10   6 C       31   1 H                                       1.0936283
    15   6 C       32   1 H                                       1.0939473
    15   6 C       33   1 H                                       1.0913090
    16   6 C       34   1 H                                       1.0860377
    16   6 C       35   1 H                                       1.0868437
    16   6 C       36   1 H                                       1.0875402
    18   6 C       37   1 H                                       1.0913648
    18   6 C       38   1 H                                       1.0945090
    19   6 C       39   1 H                                       1.0865558
    19   6 C       40   1 H                                       1.0860224
    19   6 C       41   1 H                                       1.0886141

 * 6 distinct bonds (by element types)

   Z      Z             #   av. dist./Å        max./Å        min./Å
   1 H    6 C          22     1.0895666     1.0959156     1.0851952
   6 C    6 C           4     1.5147611     1.5157676     1.5131265
   6 C    8 O           4     1.4415269     1.4485172     1.4385629
   8 O   15 P           4     1.5833987     1.5893247     1.5783141
   6 C   16 S           1     1.7995420     1.7995420     1.7995420
  15 P   16 S           4     2.0448863     2.1299739     1.9595293

           -------------------------------------------------
          |               Frequency Printout                |
           -------------------------------------------------
 projected vibrational frequencies (cm⁻¹)
eigval :       -0.00    -0.00    -0.00    -0.00     0.00     0.00
eigval :       50.76    53.63    58.75    65.24    68.60    79.29
eigval :       69.02    77.94    77.26    74.86    75.45    96.73
eigval :       97.64    92.75   122.93   128.95   133.99   133.83
eigval :      168.42   184.08   188.01   207.79   228.14   227.79
eigval :      236.56   227.61   252.00   236.45   262.82   271.93
eigval :      314.68   311.57   334.37   377.29   427.57   444.95
eigval :      437.54   459.19   479.29   623.56   628.01   678.19
eigval :      718.86   726.55   747.62   752.72   798.01   797.54
eigval :      815.77   820.61   820.23   825.55   913.10   917.89
eigval :      932.31   955.21  1038.28  1043.17  1056.41  1063.67
eigval :     1077.58  1093.20  1094.12  1096.89  1102.78  1126.21
eigval :     1131.04  1131.66  1131.91  1166.64  1233.49  1233.77
eigval :     1239.60  1245.56  1305.57  1308.00  1312.79  1325.02
eigval :     1351.82  1389.22  1389.22  1392.17  1393.87  1436.73
eigval :     1436.72  1437.90  1453.80  1457.52  1460.60  1461.55
eigval :     1472.16  1473.34  1473.47  1473.85  1474.72  2905.78
eigval :     2912.83  2926.42  2928.93  2928.89  2932.57  2973.53
eigval :     2976.09  2978.83  3011.24  3013.31  3025.71  3039.42
eigval :     3045.39  3048.31  3050.56  3052.27  3053.87  3053.86
eigval :     3054.81  3058.55  3060.98
 reduced masses (amu)
   1: 18.30   2: 19.44   3: 20.50   4: 18.94   5: 17.34   6: 21.16   7: 25.82   8: 23.73
   9: 20.18  10: 23.99  11: 18.93  12: 23.84  13: 14.24  14: 17.21  15: 13.61  16: 11.95
  17: 11.07  18: 13.63  19: 11.66  20:  9.13  21: 15.57  22: 14.96  23: 14.91  24: 12.84
  25: 18.40  26: 20.30  27: 17.91  28: 17.33  29: 19.54  30: 13.36  31: 12.06  32:  5.40
  33: 11.23  34:  6.13  35:  9.29  36:  7.07  37: 15.48  38: 16.80  39: 18.42  40: 17.38
  41: 24.93  42: 28.97  43: 14.97  44: 12.59  45: 13.34  46: 26.46  47: 24.77  48: 18.25
  49: 16.94  50: 20.07  51: 19.54  52: 23.25  53: 18.80  54:  6.12  55:  2.44  56:  3.09
  57:  2.98  58:  2.04  59: 13.39  60: 13.04  61: 11.47  62: 11.29  63:  8.31  64:  8.60
  65:  9.66  66: 10.57  67:  1.49  68:  7.73  69:  7.72  70:  7.85  71:  7.82  72:  4.96
  73:  5.20  74:  5.00  75:  5.12  76:  2.29  77:  2.29  78:  2.34  79:  2.24  80:  2.14
  81:  3.03  82:  3.04  83:  3.01  84:  3.11  85:  1.78  86:  3.12  87:  3.16  88:  3.05
  89:  3.07  90:  1.95  91:  1.92  92:  1.93  93:  1.50  94:  1.49  95:  1.50  96:  1.50
  97:  1.89  98:  1.55  99:  1.55 100:  1.55 101:  1.55 102:  1.73 103:  1.99 104:  1.74
 105:  1.67 106:  1.54 107:  1.75 108:  1.72 109:  1.72 110:  1.73 111:  1.79 112:  1.75
 113:  1.76 114:  1.79 115:  1.66 116:  1.60 117:  1.60 118:  1.96 119:  1.76 120:  1.34
 121:  1.80 122:  1.76 123:  1.87
 IR intensities (km·mol⁻¹)
   1:  0.16   2:  0.17   3:  0.89   4:  0.22   5:  0.57   6:  0.17   7:  0.49   8:  1.20
   9:  0.52  10:  0.91  11:  6.58  12: 14.06  13:  6.24  14:  4.65  15:  2.26  16:  1.45
  17:  1.24  18:  3.84  19:  1.01  20:  4.01  21:  1.34  22:  6.01  23: 19.36  24: 12.82
  25: 11.16  26:  4.03  27: 12.28  28:  2.77  29:  4.78  30:  4.46  31:  8.17  32:  0.45
  33:  4.14  34:  2.02  35: 10.84  36: 11.27  37: 15.76  38: 11.44  39: 15.69  40:  9.74
  41: 64.26  42:126.65  43: 46.24  44: 43.33  45: 32.52  46:165.40  47:205.55  48: 24.79
  49: 35.14  50:146.88  51:160.65  52:274.03  53:302.82  54: 13.19  55:  6.76  56:  4.67
  57: 12.49  58:  3.99  59:332.28  60:421.46  61:110.93  62: 62.80  63:208.23  64:237.86
  65:119.52  66:  5.43  67:  5.21  68: 13.10  69: 10.55  70:  6.48  71: 13.63  72: 15.90
  73: 17.70  74:  2.59  75: 29.33  76: 19.29  77:  2.22  78:  4.10  79:  3.85  80:  4.33
  81:  3.59  82:  4.34  83:  4.26  84:  3.95  85: 12.85  86: 23.33  87:  7.04  88: 16.04
  89: 13.28  90:  3.91  91:  8.15  92:  5.38  93:  5.28  94:  6.66  95: 10.63  96: 10.16
  97:  1.11  98:  1.62  99:  9.55 100:  2.87 101:  4.65 102: 14.78 103: 39.24 104: 26.15
 105: 27.66 106: 35.29 107: 27.23 108:  8.48 109: 10.89 110:  5.24 111: 15.11 112: 51.61
 113: 53.43 114: 30.62 115: 15.50 116: 20.56 117: 12.20 118: 24.13 119: 11.31 120: 11.56
 121:  8.99 122:  9.33 123: 11.55
 Raman intensities (Ä⁴*amu⁻¹)
   1:  0.00   2:  0.00   3:  0.00   4:  0.00   5:  0.00   6:  0.00   7:  0.00   8:  0.00
   9:  0.00  10:  0.00  11:  0.00  12:  0.00  13:  0.00  14:  0.00  15:  0.00  16:  0.00
  17:  0.00  18:  0.00  19:  0.00  20:  0.00  21:  0.00  22:  0.00  23:  0.00  24:  0.00
  25:  0.00  26:  0.00  27:  0.00  28:  0.00  29:  0.00  30:  0.00  31:  0.00  32:  0.00
  33:  0.00  34:  0.00  35:  0.00  36:  0.00  37:  0.00  38:  0.00  39:  0.00  40:  0.00
  41:  0.00  42:  0.00  43:  0.00  44:  0.00  45:  0.00  46:  0.00  47:  0.00  48:  0.00
  49:  0.00  50:  0.00  51:  0.00  52:  0.00  53:  0.00  54:  0.00  55:  0.00  56:  0.00
  57:  0.00  58:  0.00  59:  0.00  60:  0.00  61:  0.00  62:  0.00  63:  0.00  64:  0.00
  65:  0.00  66:  0.00  67:  0.00  68:  0.00  69:  0.00  70:  0.00  71:  0.00  72:  0.00
  73:  0.00  74:  0.00  75:  0.00  76:  0.00  77:  0.00  78:  0.00  79:  0.00  80:  0.00
  81:  0.00  82:  0.00  83:  0.00  84:  0.00  85:  0.00  86:  0.00  87:  0.00  88:  0.00
  89:  0.00  90:  0.00  91:  0.00  92:  0.00  93:  0.00  94:  0.00  95:  0.00  96:  0.00
  97:  0.00  98:  0.00  99:  0.00 100:  0.00 101:  0.00 102:  0.00 103:  0.00 104:  0.00
 105:  0.00 106:  0.00 107:  0.00 108:  0.00 109:  0.00 110:  0.00 111:  0.00 112:  0.00
 113:  0.00 114:  0.00 115:  0.00 116:  0.00 117:  0.00 118:  0.00 119:  0.00 120:  0.00
 121:  0.00 122:  0.00 123:  0.00
 output can be read by thermo (or use thermo option).
 writing <g98.out> molden fake output.
 recommended (thermochemical) frequency scaling factor: 1.0
           -------------------------------------------------
          |             Thermodynamic Functions             |
           -------------------------------------------------

Molecule has no symmetry elements
It seems to be the C1 point group
c1  symmetry found (for desy threshold:  0.10E+00) used in thermo

          ...................................................
          :                      SETUP                      :
          :.................................................:
          :  # frequencies                         117      :
          :  # imaginary freq.                       0      :
          :  linear?                             false      :
          :  only rotor calc.                    false      :
          :  symmetry                               c1      :
          :  rotational number                       1      :
          :  scaling factor                  1.0000000      :
          :  rotor cutoff                    0.0000000 cm⁻¹ :
          :  imag. cutoff                 -100.0000000 cm⁻¹ :
          :.................................................:

    mode    ω/cm⁻¹     T·S(HO)/kcal·mol⁻¹    T·S(FR)/kcal·mol⁻¹   T·S(vib)
   ------------------------------------------------------------------------
       1     50.76    -1.42740 (100.00%)    -1.05204 (  0.00%)    -1.42740
       2     53.63    -1.39498 (100.00%)    -1.03575 (  0.00%)    -1.39498
       3     58.75    -1.34131 (100.00%)    -1.00876 (  0.00%)    -1.34131
       4     65.24    -1.27969 (100.00%)    -0.97772 (  0.00%)    -1.27969
       5     68.60    -1.25019 (100.00%)    -0.96284 (  0.00%)    -1.25019
       6     79.29    -1.16525 (100.00%)    -0.91992 (  0.00%)    -1.16525
       7     69.02    -1.24662 (100.00%)    -0.96104 (  0.00%)    -1.24662
       8     77.94    -1.17533 (100.00%)    -0.92502 (  0.00%)    -1.17533
       9     77.26    -1.18047 (100.00%)    -0.92762 (  0.00%)    -1.18047
      10     74.86    -1.19899 (100.00%)    -0.93698 (  0.00%)    -1.19899
      11     75.45    -1.19436 (100.00%)    -0.93464 (  0.00%)    -1.19436
      12     96.73    -1.04923 (100.00%)    -0.86104 (  0.00%)    -1.04923
      13     97.64    -1.04377 (100.00%)    -0.85826 (  0.00%)    -1.04377
      14     92.75    -1.07371 (100.00%)    -0.87349 (  0.00%)    -1.07371
      15    122.93    -0.91047 (100.00%)    -0.79003 (  0.00%)    -0.91047
      16    128.95    -0.88301 (100.00%)    -0.77588 (  0.00%)    -0.88301
      17    133.99    -0.86104 (100.00%)    -0.76452 (  0.00%)    -0.86104
      18    133.83    -0.86175 (100.00%)    -0.76488 (  0.00%)    -0.86175
      19    168.42    -0.73136 (100.00%)    -0.69676 (  0.00%)    -0.73136
      20    184.08    -0.68175 (100.00%)    -0.67043 (  0.00%)    -0.68175
      21    188.01    -0.67005 (100.00%)    -0.66418 (  0.00%)    -0.67005
      22    207.79    -0.61509 (100.00%)    -0.63455 (  0.00%)    -0.61509
      23    228.14    -0.56457 (100.00%)    -0.60687 (  0.00%)    -0.56457
      24    227.79    -0.56537 (100.00%)    -0.60732 (  0.00%)    -0.56537
      25    236.56    -0.54521 (100.00%)    -0.59613 (  0.00%)    -0.54521
      26    227.61    -0.56579 (100.00%)    -0.60755 (  0.00%)    -0.56579
      27    252.00    -0.51179 (100.00%)    -0.57740 (  0.00%)    -0.51179
      28    236.45    -0.54545 (100.00%)    -0.59627 (  0.00%)    -0.54545
      29    262.82    -0.48986 (100.00%)    -0.56495 (  0.00%)    -0.48986
      30    271.93    -0.47225 (100.00%)    -0.55486 (  0.00%)    -0.47225
   ------------------------------------------------------------------------

   temp. (K)  partition function   enthalpy   heat capacity  entropy
                                   cal/mol     cal/K/mol   cal/K/mol   J/K/mol
 298.15  VIB  0.676E+12            15611.816     88.431    106.496
         ROT  0.104E+08              888.752      2.981     35.080
         INT  0.700E+19            16500.569     91.412    141.576
         TR   0.729E+28             1481.254      4.968     43.712
         TOT                       17981.8227    96.3803   185.2884   775.2466

       T/K    H(0)-H(T)+PV         H(T)/Eh          T*S/Eh         G(T)/Eh
   ------------------------------------------------------------------------
    298.15    0.286559E-01    0.341507E+00    0.880365E-01    0.253470E+00
   ------------------------------------------------------------------------

         :::::::::::::::::::::::::::::::::::::::::::::::::::::
         ::                  THERMODYNAMIC                  ::
         :::::::::::::::::::::::::::::::::::::::::::::::::::::
         :: total free energy         -64.803789195716 Eh   ::
         ::.................................................::
         :: total energy              -65.057259250990 Eh   ::
         :: zero point energy           0.312850681859 Eh   ::
         :: G(RRHO) w/o ZPVE           -0.059380626584 Eh   ::
         :: G(RRHO) contrib.            0.253470055274 Eh   ::
         :::::::::::::::::::::::::::::::::::::::::::::::::::::

optimized geometry written to: xtbopt.coord


           -------------------------------------------------
          | TOTAL ENERGY              -65.057259250990 Eh   |
          | TOTAL ENTHALPY            -64.715752710636 Eh   |
          | TOTAL FREE ENERGY         -64.803789195716 Eh   |
          | GRADIENT NORM               0.000066167307 Eh/α |
          | HOMO-LUMO GAP               3.292220506528 eV   |
           -------------------------------------------------

------------------------------------------------------------------------
 * finished run on 2025/04/09 at 14:03:03.731     
------------------------------------------------------------------------
 total:
 * wall-time:     0 d,  0 h,  0 min, 25.137 sec
 *  cpu-time:     0 d,  0 h,  0 min, 24.840 sec
 * ratio c/w:     0.988 speedup
 SCF:
 * wall-time:     0 d,  0 h,  0 min,  0.086 sec
 *  cpu-time:     0 d,  0 h,  0 min,  0.059 sec
 * ratio c/w:     0.692 speedup
 analytical hessian:
 * wall-time:     0 d,  0 h,  0 min, 10.501 sec
 *  cpu-time:     0 d,  0 h,  0 min, 10.457 sec
 * ratio c/w:     0.996 speedup

