      -----------------------------------------------------------      
     |                   =====================                   |     
     |                           x T B                           |     
     |                   =====================                   |     
     |                         S. Grimme                         |     
     |          Mulliken Center for Theoretical Chemistry        |     
     |                    University of Bonn                     |     
      -----------------------------------------------------------      

   * xtb version 6.7.1 (edcfbbe) compiled by 'albert@albert-system' on 2024-07-22

   xtb is free software: you can redistribute it and/or modify it under
   the terms of the GNU Lesser General Public License as published by
   the Free Software Foundation, either version 3 of the License, or
   (at your option) any later version.
   
   xtb is distributed in the hope that it will be useful,
   but WITHOUT ANY WARRANTY; without even the implied warranty of
   MERCHANTABILITY or FITNESS FOR A PARTICULAR PURPOSE.  See the
   GNU Lesser General Public License for more details.
   
   Cite this work as:
   * C. Bannwarth, E. Caldeweyher, S. Ehlert, A. Hansen, P. Pracht,
     J. Seibert, S. Spicher, S. Grimme, WIREs Comput. Mol. Sci., 2020, 11,
     e01493. DOI: 10.1002/wcms.1493
   
   for GFN2-xTB:
   * C. Bannwarth, S. Ehlert and S. Grimme., J. Chem. Theory Comput., 2019,
     15, 1652-1671. DOI: 10.1021/acs.jctc.8b01176
   for GFN1-xTB:
   * S. Grimme, C. Bannwarth, P. Shushkov, J. Chem. Theory Comput., 2017,
     13, 1989-2009. DOI: 10.1021/acs.jctc.7b00118
   for GFN0-xTB:
   * P. Pracht, E. Caldeweyher, S. Ehlert, S. Grimme, ChemRxiv, 2019, preprint.
     DOI: 10.26434/chemrxiv.8326202.v1
   for GFN-FF:
   * S. Spicher and S. Grimme, Angew. Chem. Int. Ed., 2020, 59, 15665-15673.
     DOI: 10.1002/anie.202004239
   
   for ALPB and GBSA implicit solvation:
   * S. Ehlert, M. Stahn, S. Spicher, S. Grimme, J. Chem. Theory Comput.,
     2021, 17, 4250-4261. DOI: 10.1021/acs.jctc.1c00471
   
   for ddCOSMO and CPCM-X implicit solvation:
   * M. Stahn, S. Ehlert, S. Grimme, J. Phys. Chem. A,
     2023, XX, XXXX-XXXX. DOI: 10.1021/acs.jpca.3c04382
   
   for DFT-D4:
   * E. Caldeweyher, C. Bannwarth and S. Grimme, J. Chem. Phys., 2017,
     147, 034112. DOI: 10.1063/1.4993215
   * E. Caldeweyher, S. Ehlert, A. Hansen, H. Neugebauer, S. Spicher,
     C. Bannwarth and S. Grimme, J. Chem. Phys., 2019, 150, 154122.
     DOI: 10.1063/1.5090222
   * E. Caldeweyher, J.-M. Mewes, S. Ehlert and S. Grimme, Phys. Chem. Chem. Phys.
     2020, 22, 8499-8512. DOI: 10.1039/D0CP00502A
   
   for sTDA-xTB:
   * S. Grimme and C. Bannwarth, J. Chem. Phys., 2016, 145, 054103.
     DOI: 10.1063/1.4959605
   
   in the mass-spec context:
   * V. Asgeirsson, C. Bauer and S. Grimme, Chem. Sci., 2017, 8, 4879.
     DOI: 10.1039/c7sc00601b
   * J. Koopman and S. Grimme, ACS Omega 2019, 4, 12, 15120-15133.
     DOI: 10.1021/acsomega.9b02011
   
   for metadynamics refer to:
   * S. Grimme, J. Chem. Theory Comput., 2019, 155, 2847-2862
     DOI: 10.1021/acs.jctc.9b00143
   
   for SPH calculations refer to:
   * S. Spicher and S. Grimme, J. Chem. Theory Comput., 2021, 17, 1701-1714
     DOI: 10.1021/acs.jctc.0c01306
   
   for ONIOM refer to:
   * C. Plett, A. Katbashev, S. Ehlert, S. Grimme, M. Bursch,
     Phys. Chem. Chem. Phys., 2023, 25, 17860-17868. DOI: 10.1039/D3CP02178E
   
   for DIPRO refer to:
   * J. Kohn, N. Gildemeister, S. Grimme, D. Fazzi, A. Hansen,
     J. Chem. Phys., 2023, just accepted.
   
   for PTB refer to:
   * S. Grimme, M. Mueller, A. Hansen, J. Chem. Phys., 2023, 158, 124111.
     DOI: 10.1063/5.0137838
   
   with help from (in alphabetical order)
   P. Atkinson, C. Bannwarth, F. Bohle, G. Brandenburg, E. Caldeweyher
   M. Checinski, S. Dohm, S. Ehlert, S. Ehrlich, I. Gerasimov, C. Hölzer
   A. Katbashev, J. Kohn, J. Koopman, C. Lavigne, S. Lehtola, F. März, M. Müller,
   F. Musil, H. Neugebauer, J. Pisarek, C. Plett, P. Pracht, F. Pultar,
   J. Seibert, P. Shushkov, S. Spicher, M. Stahn, M. Steiner, T. Strunk,
   J. Stückrath, T. Rose, and J. Unsleber
   
 * started run on 2025/04/09 at 05:20:53.519     
   ID    Z sym.   atoms
    1    6 C      1, 2, 7, 8, 10, 15, 16, 18, 19
    2    8 O      3, 6, 14, 17
    3   15 P      4, 12
    4   16 S      5, 9, 11, 13
    5    1 H      20-41

           -------------------------------------------------
          |                Calculation Setup                |
           -------------------------------------------------

          program call               : /srv/scratch/z5358697/.xtb/bin/xtb gas.coord --gfn2 --sp --chrg 0 --norestart --parallel 1
          hostname                   : k163
          coordinate file            : gas.coord
          omp threads                :                     1


           -------------------------------------------------
          |                 G F N 2 - x T B                 |
           -------------------------------------------------

        Reference                      10.1021/acs.jctc.8b01176
      * Hamiltonian:
        H0-scaling (s, p, d)           1.850000    2.230000    2.230000
        zeta-weighting                 0.500000
      * Dispersion:
        s8                             2.700000
        a1                             0.520000
        a2                             5.000000
        s9                             5.000000
      * Repulsion:
        kExp                           1.500000    1.000000
        rExp                           1.000000
      * Coulomb:
        alpha                          2.000000
        third order                    shell-resolved
        anisotropic                    true
        a3                             3.000000
        a5                             4.000000
        cn-shift                       1.200000
        cn-exp                         4.000000
        max-rad                        5.000000


          ...................................................
          :                      SETUP                      :
          :.................................................:
          :  # basis functions                 134          :
          :  # atomic orbitals                 128          :
          :  # shells                           66          :
          :  # electrons                       116          :
          :  max. iterations                   250          :
          :  Hamiltonian                  GFN2-xTB          :
          :  restarted?                      false          :
          :  GBSA solvation                  false          :
          :  PC potential                    false          :
          :  electronic temp.          300.0000000     K    :
          :  accuracy                    1.0000000          :
          :  -> integral cutoff          0.2500000E+02      :
          :  -> integral neglect         0.1000000E-07      :
          :  -> SCF convergence          0.1000000E-05 Eh   :
          :  -> wf. convergence          0.1000000E-03 e    :
          :  Broyden damping             0.4000000          :
          :  net charge                          0          :
          :  unpaired electrons                  0          :
          ...................................................

 iter      E             dE          RMSdq      gap      omega  full diag
   1    -65.3811573 -0.653812E+02  0.627E+00    4.20       0.0  T
   2    -65.5477058 -0.166549E+00  0.392E+00    3.12       1.0  T
   3    -65.5665045 -0.187987E-01  0.140E+00    3.01       1.0  T
   4    -65.5688287 -0.232422E-02  0.564E-01    2.79       1.0  T
   5    -65.5696028 -0.774057E-03  0.264E-01    2.90       1.0  T
   6    -65.5697871 -0.184276E-03  0.126E-01    2.88       1.0  T
   7    -65.5698463 -0.592101E-04  0.490E-02    2.89       1.0  T
   8    -65.5698555 -0.924816E-05  0.219E-02    2.89       1.0  T
   9    -65.5698567 -0.119626E-05  0.572E-03    2.89       2.7  T
  10    -65.5698568 -0.102564E-06  0.281E-03    2.89       5.6  T
  11    -65.5698568 -0.682053E-08  0.541E-04    2.89      28.9  T
  12    -65.5698568 -0.102062E-08  0.239E-04    2.89      65.5  T

   *** convergence criteria satisfied after 12 iterations ***

         #    Occupation            Energy/Eh            Energy/eV
      -------------------------------------------------------------
         1        2.0000           -0.7529211             -20.4880
       ...           ...                  ...                  ...
        52        2.0000           -0.4362551             -11.8711
        53        2.0000           -0.4066879             -11.0665
        54        2.0000           -0.3963977             -10.7865
        55        2.0000           -0.3747698             -10.1980
        56        2.0000           -0.3727181             -10.1422
        57        2.0000           -0.3672772              -9.9941
        58        2.0000           -0.3633639              -9.8876 (HOMO)
        59                         -0.2570419              -6.9945 (LUMO)
        60                         -0.2460004              -6.6940
        61                         -0.2040273              -5.5519
        62                         -0.1769014              -4.8137
        63                         -0.1681774              -4.5763
       ...                                ...                  ...
       128                          1.3176938              35.8563
      -------------------------------------------------------------
                  HL-Gap            0.1063220 Eh            2.8932 eV
             Fermi-level           -0.3102029 Eh           -8.4411 eV

 SCC (total)                   0 d,  0 h,  0 min,  0.059 sec
 SCC setup                      ...        0 min,  0.000 sec (  0.470%)
 Dispersion                     ...        0 min,  0.000 sec (  0.528%)
 classical contributions        ...        0 min,  0.000 sec (  0.108%)
 integral evaluation            ...        0 min,  0.012 sec ( 21.267%)
 iterations                     ...        0 min,  0.024 sec ( 40.848%)
 molecular gradient             ...        0 min,  0.021 sec ( 36.398%)
 printout                       ...        0 min,  0.000 sec (  0.351%)

         :::::::::::::::::::::::::::::::::::::::::::::::::::::
         ::                     SUMMARY                     ::
         :::::::::::::::::::::::::::::::::::::::::::::::::::::
         :: total energy             -65.009350423044 Eh    ::
         :: gradient norm              0.035868692701 Eh/a0 ::
         :: HOMO-LUMO gap              2.893168117762 eV    ::
         ::.................................................::
         :: SCC energy               -65.568828938706 Eh    ::
         :: -> isotropic ES            0.106300433544 Eh    ::
         :: -> anisotropic ES         -0.010100460730 Eh    ::
         :: -> anisotropic XC          0.030512293971 Eh    ::
         :: -> dispersion             -0.054685320643 Eh    ::
         :: repulsion energy           0.559478515662 Eh    ::
         :: add. restraining           0.000000000000 Eh    ::
         :: total charge               0.000000000000 e     ::
         :::::::::::::::::::::::::::::::::::::::::::::::::::::

           -------------------------------------------------
          |                Property Printout                |
           -------------------------------------------------

    * Orbital Energies and Occupations

         #    Occupation            Energy/Eh            Energy/eV
      -------------------------------------------------------------
         1        2.0000           -0.7529211             -20.4880
       ...           ...                  ...                  ...
        46        2.0000           -0.4686264             -12.7520
        47        2.0000           -0.4652526             -12.6602
        48        2.0000           -0.4590732             -12.4920
        49        2.0000           -0.4540594             -12.3556
        50        2.0000           -0.4493887             -12.2285
        51        2.0000           -0.4411392             -12.0040
        52        2.0000           -0.4362551             -11.8711
        53        2.0000           -0.4066879             -11.0665
        54        2.0000           -0.3963977             -10.7865
        55        2.0000           -0.3747698             -10.1980
        56        2.0000           -0.3727181             -10.1422
        57        2.0000           -0.3672772              -9.9941
        58        2.0000           -0.3633639              -9.8876 (HOMO)
        59                         -0.2570419              -6.9945 (LUMO)
        60                         -0.2460004              -6.6940
        61                         -0.2040273              -5.5519
        62                         -0.1769014              -4.8137
        63                         -0.1681774              -4.5763
        64                         -0.1529426              -4.1618
        65                         -0.1427566              -3.8846
        66                         -0.1374370              -3.7399
        67                         -0.1190397              -3.2392
        68                         -0.1105322              -3.0077
        69                         -0.0335720              -0.9135
       ...                                ...                  ...
       128                          1.3176938              35.8563
      -------------------------------------------------------------
                  HL-Gap            0.1063220 Eh            2.8932 eV
             Fermi-level           -0.3102029 Eh           -8.4411 eV

     #   Z          covCN         q      C6AA      α(0)
     1   6 C        3.751    -0.117    22.805     6.810
     2   6 C        3.862     0.082    19.177     6.228
     3   8 O        1.655    -0.247    18.117     5.746
     4  15 P        3.873     0.372   144.773    21.614
     5  16 S        0.928    -0.414   157.271    21.212
     6   8 O        1.656    -0.241    18.014     5.729
     7   6 C        3.865     0.086    19.120     6.218
     8   6 C        3.751    -0.114    22.744     6.801
     9  16 S        2.002    -0.119   146.036    20.339
    10   6 C        3.804     0.039    19.914     6.353
    11  16 S        2.015    -0.175   148.481    20.509
    12  15 P        3.843     0.368   144.898    21.623
    13  16 S        0.926    -0.361   154.809    21.045
    14   8 O        1.654    -0.222    17.704     5.680
    15   6 C        3.862     0.086    19.125     6.219
    16   6 C        3.752    -0.114    22.749     6.802
    17   8 O        1.655    -0.260    18.321     5.778
    18   6 C        3.852     0.083    19.176     6.228
    19   6 C        3.751    -0.116    22.781     6.807
    20   1 H        0.925     0.062     2.179     2.308
    21   1 H        0.925     0.063     2.168     2.303
    22   1 H        0.925     0.061     2.192     2.315
    23   1 H        0.924     0.062     2.176     2.307
    24   1 H        0.924     0.063     2.160     2.298
    25   1 H        0.924     0.057     2.231     2.336
    26   1 H        0.924     0.063     2.169     2.303
    27   1 H        0.925     0.057     2.236     2.338
    28   1 H        0.925     0.062     2.174     2.306
    29   1 H        0.925     0.060     2.200     2.319
    30   1 H        0.925     0.079     1.988     2.205
    31   1 H        0.924     0.092     1.863     2.135
    32   1 H        0.924     0.058     2.219     2.330
    33   1 H        0.924     0.051     2.312     2.378
    34   1 H        0.925     0.057     2.233     2.337
    35   1 H        0.925     0.066     2.127     2.281
    36   1 H        0.925     0.068     2.108     2.271
    37   1 H        0.924     0.064     2.158     2.297
    38   1 H        0.924     0.063     2.162     2.300
    39   1 H        0.925     0.062     2.175     2.306
    40   1 H        0.925     0.060     2.202     2.320
    41   1 H        0.925     0.057     2.234     2.338

 Mol. C6AA /au·bohr⁶  :      26560.169049
 Mol. C8AA /au·bohr⁸  :     863363.490178
 Mol. α(0) /au        :        258.371102


Wiberg/Mayer (AO) data.
largest (>0.10) Wiberg bond orders for each atom

 ---------------------------------------------------------------------------
     #   Z sym  total        # sym  WBO       # sym  WBO       # sym  WBO
 ---------------------------------------------------------------------------
     1   6 C    3.991 --     2 C    1.022    20 H    0.983    22 H    0.980
                            21 H    0.975
     2   6 C    3.911 --     1 C    1.022    24 H    0.970    23 H    0.968
                             3 O    0.908
     3   8 O    2.410 --     4 P    1.306     2 C    0.908
     4  15 P    5.286 --     5 S    1.533     6 O    1.313     3 O    1.306
                             9 S    0.994
     5  16 S    1.875 --     4 P    1.533     9 S    0.139
     6   8 O    2.407 --     4 P    1.313     7 C    0.900
     7   6 C    3.914 --     8 C    1.022    26 H    0.970    25 H    0.964
                             6 O    0.900
     8   6 C    3.991 --     7 C    1.022    28 H    0.984    27 H    0.981
                            29 H    0.978
     9  16 S    2.290 --     4 P    0.994    10 C    0.987     5 S    0.139
    10   6 C    3.956 --     9 S    0.987    11 S    0.985    30 H    0.968
                            31 H    0.941
    11  16 S    2.256 --    10 C    0.985    12 P    0.934    13 S    0.146
    12  15 P    5.286 --    13 S    1.585    14 O    1.342    17 O    1.285
                            11 S    0.934
    13  16 S    1.930 --    12 P    1.585    11 S    0.146
    14   8 O    2.419 --    12 P    1.342    15 C    0.889
    15   6 C    3.915 --    16 C    1.020    32 H    0.972    33 H    0.968
                            14 O    0.889
    16   6 C    3.986 --    15 C    1.020    36 H    0.983    35 H    0.981
                            34 H    0.980
    17   8 O    2.392 --    12 P    1.285    18 C    0.910
    18   6 C    3.912 --    19 C    1.022    37 H    0.970    38 H    0.970
                            17 O    0.910
    19   6 C    3.991 --    18 C    1.022    39 H    0.983    40 H    0.981
                            41 H    0.976
    20   1 H    0.996 --     1 C    0.983
    21   1 H    0.996 --     1 C    0.975
    22   1 H    0.996 --     1 C    0.980
    23   1 H    0.996 --     2 C    0.968
    24   1 H    0.996 --     2 C    0.970
    25   1 H    0.997 --     7 C    0.964
    26   1 H    0.996 --     7 C    0.970
    27   1 H    0.996 --     8 C    0.981
    28   1 H    0.996 --     8 C    0.984
    29   1 H    0.996 --     8 C    0.978
    30   1 H    0.993 --    10 C    0.968
    31   1 H    0.992 --    10 C    0.941
    32   1 H    0.997 --    15 C    0.972
    33   1 H    0.997 --    15 C    0.968
    34   1 H    0.995 --    16 C    0.980
    35   1 H    0.995 --    16 C    0.981
    36   1 H    0.995 --    16 C    0.983
    37   1 H    0.996 --    18 C    0.970
    38   1 H    0.996 --    18 C    0.970
    39   1 H    0.996 --    19 C    0.983
    40   1 H    0.996 --    19 C    0.981
    41   1 H    0.997 --    19 C    0.976
 ---------------------------------------------------------------------------

Topologies differ in total number of bonds
Writing topology from bond orders to xtbtopo.mol

molecular dipole:
                 x           y           z       tot (Debye)
 q only:        0.175      -0.834       1.520
   full:        0.034      -0.622       1.954       5.214
molecular quadrupole (traceless):
                xx          xy          yy          xz          yz          zz
 q only:       16.544      12.069     -15.804      -7.634      17.266      -0.740
  q+dip:       22.005      11.365     -17.119      -7.571      14.459      -4.886
   full:       22.168      11.766     -17.855      -7.746      16.156      -4.313


           -------------------------------------------------
          | TOTAL ENERGY              -65.009350423044 Eh   |
          | GRADIENT NORM               0.035868692701 Eh/α |
          | HOMO-LUMO GAP               2.893168117762 eV   |
           -------------------------------------------------

------------------------------------------------------------------------
 * finished run on 2025/04/09 at 05:20:53.616     
------------------------------------------------------------------------
 total:
 * wall-time:     0 d,  0 h,  0 min,  0.097 sec
 *  cpu-time:     0 d,  0 h,  0 min,  0.067 sec
 * ratio c/w:     0.690 speedup
 SCF:
 * wall-time:     0 d,  0 h,  0 min,  0.059 sec
 *  cpu-time:     0 d,  0 h,  0 min,  0.054 sec
 * ratio c/w:     0.914 speedup

