41
 energy: -2932.483531949004 gnorm: 0.003057282933 xtb: 6.7.1 (edcfbbe)
C            4.20438576095238       -0.90271006011312       -2.19010734042091
C            4.49070341335070       -0.75568746423759       -0.71580148306345
O            3.26091796271225       -0.59916162930352        0.07007835803921
P            2.45620064810652        0.79185224630610        0.18010907733737
S            3.51915681357890        2.42420552621022        0.10904041105231
O            1.58409012295874        0.51862106628762        1.49763220217523
C            2.25698686005500        0.28090131785720        2.78896301240926
C            2.01604540658624       -1.14628944624434        3.21320876648510
S            0.97806253725895        0.83654412482798       -1.31769093729589
C            0.33708909251881       -0.89290660981709       -1.31616543682258
S           -0.86799174519713       -1.36730192153402       -0.01500694220256
P           -2.50827300919910       -0.10882407912296       -0.50252237879127
S           -2.93668455274668        0.03522128214555       -2.39349633286311
O           -2.20875645185584        1.33293421984808        0.12822757162657
C           -1.86554970335860        1.51885568929253        1.54966668619603
C           -3.00969493716103        2.20676045028882        2.25050049122595
O           -3.61724174605880       -0.69808398891194        0.50284151700259
C           -4.65138485277916       -1.66077242654111        0.09159483749305
C           -4.12096304888188       -3.07023510197983        0.02203412398304
H            3.47320179607570       -1.69701401797412       -2.37008292518001
H            3.83374242481437        0.03007935071140       -2.62480627008686
H            5.13510281263615       -1.17219483563169       -2.70085687321507
H            5.14344055633043        0.09755454605986       -0.50809020640359
H            4.94451442509518       -1.65882097001562       -0.30287500311210
H            3.32598599051791        0.50500680319521        2.69797345347792
H            1.80691724185196        0.99787830860626        3.48121844594943
H            0.94322758944815       -1.35773402949661        3.27300960641092
H            2.48054809749663       -1.84790958423937        2.51323127883071
H            2.45372717953241       -1.30107184076226        4.20564338712990
H            1.16950339891158       -1.59535606560126       -1.21934940874460
H           -0.12769965386756       -1.02590081934327       -2.29767544838241
H           -1.63105772428797        0.55176376992999        2.00430520088979
H           -0.96021565136173        2.13061999340020        1.54621276132287
H           -2.72080497903115        2.40148714200891        3.28873057416369
H           -3.24219500187845        3.16348761372650        1.77355726104190
H           -3.90648985475220        1.58036803145245        2.25271514524278
H           -5.41549646294321       -1.55697385211186        0.86417118516741
H           -5.06416524384800       -1.32929655734288       -0.86565675009018
H           -4.96204851026203       -3.74639109142892       -0.16486177737672
H           -3.39971589811607       -3.19238135034877       -0.79098407694393
H           -3.65064447193541       -3.36043860685775        0.96632914127197
41
 energy: -2932.483545657862 gnorm: 0.002160121129 xtb: 6.7.1 (edcfbbe)
C            4.20290190486120       -0.90227969586392       -2.19024645727719
C            4.48918101262078       -0.75552104343907       -0.71601752276281
O            3.25924621185816       -0.59743174352039        0.06985380894747
P            2.45774678078097        0.79553112088863        0.17987319681207
S            3.52243646846462        2.42568833590901        0.11303513421016
O            1.58440309961142        0.52290732338059        1.49666140644848
C            2.25679475454959        0.28030065291040        2.78808915952248
C            2.01423196345336       -1.14542469901129        3.21386372957921
S            0.97935863656308        0.83347419882389       -1.31454709000175
C            0.33206692635867       -0.89345605348514       -1.31547107784221
S           -0.87083773834489       -1.37368914948532       -0.01425599749371
P           -2.50571931849904       -0.10924982946895       -0.50415224619868
S           -2.93763580959273        0.03482791302175       -2.39396375858667
O           -2.20544962464993        1.33234069584073        0.12726998227197
C           -1.86457500478849        1.51849492313727        1.54941499613352
C           -3.00858765464861        2.20645656151943        2.25033577921380
O           -3.61486260894425       -0.69798601944652        0.50134788435143
C           -4.64950610617453       -1.66071804684913        0.09138530300778
C           -4.11938075391194       -3.07037831147062        0.02207999695311
H            3.47460461871549       -1.69867190576195       -2.37113485522394
H            3.83001969179917        0.02939867216943       -2.62465608456238
H            5.13464433119289       -1.16774419113504       -2.70055278031477
H            5.14255090002127        0.09704094800740       -0.50724387988081
H            4.94079684166279       -1.65966166860416       -0.30255819307351
H            3.32492117563778        0.50297138172155        2.69543228322787
H            1.80921710591303        0.99698475263767        3.48109131136104
H            0.94225766859457       -1.35504108522307        3.27642397679472
H            2.47546308743024       -1.84789732265491        2.51386343152943
H            2.45420906200529       -1.30159842777921        4.20438733946045
H            1.16520276379191       -1.59499122878245       -1.21838080467195
H           -0.12984487660858       -1.02534919683484       -2.29850562568014
H           -1.63005396548518        0.55096174412576        2.00307973200363
H           -0.95931215899982        2.13048133970790        1.54596737561185
H           -2.72099302449547        2.40063154105643        3.28887772979929
H           -3.24010733724873        3.16323630776248        1.77367516462525
H           -3.90539028620247        1.58064263874329        2.25079718977760
H           -5.41283087985766       -1.55598810442316        0.86485848577395
H           -5.06296175059126       -1.32943227663890       -0.86567668047852
H           -4.96039362063128       -3.74624921342551       -0.16541479874188
H           -3.39768693747402       -3.19220690167821       -0.79037368503261
H           -3.64964537042804       -3.36068630909216        0.96644253579557
41
 energy: -2932.483563290026 gnorm: 0.000977157251 xtb: 6.7.1 (edcfbbe)
C            4.20170466195184       -0.90223725583653       -2.18996592943003
C            4.48764439281603       -0.75624683506245       -0.71566812723414
O            3.25752465164548       -0.59883916129352        0.07064399758513
P            2.45554328046315        0.79404956211933        0.17950556060673
S            3.51834688237377        2.42459545741501        0.10995537156781
O            1.58322832917671        0.52340838192669        1.49742861962378
C            2.25703912015241        0.27954488027356        2.78836789978173
C            2.01256015611436       -1.14510089044269        3.21484640794435
S            0.97991330076203        0.83656349148780       -1.31713537892084
C            0.33561312958126       -0.89163236437699       -1.31614096955036
S           -0.86967546052421       -1.37148438269175       -0.01739367315607
P           -2.50666847970444       -0.10942188689428       -0.50399304498670
S           -2.93716870645892        0.03371229739790       -2.39397694801597
O           -2.20405575013875        1.33193611707350        0.12720331037897
C           -1.86362095927251        1.51813975369843        1.54958954644591
C           -3.00770238285810        2.20617107140907        2.25019950785254
O           -3.61606907325028       -0.69730217977190        0.50168892658548
C           -4.64973271089519       -1.66100013862600        0.09209978810026
C           -4.11833057195414       -3.07027719206305        0.02264749396577
H            3.47668034392940       -1.70111723210885       -2.37206122213404
H            3.82575683297372        0.02840013469467       -2.62357598735130
H            5.13461912228205       -1.16304244178947       -2.70021074476068
H            5.14095155147111        0.09620597609754       -0.50608189502266
H            4.93867603759366       -1.66083829309672       -0.30244932216400
H            3.32465207716672        0.50081000205513        2.69351208312076
H            1.81159795294526        0.99664373446948        3.48163166432645
H            0.94094444701827       -1.35261444960184        3.28053563973547
H            2.47033359051263       -1.84874996796219        2.51443369539094
H            2.45509147155719       -1.30204741117851        4.20370704367097
H            1.16837165441744       -1.59349748912765       -1.21860171110770
H           -0.12614945679254       -1.02345146871887       -2.29926732367304
H           -1.62906692615854        0.55030752234906        2.00257720110636
H           -0.95841620053989        2.13026669824592        1.54586177356760
H           -2.72094207554632        2.39967280887654        3.28898808454130
H           -3.23821246663439        3.16316538239178        1.77383495634493
H           -3.90467288003094        1.58092625331511        2.24926885207444
H           -5.41281553387683       -1.55640618998741        0.86590826131951
H           -5.06341709454577       -1.33009712431249       -0.86502255433698
H           -4.95864218406441       -3.74659704884691       -0.16586657297661
H           -3.39590167297443       -3.19110267975429       -0.78919755481860
H           -3.64904364225975       -3.36062602637098        0.96710695495663
41
 energy: -2932.483575713650 gnorm: 0.001035038992 xtb: 6.7.1 (edcfbbe)
C            4.19924663394286       -0.90170750838382       -2.18929071889860
C            4.48430024887958       -0.75719863832728       -0.71484018001803
O            3.25399106516134       -0.59932825050611        0.07216023670797
P            2.45324795790544        0.79456922225010        0.18027681910089
S            3.51924809447724        2.42409528864664        0.10932165230888
O            1.58173883454142        0.52579372076695        1.49926107780569
C            2.25810116061169        0.27930441329111        2.78913861058413
C            2.00863313778333       -1.14429190272003        3.21502738286595
S            0.97660340016703        0.83781040389524       -1.31656265407612
C            0.33731158223208       -0.89214860009069       -1.31889607131803
S           -0.86731103175015       -1.36977454806411       -0.01931251127527
P           -2.50640557409957       -0.10938045949353       -0.50496975159038
S           -2.93887283982954        0.03575865530805       -2.39450936084153
O           -2.20116143852019        1.33156850014783        0.12621834866618
C           -1.86118246903710        1.51730745637894        1.54910885455953
C           -3.00607986990579        2.20495591409122        2.24864563981582
O           -3.61548429818185       -0.69631086910630        0.50157062512065
C           -4.64844075643784       -1.66129069495168        0.09327198062374
C           -4.11559146800161       -3.07005085745582        0.02363885451911
H            3.48017478736092       -1.70545242810248       -2.37346709626394
H            3.81682172049400        0.02733361142941       -2.62077680230211
H            5.13439065281515       -1.15421188216249       -2.69986879092143
H            5.13831901481748        0.09441648217515       -0.50437671763158
H            4.93442622355480       -1.66260777003046       -0.30251887215473
H            3.32621536506695        0.49656737588274        2.69171489325712
H            1.81627790492806        0.99805566277601        3.48297438305530
H            0.93641894292400       -1.34680049237840        3.28707859934349
H            2.45957218741533       -1.85067770204390        2.51274357344746
H            2.45599838026930       -1.30259162765129        4.20158300285007
H            1.17100692900572       -1.59283251086757       -1.22097968635455
H           -0.12470913816612       -1.02378648888566       -2.30188554607822
H           -1.62635432811138        0.54948918767231        2.00196312322636
H           -0.95635000393409        2.12993504874163        1.54591956662214
H           -2.72051774550839        2.39674747189270        3.28806433944494
H           -3.23486388944309        3.16291002916163        1.77332466584932
H           -3.90362437654847        1.58055398485646        2.24556086979172
H           -5.41095522827757       -1.55743747217301        0.86770841546094
H           -5.06345596651431       -1.33134298189994       -0.86361161613573
H           -4.95498122025401       -3.74703036060539       -0.16651688729931
H           -3.39208589267438       -3.18945734583361       -0.78745797719716
H           -3.64711542217377       -3.36054520679691        0.96846025557584
41
 energy: -2932.483588514841 gnorm: 0.001640285920 xtb: 6.7.1 (edcfbbe)
C            4.19378379216591       -0.90073195919907       -2.18782041377372
C            4.47793049405619       -0.75962431759937       -0.71311640826327
O            3.24710179421349       -0.60095874014242        0.07432299287255
P            2.44919997003297        0.79506561149079        0.18128184786639
S            3.51807253050516        2.42326435868607        0.10655609228143
O            1.57892653752079        0.53046506757670        1.50213518444089
C            2.25996346304611        0.27856561033816        2.78990491716896
C            1.99982228785138       -1.14251868564572        3.21652319165250
S            0.97435957510315        0.84151792347331       -1.31798254895432
C            0.33721923260974       -0.88957742844295       -1.32179358327197
S           -0.86691493286256       -1.37522808847008       -0.02492778914739
P           -2.50354912466731       -0.10881582278978       -0.50685318939884
S           -2.93877574411379        0.03661542728565       -2.39584556670745
O           -2.19504980811937        1.33170381796080        0.12409116269481
C           -1.85662083218105        1.51634283013012        1.54786964916514
C           -3.00286334887278        2.20279187273767        2.24605671747984
O           -3.61192030776142       -0.69448737037213        0.50108203355503
C           -4.64401096611889       -1.66169482513370        0.09552833091029
C           -4.10902238790532       -3.06963786884207        0.02557765053149
H            3.48688330237237       -1.71438896139615       -2.37646096511297
H            3.79762461554714        0.02510857922598       -2.61440231316470
H            5.13319824600418       -1.13605936885607       -2.69953601370508
H            5.13294946849413        0.09056755936134       -0.50052707170782
H            4.92610119019793       -1.66663943632149       -0.30236578850275
H            3.32963767436701        0.48646915379471        2.68730247772109
H            1.82693827770731        1.00139435376323        3.48533542584243
H            0.92605743230712       -1.33375926025349        3.30131859727807
H            2.43565581709135       -1.85388991200528        2.50909122265485
H            2.45714569299512       -1.30518745947188        4.19820372560430
H            1.17276743609845       -1.58819301077318       -1.22461706199980
H           -0.12285820835070       -1.02134135310160       -2.30565344738336
H           -1.62111969112861        0.54839870887564        2.00009998271608
H           -0.95243427841865        2.12982791086179        1.54601544808431
H           -2.72002159646161        2.39069506425421        3.28697985695009
H           -3.22854527666120        3.16274958330200        1.77310901750398
H           -3.90130298486847        1.57963216345802        2.23812688310517
H           -5.40515175573957       -1.55901917724570        0.87143832566056
H           -5.06192732519080       -1.33326270905874       -0.86063012953082
H           -4.94696388831059       -3.74760599910361       -0.16752360782836
H           -3.38361750448180       -3.18678657498004       -0.78418380563478
H           -3.64213999835906       -3.36056873384682        0.97109632669757
41
 energy: -2932.483595030814 gnorm: 0.001470462449 xtb: 6.7.1 (edcfbbe)
C            4.19079442627724       -0.90027247460327       -2.18715097598987
C            4.47534470007071       -0.76079970416733       -0.71239066718424
O            3.24442531107178       -0.60053032446779        0.07422906347390
P            2.45013317562820        0.79754890704321        0.18173283795793
S            3.52091755303762        2.42353331226137        0.10869470577075
O            1.57870973598562        0.53410706534861        1.50198373129294
C            2.26041185532767        0.27823336916543        2.78886292585321
C            1.99319240595341       -1.14103605898111        3.21799265668894
S            0.97498174582974        0.84133356576989       -1.31510683212838
C            0.33765209665643       -0.88947696987367       -1.32483438363136
S           -0.86654410196043       -1.37488634355783       -0.02804261285188
P           -2.50299097552736       -0.10904801828188       -0.50732931149343
S           -2.93783824992198        0.03619292924038       -2.39631215544754
O           -2.19280458431249        1.33121591238853        0.12288657547687
C           -1.85484234185279        1.51570037681591        1.54669296726693
C           -3.00109183351234        2.20170553311997        2.24520527219068
O           -3.61077172484815       -0.69384615834917        0.50161518093050
C           -4.64195714562173       -1.66234848648142        0.09719049168485
C           -4.10502796580757       -3.06951404482276        0.02690657788659
H            3.48962419636621       -1.71832266479408       -2.37777402761335
H            3.78740020509542        0.02381344601757       -2.61069025444392
H            5.13137507842108       -1.12725634244578       -2.70024657317537
H            5.13112072985901        0.08850831107007       -0.49880644980194
H            4.92191991075437       -1.66872158667213       -0.30187772787362
H            3.33144489589904        0.47925850291004        2.68392642091687
H            1.83401805701673        1.00427603127452        3.48531419246619
H            0.91853078627758       -1.32492005064122        3.30883539911091
H            2.41958610866444       -1.85437839576246        2.50677316019169
H            2.45532727542067       -1.30826749664204        4.19679439120385
H            1.17371314972952       -1.58763342764355       -1.22885623588028
H           -0.12232384215329       -1.01941906308807       -2.30901131100406
H           -1.61918816053803        0.54755895380663        1.99845410118289
H           -0.95069108325287        2.12925173662243        1.54519971415106
H           -2.71968445055203        2.38732541947553        3.28697733169028
H           -3.22579666594819        3.16267760935285        1.77379273249114
H           -3.89979751499688        1.57891288929769        2.23474575820349
H           -5.40229807331603       -1.56030420544931        0.87392755955594
H           -5.06094859973965       -1.33424362186974       -0.85858852163130
H           -4.94210562547104       -3.74832473950794       -0.16705408548629
H           -3.37901180116869       -3.18572994382879       -0.78247181343320
H           -3.63836025401312       -3.36047156373048        0.97255481484805
41
 energy: -2932.483599963254 gnorm: 0.000900967432 xtb: 6.7.1 (edcfbbe)
C            4.19061618622492       -0.90077514322345       -2.18718230076653
C            4.47551169587590       -0.76113329114636       -0.71237904748152
O            3.24479617694288       -0.60081781936184        0.07347553773368
P            2.45052345857554        0.79702543075277        0.18144435830111
S            3.52206092359140        2.42218994658599        0.11024359747983
O            1.57945305240194        0.53320842069274        1.50183126522177
C            2.26070086206126        0.27821738131085        2.78815382055551
C            1.98958341913585       -1.14036030920109        3.21873209284289
S            0.97482064206080        0.84331221706431       -1.31532272815012
C            0.33727860916937       -0.88733766993558       -1.32433403103656
S           -0.86423928805918       -1.37317683973562       -0.02478352491168
P           -2.50134126848946       -0.10948382115353       -0.50820715602120
S           -2.94022440683829        0.03762528630964       -2.39620820501948
O           -2.19298578603325        1.33083019366436        0.12211044305152
C           -1.85501727501429        1.51551229500156        1.54560424733240
C           -3.00095700888719        2.20128121810487        2.24506426988491
O           -3.60835775600705       -0.69461593734845        0.50136003849146
C           -4.64006060567318       -1.66290533133291        0.09744854056052
C           -4.10339546398803       -3.07003820911785        0.02716635728925
H            3.48915188598558       -1.71834472686618       -2.37726049070015
H            3.78643834907189        0.02308228778389       -2.60983284359410
H            5.13009559506483       -1.12761993735573       -2.70147218272473
H            5.13148993061723        0.08820152623960       -0.49937437685319
H            4.92254682320087       -1.66876673587541       -0.30169509114131
H            3.33241777301708        0.47575798910234        2.68269967983456
H            1.83730035721870        1.00646258812458        3.48415920948818
H            0.91460665925533       -1.32106637620522        3.30995621539781
H            2.41274535638018       -1.85417918082926        2.50646963206577
H            2.45181116073976       -1.30988652526029        4.19682791827284
H            1.17308985430687       -1.58612635266293       -1.23028450753031
H           -0.12435124713534       -1.01635395457809       -2.30793980099028
H           -1.61932528454426        0.54744432964330        1.99754868640611
H           -0.95077236123963        2.12896442329172        1.54407033518314
H           -2.71940137036040        2.38637212034718        3.28688257758200
H           -3.22639594991168        3.16241459868771        1.77436674653661
H           -3.89950019841997        1.57823837416601        2.23469136777678
H           -5.40000218039686       -1.56075426754440        0.87457736113535
H           -5.05945354065465       -1.33459699642870       -0.85805418952332
H           -4.94069968011678       -3.74896346256792       -0.16544832646286
H           -3.37824151526090       -3.18676751902029       -0.78288237227525
H           -3.63575889853304       -3.36055542625210        0.97248696664939
41
 energy: -2932.483599963254 gnorm: 0.000900967432 xtb: 6.7.1 (edcfbbe)
C            4.19061618622492       -0.90077514322345       -2.18718230076653
C            4.47551169587590       -0.76113329114636       -0.71237904748152
O            3.24479617694288       -0.60081781936184        0.07347553773368
P            2.45052345857554        0.79702543075277        0.18144435830111
S            3.52206092359140        2.42218994658599        0.11024359747983
O            1.57945305240194        0.53320842069274        1.50183126522177
C            2.26070086206126        0.27821738131085        2.78815382055551
C            1.98958341913585       -1.14036030920109        3.21873209284289
S            0.97482064206080        0.84331221706431       -1.31532272815012
C            0.33727860916937       -0.88733766993558       -1.32433403103656
S           -0.86423928805918       -1.37317683973562       -0.02478352491168
P           -2.50134126848946       -0.10948382115353       -0.50820715602120
S           -2.94022440683829        0.03762528630964       -2.39620820501948
O           -2.19298578603325        1.33083019366436        0.12211044305152
C           -1.85501727501429        1.51551229500156        1.54560424733240
C           -3.00095700888719        2.20128121810487        2.24506426988491
O           -3.60835775600705       -0.69461593734845        0.50136003849146
C           -4.64006060567318       -1.66290533133291        0.09744854056052
C           -4.10339546398803       -3.07003820911785        0.02716635728925
H            3.48915188598558       -1.71834472686618       -2.37726049070015
H            3.78643834907189        0.02308228778389       -2.60983284359410
H            5.13009559506483       -1.12761993735573       -2.70147218272473
H            5.13148993061723        0.08820152623960       -0.49937437685319
H            4.92254682320087       -1.66876673587541       -0.30169509114131
H            3.33241777301708        0.47575798910234        2.68269967983456
H            1.83730035721870        1.00646258812458        3.48415920948818
H            0.91460665925533       -1.32106637620522        3.30995621539781
H            2.41274535638018       -1.85417918082926        2.50646963206577
H            2.45181116073976       -1.30988652526029        4.19682791827284
H            1.17308985430687       -1.58612635266293       -1.23028450753031
H           -0.12435124713534       -1.01635395457809       -2.30793980099028
H           -1.61932528454426        0.54744432964330        1.99754868640611
H           -0.95077236123963        2.12896442329172        1.54407033518314
H           -2.71940137036040        2.38637212034718        3.28688257758200
H           -3.22639594991168        3.16241459868771        1.77436674653661
H           -3.89950019841997        1.57823837416601        2.23469136777678
H           -5.40000218039686       -1.56075426754440        0.87457736113535
H           -5.05945354065465       -1.33459699642870       -0.85805418952332
H           -4.94069968011678       -3.74896346256792       -0.16544832646286
H           -3.37824151526090       -3.18676751902029       -0.78288237227525
H           -3.63575889853304       -3.36055542625210        0.97248696664939
