41
 energy: -2932.486118111809 gnorm: 0.001696117063 xtb: 6.7.1 (edcfbbe)
C            1.11789976622390        3.23103657067656        0.29233948993892
C            1.23647754960201        1.97783178353256        1.12002851267183
O            2.21164650460724        1.10524965546832        0.45315501836077
P            2.54081561659994       -0.34370053061932        1.07203370579752
S            3.18088191384331       -0.42545376132803        2.90836995049664
O            3.52914770861408       -0.79461252020300       -0.10900989716389
C            4.53264306063907       -1.85410264442652        0.06327784896883
C            3.92975673544591       -3.23240360333678       -0.04814494825343
S            0.77623084373573       -1.49529454490994        0.93200101283486
C            0.42987834293800       -1.46398905969782       -0.87785797272693
S           -0.28393071974862        0.07229634367289       -1.59043514589587
P           -2.29405571368087       -0.07593113111631       -0.94082727422097
S           -3.22723346634555       -1.73348471560870       -1.34771805803185
O           -2.95510387388862        1.18872979022133       -1.68046156334103
C           -2.56860814255383        2.57617230465073       -1.33957073511686
C           -2.04122784853203        3.25856071102680       -2.57432955932001
O           -2.15149010721958        0.30249354167507        0.61569112659537
C           -3.20429304996106       -0.00261060328275        1.59619975454587
C           -4.36998564737422        0.94505147530954        1.47052376197218
H            0.40270203171162        3.90438755063443        0.77475578123474
H            2.08074853761653        3.74481271008961        0.22073928046325
H            0.75663204226995        3.00527464399857       -0.71531664245049
H            0.28227225222069        1.44494573336676        1.18645459477661
H            1.60460506587419        2.19137298623460        2.12871385959989
H            5.24244055138453       -1.66079739087976       -0.74297708801648
H            5.03460593070881       -1.70126318957340        1.02320047672258
H            4.74327831488194       -3.96506220187436       -0.05668107920020
H            3.27630923105751       -3.45908017141801        0.79807337501053
H            3.36273367569952       -3.33872076700850       -0.97734716928044
H           -0.25500003267844       -2.29605781763898       -1.06613693673785
H            1.35536867078668       -1.64169508645947       -1.43010986987846
H           -3.48331480140212        3.04778397753824       -0.97294977304873
H           -1.83111515169510        2.56508050153051       -0.53196165716645
H           -1.12531399839559        2.78182371179317       -2.93538952718450
H           -2.78629827473613        3.24985201806875       -3.37437907052902
H           -1.81177548446346        4.30027487447157       -2.32834697614494
H           -3.50416872184711       -1.04636154709864        1.46400254431879
H           -2.69611489965769        0.10461692477245        2.55637505140527
H           -4.89760239703983        0.81169054371191        0.52130364501022
H           -5.07578260823838        0.74211271224274        2.28194775096184
H           -4.03958764980436        1.98419553651292        1.55474780840902
41
 energy: -2932.486122152340 gnorm: 0.001174379950 xtb: 6.7.1 (edcfbbe)
C            1.11690270180184        3.23155010959747        0.29208777427544
C            1.23637456645308        1.97824976199819        1.11983465913562
O            2.21121587561275        1.10589711490568        0.45239254928185
P            2.53943030401589       -0.34341022750603        1.07018750543170
S            3.18108208024701       -0.42297210125291        2.90485905901712
O            3.52886752215011       -0.79386459818587       -0.11021653551518
C            4.53232940423432       -1.85399553402780        0.06205377634650
C            3.92869893145144       -3.23213019077967       -0.04864109273469
S            0.77457637486494       -1.49480987446722        0.93307161908267
C            0.43023403295265       -1.46228003765230       -0.87703373864854
S           -0.28152288291453        0.07664077295557       -1.58638964887108
P           -2.29219560229882       -0.07784445783327       -0.94081481716713
S           -3.23188168208686       -1.73194273259436       -1.34551119906505
O           -2.95358892229134        1.18705997896590       -1.67929769384318
C           -2.56693128262354        2.57429899168295       -1.33777091458419
C           -2.03905062025722        3.25657816356625       -2.57290240266265
O           -2.15020124481769        0.29975724219386        0.61599404460428
C           -3.20464754267461       -0.00342298338742        1.59560438790460
C           -4.37044825032225        0.94568424522244        1.46916185934872
H            0.40147207758825        3.90495702820220        0.77404644580906
H            2.07956945170010        3.74569479140890        0.21987998159790
H            0.75551283859970        3.00529594897870       -0.71539441400923
H            0.28202664849176        1.44553176125854        1.18687195759810
H            1.60474972718691        2.19165437088536        2.12838750722136
H            5.24197047892390       -1.66079459474818       -0.74475430752529
H            5.03474735241930       -1.70096779216232        1.02200637564586
H            4.74216805562369       -3.96507510531087       -0.05532578833700
H            3.27407604719554       -3.45752026699243        0.79745695515790
H            3.36218218038694       -3.33899178543823       -0.97855835244438
H           -0.25495757059396       -2.29539828900603       -1.06585391853993
H            1.35665398028300       -1.64074749372726       -1.42972381874417
H           -3.48173823715498        3.04654012352537       -0.97136875734779
H           -1.82939736252620        2.56338717208080       -0.52984169463023
H           -1.12309213627590        2.77949009065087       -2.93403102186254
H           -2.78410766810358        3.24813665696874       -3.37344938491804
H           -1.80873824246515        4.29846924901018       -2.32715241689332
H           -3.50534920252303       -1.04737289268026        1.46412370288347
H           -2.69755146132727        0.10371326791235        2.55670459213659
H           -4.89610572615918        0.81385644564494        0.51834042123564
H           -5.07815959346209        0.74125876186739        2.27949315195207
H           -4.04009277404986        1.98488396904114        1.55545110577549
41
 energy: -2932.486129275807 gnorm: 0.000991249212 xtb: 6.7.1 (edcfbbe)
C            1.11567029422670        3.23185747412183        0.29155915077357
C            1.23596585444252        1.97872812416267        1.11963661616676
O            2.21069827009815        1.10659628398334        0.45200401775496
P            2.54047710659541       -0.34176209965009        1.07074663841620
S            3.18374143658965       -0.41996900048036        2.90494312130054
O            3.52846824199377       -0.79300844428957       -0.11064233498047
C            4.53172400325060       -1.85385145304483        0.06082805060232
C            3.92744523896232       -3.23178136938396       -0.04899262379741
S            0.77665111461032       -1.49361712496934        0.93234258087951
C            0.43109875426647       -1.46360731056440       -0.87741576464773
S           -0.28363049450696        0.07332616219452       -1.58765352773271
P           -2.29336845217047       -0.07705468837931       -0.93956328322409
S           -3.22807813460638       -1.73290967759922       -1.34781274934652
O           -2.95475064934188        1.18806040892058       -1.67733856998604
C           -2.56587908717223        2.57443174395190       -1.33600891389004
C           -2.03668899765487        3.25555326760308       -2.57145617756987
O           -2.15058588003155        0.29873588123451        0.61767804695916
C           -3.20587421457165       -0.00387695319065        1.59631996706830
C           -4.37138243838215        0.94624318123937        1.46828765239021
H            0.40004503344421        3.90520759089330        0.77328645119237
H            2.07811849095404        3.74640957923168        0.21881330020858
H            0.75417788868819        3.00506277026607       -0.71575686614977
H            0.28174265969421        1.44580084810657        1.18747580399822
H            1.60491881028031        2.19242934934538        2.12788836403445
H            5.24067181347466       -1.66092397287675       -0.74681314811915
H            5.03504953419418       -1.70061272697658        1.02038256675213
H            4.74063973299612       -3.96511745456906       -0.05411201354278
H            3.27195032372281       -3.45588825842933        0.79694229978951
H            3.36145839853458       -3.33929098849875       -0.97933342079303
H           -0.25351930338009       -2.29776012794876       -1.06580356492310
H            1.35783140160688       -1.64173962694317       -1.43047000173635
H           -3.48012874732776        3.04798869009354       -0.96965430221074
H           -1.82827920927244        2.56243114179767       -0.52798850836486
H           -1.12121066691260        2.77703399572871       -2.93223888877565
H           -2.78164106741256        3.24748464933307       -3.37228474615010
H           -1.80487264837082        4.29734643541256       -2.32625276006462
H           -3.50716678560044       -1.04777393775707        1.46469408470192
H           -2.69971188063334        0.10316376349067        2.55805630651645
H           -4.89480007643156        0.81587142458193        0.51590561861498
H           -5.08101609770387        0.74053327791390        2.27696252475526
H           -4.04088113963989        1.98529011299561        1.55674355760489
41
 energy: -2932.486133835134 gnorm: 0.000839488785 xtb: 6.7.1 (edcfbbe)
C            1.11416171725610        3.23259296852094        0.29055007442428
C            1.23572825589526        1.97974156205716        1.11877816474750
O            2.21032887865836        1.10810655697051        0.45042611461355
P            2.54149417557583       -0.33982199689396        1.06940855065645
S            3.18313259830278       -0.41959313298534        2.90488937968626
O            3.52868227799431       -0.79153726898190       -0.11257212750318
C            4.53117882944448       -1.85325740613815        0.05882280532660
C            3.92586112456990       -3.23075286607430       -0.04971013620268
S            0.77848003384126       -1.49415324112507        0.93404338539449
C            0.43120562937884       -1.46316691710678       -0.87545482902035
S           -0.28378626065744        0.07208215109156       -1.58893359782269
P           -2.29339075661988       -0.07803338239438       -0.93808815294375
S           -3.22749811676144       -1.73426615497114       -1.34831740443860
O           -2.95448597061888        1.18764449205346       -1.67491599096584
C           -2.56382600570951        2.57352784061031       -1.33411220549023
C           -2.03313372477100        3.25389851678270       -2.56923690051952
O           -2.15061966209375        0.29627415789859        0.61956533706754
C           -3.20759720090087       -0.00459216173939        1.59664520331987
C           -4.37202183922154        0.94639990146995        1.46678213646108
H            0.39823354453820        3.90536857506012        0.77261854258522
H            2.07621309785878        3.74778447363211        0.21735449769151
H            0.75243063326664        3.00526716079650       -0.71657740786704
H            0.28192973546925        1.44618799546667        1.18746283445883
H            1.60545425384250        2.19381904146327        2.12671095760714
H            5.23947283169847       -1.66129915867744       -0.74944338230164
H            5.03523979257684       -1.69972087778264        1.01781340461659
H            4.73831438680808       -3.96482549646519       -0.05305958491710
H            3.26954016007417       -3.45325731383085        0.79581740806544
H            3.36070821563050       -3.33930316378434       -0.98023008727696
H           -0.25270022873724       -2.29730402004927       -1.06418714791015
H            1.35732390592009       -1.64089592709993       -1.42886245294084
H           -3.47729497079007        3.04862778258114       -0.96817724251717
H           -1.82671473947252        2.56078194128240       -0.52582719159038
H           -1.11836580961842        2.77376691453701       -2.92942641696296
H           -2.77777244918552        3.24648522739243       -3.37014703984693
H           -1.79999479987162        4.29534222891230       -2.32435341472529
H           -3.51014043918144       -1.04798266271924        1.46499448079577
H           -2.70280379528722        0.10239192338775        2.55897811548458
H           -4.89306207948859        0.81785967267653        0.51299518511905
H           -5.08387748253362        0.73993605843797        2.27290923258018
H           -4.04094740059223        1.98492377086168        1.55789813434879
41
 energy: -2932.486133835134 gnorm: 0.000839488785 xtb: 6.7.1 (edcfbbe)
C            1.11416171725610        3.23259296852094        0.29055007442428
C            1.23572825589526        1.97974156205716        1.11877816474750
O            2.21032887865836        1.10810655697051        0.45042611461355
P            2.54149417557583       -0.33982199689396        1.06940855065645
S            3.18313259830278       -0.41959313298534        2.90488937968626
O            3.52868227799431       -0.79153726898190       -0.11257212750318
C            4.53117882944448       -1.85325740613815        0.05882280532660
C            3.92586112456990       -3.23075286607430       -0.04971013620268
S            0.77848003384126       -1.49415324112507        0.93404338539449
C            0.43120562937884       -1.46316691710678       -0.87545482902035
S           -0.28378626065744        0.07208215109156       -1.58893359782269
P           -2.29339075661988       -0.07803338239438       -0.93808815294375
S           -3.22749811676144       -1.73426615497114       -1.34831740443860
O           -2.95448597061888        1.18764449205346       -1.67491599096584
C           -2.56382600570951        2.57352784061031       -1.33411220549023
C           -2.03313372477100        3.25389851678270       -2.56923690051952
O           -2.15061966209375        0.29627415789859        0.61956533706754
C           -3.20759720090087       -0.00459216173939        1.59664520331987
C           -4.37202183922154        0.94639990146995        1.46678213646108
H            0.39823354453820        3.90536857506012        0.77261854258522
H            2.07621309785878        3.74778447363211        0.21735449769151
H            0.75243063326664        3.00526716079650       -0.71657740786704
H            0.28192973546925        1.44618799546667        1.18746283445883
H            1.60545425384250        2.19381904146327        2.12671095760714
H            5.23947283169847       -1.66129915867744       -0.74944338230164
H            5.03523979257684       -1.69972087778264        1.01781340461659
H            4.73831438680808       -3.96482549646519       -0.05305958491710
H            3.26954016007417       -3.45325731383085        0.79581740806544
H            3.36070821563050       -3.33930316378434       -0.98023008727696
H           -0.25270022873724       -2.29730402004927       -1.06418714791015
H            1.35732390592009       -1.64089592709993       -1.42886245294084
H           -3.47729497079007        3.04862778258114       -0.96817724251717
H           -1.82671473947252        2.56078194128240       -0.52582719159038
H           -1.11836580961842        2.77376691453701       -2.92942641696296
H           -2.77777244918552        3.24648522739243       -3.37014703984693
H           -1.79999479987162        4.29534222891230       -2.32435341472529
H           -3.51014043918144       -1.04798266271924        1.46499448079577
H           -2.70280379528722        0.10239192338775        2.55897811548458
H           -4.89306207948859        0.81785967267653        0.51299518511905
H           -5.08387748253362        0.73993605843797        2.27290923258018
H           -4.04094740059223        1.98492377086168        1.55789813434879
