38
 energy: -1981.483978621263 gnorm: 0.002732442432 xtb: 6.7.1 (edcfbbe)
C            5.36230450953609       -2.37788817775221       -0.55214464135480
C            4.80030741250747       -1.86364393095592       -1.85606012462192
O            3.34343728388770       -2.04054202696849       -1.89785907815552
C            2.60279505316902       -1.11467069910138       -1.27907488779719
O            3.05122576128769       -0.11979971589517       -0.73368928704110
C            1.13395866614903       -1.45401593358423       -1.34520521558148
C            0.31993502268638       -0.39371441639653       -0.61680768894118
H            0.37514718229275        0.57063169204336       -1.12759890894524
C            0.75616376284163       -0.25778057844897        0.83101512218882
O            1.09027295480110       -1.19775691367295        1.52954846926759
O            0.67721238353714        1.01169169129159        1.23432516408644
C            1.01059886988391        1.28814511024091        2.63638260102639
C            2.50338856465694        1.43713215956667        2.80261634097374
S           -1.45588434436891       -0.94146270543905       -0.61091791381805
P           -2.48052018339297        0.88005711672032       -0.20260028706509
S           -1.96006513927284        2.42377898104545       -1.25512942212686
O           -3.99108979798866        0.33686210876658       -0.33782095518952
C           -4.61143771343172        0.20126835465067       -1.65015865995562
O           -2.38449647937951        1.18289948187604        1.37031042654895
C           -2.60752608179102        0.14996255808381        2.37646325785414
H            6.45352426071474       -2.28946564698998       -0.57791714112659
H            4.99230100337376       -1.80219192340130        0.30077453541178
H            5.10873138309251       -3.43281221164103       -0.40936758568992
H            5.15598734419548       -2.44876137233187       -2.70644086602269
H            5.02977287398185       -0.80759722924425       -2.02223955056269
H            0.99453393048416       -2.44742265001005       -0.90507025967969
H            0.83228248896517       -1.51699605134620       -2.39558845543927
H            0.48232879796158        2.21943761542598        2.84866225585573
H            0.59937881860094        0.48668159322598        3.25573491273582
H            2.71974506206448        1.70752179380758        3.84105032250558
H            3.02551788127687        0.50355254203035        2.57544942550011
H            2.88976768978529        2.22911783172023        2.15419325090676
H           -4.01023479342779       -0.44333043894628       -2.29738247634476
H           -4.73637433134659        1.18752198386785       -2.10335952861218
H           -5.58253815051986       -0.25782937241900       -1.46641458973801
H           -3.60369687964331       -0.28400141963327        2.26217694583779
H           -2.52606019287490        0.66160181144562        3.33534574893080
H           -1.84066227486209       -0.62527790343302        2.29783046146890
38
 energy: -1981.483986047832 gnorm: 0.001512274746 xtb: 6.7.1 (edcfbbe)
C            5.36228490775538       -2.37767802443450       -0.55257216055759
C            4.79994096823418       -1.86399464803742       -1.85660329516830
O            3.34287300087142       -2.04050288643885       -1.89816431705374
C            2.60279248797208       -1.11299983874722       -1.28117341739941
O            3.05146080509199       -0.11985294045056       -0.73355001842892
C            1.13447361664904       -1.45361110933015       -1.34474585966300
C            0.31979565284887       -0.39399701743239       -0.61605849606712
H            0.37393597392547        0.57033111035720       -1.12724485568770
C            0.75715856645993       -0.25749422226004        0.83116390517102
O            1.09149204933719       -1.19737623181375        1.52964194165844
O            0.67613450705703        1.01112567269696        1.23556704013065
C            1.00988383109377        1.28708972151890        2.63752070000412
C            2.50333847034651        1.43650853769232        2.80308315828808
S           -1.45511313865355       -0.94443964078723       -0.60844129894031
P           -2.47837815524488        0.87875507421999       -0.20424042681495
S           -1.96015436697950        2.42361609444809       -1.25526980729440
O           -3.98949596590485        0.33661760030554       -0.33816329799898
C           -4.61098222697925        0.20099723002720       -1.64980117285286
O           -2.38298938964057        1.18300109673798        1.36775296819839
C           -2.60765310997758        0.15129155211844        2.37503498903028
H            6.45309957865420       -2.28890840774329       -0.57838862887818
H            4.99151048280034       -1.80118055948102        0.29925211884753
H            5.10794622225792       -3.43179067592284       -0.40894549823172
H            5.15531486571228       -2.44876461983811       -2.70666561291360
H            5.02860346548555       -0.80841144215680       -2.02236909519458
H            0.99543617491130       -2.44721770306265       -0.90487666869507
H            0.83229419715598       -1.51653023729716       -2.39487683140309
H            0.48228354805454        2.21847655071731        2.85033289685844
H            0.59916614731905        0.48582508799201        3.25693404401119
H            2.71949683072360        1.70722063042648        3.84138673690196
H            3.02565556712598        0.50332245376992        2.57549392612879
H            2.88853852919539        2.22872991216216        2.15470334146819
H           -4.01050291779088       -0.44400339575434       -2.29687839150245
H           -4.73550894966955        1.18708091321490       -2.10294860238401
H           -5.58219993424776       -0.25737308633937       -1.46493028186002
H           -3.60402401776865       -0.28211271351078        2.26088982976253
H           -2.52644111834521        0.66368896553746        3.33346335222382
H           -1.84144181964754       -0.62453394088883        2.29770326048192
38
 energy: -1981.483990358968 gnorm: 0.001084358004 xtb: 6.7.1 (edcfbbe)
C            5.36254692608277       -2.37709707239894       -0.55379882342521
C            4.79998470214876       -1.86401691288049       -1.85813476400284
O            3.34270751521952       -2.04116246486385       -1.89773616731558
C            2.60369962723025       -1.11319888210251       -1.27992579114773
O            3.05221406294240       -0.11943994553104       -0.73412798261858
C            1.13580353220986       -1.45326627613974       -1.34435549830684
C            0.32100135650085       -0.39390791078884       -0.61565360352588
H            0.37448470769441        0.57043104125292       -1.12698103999589
C            0.75728867296647       -0.25738457057234        0.83168067593937
O            1.09295556829490       -1.19733361308132        1.52961895980389
O            0.67448729309067        1.01006770520795        1.23759803641292
C            1.00902961091529        1.28518283829338        2.63928888223351
C            2.50330272566391        1.43520506599974        2.80408517734660
S           -1.45373068420177       -0.94363756778557       -0.60878372195639
P           -2.47812764740745        0.87830088499530       -0.20479273912843
S           -1.95638369096564        2.41879974612366       -1.26015075760177
O           -3.98966376432176        0.33675257642767       -0.33775828704002
C           -4.61136313131688        0.20023016294074       -1.64899383543406
O           -2.38270244927496        1.18419137927255        1.36587546468977
C           -2.60856448266992        0.15375591808534        2.37424505761234
H            6.45289929172051       -2.28796089882218       -0.57969098954431
H            4.99097558171997       -1.79948314533553        0.29673633891680
H            5.10725193056748       -3.43032343524938       -0.40895442790033
H            5.15455519273969       -2.44834495543737       -2.70816545244165
H            5.02716555618949       -0.80870742110476       -2.02314903444537
H            0.99638166162757       -2.44685682306159       -0.90457005761761
H            0.83368617450292       -1.51624946217011       -2.39443369335019
H            0.48239061571057        2.21674075258282        2.85296992049899
H            0.59893422331203        0.48405606955591        3.25878414574739
H            2.71927358023735        1.70626431714956        3.84224415554479
H            3.02586172980482        0.50253849240960        2.57585330849430
H            2.88675206738003        2.22786725219498        2.15568194399317
H           -4.01153202010122       -0.44568005613070       -2.29539413424504
H           -4.73504051707610        1.18590705503448       -2.10275825088421
H           -5.58286014557169       -0.25706709401609       -1.46323484099485
H           -3.60514684441183       -0.27894734672838        2.25985320049580
H           -2.52759507248263        0.66724781103221        3.33200982358951
H           -1.84291316267870       -0.62256533613781        2.29800279148923
38
 energy: -1981.483992689216 gnorm: 0.000807237178 xtb: 6.7.1 (edcfbbe)
C            5.36286759507792       -2.37633979341253       -0.55460530576613
C            4.79976948798037       -1.86358264889218       -1.85892703234339
O            3.34242655246847       -2.04109469919045       -1.89774977641850
C            2.60357027499152       -1.11322373737613       -1.27951178314359
O            3.05223796413497       -0.11867837066844       -0.73491322250181
C            1.13562110525476       -1.45323872662566       -1.34382202840195
C            0.32041861613250       -0.39440084382048       -0.61478207685510
H            0.37358597839956        0.57011495141374       -1.12586878608319
C            0.75710286672838       -0.25819480291962        0.83249134865656
O            1.09503857304568       -1.19816892121681        1.52950974105609
O            0.67345489918489        1.00897341829246        1.23903936502844
C            1.00868704419532        1.28381708509337        2.64051218625382
C            2.50297370341431        1.43420350381786        2.80481475764769
S           -1.45403472722400       -0.94541543026350       -0.60729324741445
P           -2.47672371429547        0.87863709166159       -0.20580072322992
S           -1.95609035645411        2.41883192477792       -1.26291999524995
O           -3.98817430877438        0.33651128051547       -0.33809271227829
C           -4.61086592639456        0.19942504751652       -1.64885326515036
O           -2.38178301410457        1.18556725536988        1.36443829557136
C           -2.60888448574804        0.15615607278962        2.37368962720108
H            6.45337617006050       -2.28754984169041       -0.58062469655882
H            4.99171564858616       -1.79821608792319        0.29589756329397
H            5.10745024301121       -3.42968962713136       -0.40934269979273
H            5.15403817108806       -2.44823518101687       -2.70915648497964
H            5.02702265165285       -0.80804309157697       -2.02430437663212
H            0.99671998801515       -2.44698219258603       -0.90427883126681
H            0.83331741369736       -1.51609544658827       -2.39389623460470
H            0.48192850740000        2.21527095450707        2.85463256076610
H            0.59901007621840        0.48228277495229        3.25996203390295
H            2.71924560053340        1.70512768430414        3.84297394506921
H            3.02576805113548        0.50171129680637        2.57627056745613
H            2.88583063093557        2.22719418254466        2.15626887163912
H           -4.01200200612882       -0.44740021853994       -2.29540195051170
H           -4.73456448788836        1.18485772351717       -2.10341381159101
H           -5.58255251171782       -0.25721380690845       -1.46227046382807
H           -3.60574835375961       -0.27586423048810        2.25889020550885
H           -2.52812740543820        0.67057832806256        3.33099233464757
H           -1.84362963854935       -0.62072192528440        2.29840180567900
38
 energy: -1981.483992689216 gnorm: 0.000807237178 xtb: 6.7.1 (edcfbbe)
C            5.36286759507792       -2.37633979341253       -0.55460530576613
C            4.79976948798037       -1.86358264889218       -1.85892703234339
O            3.34242655246847       -2.04109469919045       -1.89774977641850
C            2.60357027499152       -1.11322373737613       -1.27951178314359
O            3.05223796413497       -0.11867837066844       -0.73491322250181
C            1.13562110525476       -1.45323872662566       -1.34382202840195
C            0.32041861613250       -0.39440084382048       -0.61478207685510
H            0.37358597839956        0.57011495141374       -1.12586878608319
C            0.75710286672838       -0.25819480291962        0.83249134865656
O            1.09503857304568       -1.19816892121681        1.52950974105609
O            0.67345489918489        1.00897341829246        1.23903936502844
C            1.00868704419532        1.28381708509337        2.64051218625382
C            2.50297370341431        1.43420350381786        2.80481475764769
S           -1.45403472722400       -0.94541543026350       -0.60729324741445
P           -2.47672371429547        0.87863709166159       -0.20580072322992
S           -1.95609035645411        2.41883192477792       -1.26291999524995
O           -3.98817430877438        0.33651128051547       -0.33809271227829
C           -4.61086592639456        0.19942504751652       -1.64885326515036
O           -2.38178301410457        1.18556725536988        1.36443829557136
C           -2.60888448574804        0.15615607278962        2.37368962720108
H            6.45337617006050       -2.28754984169041       -0.58062469655882
H            4.99171564858616       -1.79821608792319        0.29589756329397
H            5.10745024301121       -3.42968962713136       -0.40934269979273
H            5.15403817108806       -2.44823518101687       -2.70915648497964
H            5.02702265165285       -0.80804309157697       -2.02430437663212
H            0.99671998801515       -2.44698219258603       -0.90427883126681
H            0.83331741369736       -1.51609544658827       -2.39389623460470
H            0.48192850740000        2.21527095450707        2.85463256076610
H            0.59901007621840        0.48228277495229        3.25996203390295
H            2.71924560053340        1.70512768430414        3.84297394506921
H            3.02576805113548        0.50171129680637        2.57627056745613
H            2.88583063093557        2.22719418254466        2.15626887163912
H           -4.01200200612882       -0.44740021853994       -2.29540195051170
H           -4.73456448788836        1.18485772351717       -2.10341381159101
H           -5.58255251171782       -0.25721380690845       -1.46227046382807
H           -3.60574835375961       -0.27586423048810        2.25889020550885
H           -2.52812740543820        0.67057832806256        3.33099233464757
H           -1.84362963854935       -0.62072192528440        2.29840180567900
