      -----------------------------------------------------------      
     |                   =====================                   |     
     |                           x T B                           |     
     |                   =====================                   |     
     |                         S. Grimme                         |     
     |          Mulliken Center for Theoretical Chemistry        |     
     |                    University of Bonn                     |     
      -----------------------------------------------------------      

   * xtb version 6.7.1 (edcfbbe) compiled by 'albert@albert-system' on 2024-07-22

   xtb is free software: you can redistribute it and/or modify it under
   the terms of the GNU Lesser General Public License as published by
   the Free Software Foundation, either version 3 of the License, or
   (at your option) any later version.
   
   xtb is distributed in the hope that it will be useful,
   but WITHOUT ANY WARRANTY; without even the implied warranty of
   MERCHANTABILITY or FITNESS FOR A PARTICULAR PURPOSE.  See the
   GNU Lesser General Public License for more details.
   
   Cite this work as:
   * C. Bannwarth, E. Caldeweyher, S. Ehlert, A. Hansen, P. Pracht,
     J. Seibert, S. Spicher, S. Grimme, WIREs Comput. Mol. Sci., 2020, 11,
     e01493. DOI: 10.1002/wcms.1493
   
   for GFN2-xTB:
   * C. Bannwarth, S. Ehlert and S. Grimme., J. Chem. Theory Comput., 2019,
     15, 1652-1671. DOI: 10.1021/acs.jctc.8b01176
   for GFN1-xTB:
   * S. Grimme, C. Bannwarth, P. Shushkov, J. Chem. Theory Comput., 2017,
     13, 1989-2009. DOI: 10.1021/acs.jctc.7b00118
   for GFN0-xTB:
   * P. Pracht, E. Caldeweyher, S. Ehlert, S. Grimme, ChemRxiv, 2019, preprint.
     DOI: 10.26434/chemrxiv.8326202.v1
   for GFN-FF:
   * S. Spicher and S. Grimme, Angew. Chem. Int. Ed., 2020, 59, 15665-15673.
     DOI: 10.1002/anie.202004239
   
   for ALPB and GBSA implicit solvation:
   * S. Ehlert, M. Stahn, S. Spicher, S. Grimme, J. Chem. Theory Comput.,
     2021, 17, 4250-4261. DOI: 10.1021/acs.jctc.1c00471
   
   for ddCOSMO and CPCM-X implicit solvation:
   * M. Stahn, S. Ehlert, S. Grimme, J. Phys. Chem. A,
     2023, XX, XXXX-XXXX. DOI: 10.1021/acs.jpca.3c04382
   
   for DFT-D4:
   * E. Caldeweyher, C. Bannwarth and S. Grimme, J. Chem. Phys., 2017,
     147, 034112. DOI: 10.1063/1.4993215
   * E. Caldeweyher, S. Ehlert, A. Hansen, H. Neugebauer, S. Spicher,
     C. Bannwarth and S. Grimme, J. Chem. Phys., 2019, 150, 154122.
     DOI: 10.1063/1.5090222
   * E. Caldeweyher, J.-M. Mewes, S. Ehlert and S. Grimme, Phys. Chem. Chem. Phys.
     2020, 22, 8499-8512. DOI: 10.1039/D0CP00502A
   
   for sTDA-xTB:
   * S. Grimme and C. Bannwarth, J. Chem. Phys., 2016, 145, 054103.
     DOI: 10.1063/1.4959605
   
   in the mass-spec context:
   * V. Asgeirsson, C. Bauer and S. Grimme, Chem. Sci., 2017, 8, 4879.
     DOI: 10.1039/c7sc00601b
   * J. Koopman and S. Grimme, ACS Omega 2019, 4, 12, 15120-15133.
     DOI: 10.1021/acsomega.9b02011
   
   for metadynamics refer to:
   * S. Grimme, J. Chem. Theory Comput., 2019, 155, 2847-2862
     DOI: 10.1021/acs.jctc.9b00143
   
   for SPH calculations refer to:
   * S. Spicher and S. Grimme, J. Chem. Theory Comput., 2021, 17, 1701-1714
     DOI: 10.1021/acs.jctc.0c01306
   
   for ONIOM refer to:
   * C. Plett, A. Katbashev, S. Ehlert, S. Grimme, M. Bursch,
     Phys. Chem. Chem. Phys., 2023, 25, 17860-17868. DOI: 10.1039/D3CP02178E
   
   for DIPRO refer to:
   * J. Kohn, N. Gildemeister, S. Grimme, D. Fazzi, A. Hansen,
     J. Chem. Phys., 2023, just accepted.
   
   for PTB refer to:
   * S. Grimme, M. Mueller, A. Hansen, J. Chem. Phys., 2023, 158, 124111.
     DOI: 10.1063/5.0137838
   
   with help from (in alphabetical order)
   P. Atkinson, C. Bannwarth, F. Bohle, G. Brandenburg, E. Caldeweyher
   M. Checinski, S. Dohm, S. Ehlert, S. Ehrlich, I. Gerasimov, C. Hölzer
   A. Katbashev, J. Kohn, J. Koopman, C. Lavigne, S. Lehtola, F. März, M. Müller,
   F. Musil, H. Neugebauer, J. Pisarek, C. Plett, P. Pracht, F. Pultar,
   J. Seibert, P. Shushkov, S. Spicher, M. Stahn, M. Steiner, T. Strunk,
   J. Stückrath, T. Rose, and J. Unsleber
   
 * started run on 2025/04/11 at 03:16:19.263     
   ID    Z sym.   atoms
    1    6 C      1, 2, 7, 8, 10, 15, 16, 18, 19
    2    8 O      3, 6, 14, 17
    3   15 P      4, 12
    4   16 S      5, 9, 11, 13
    5    1 H      20-41

           -------------------------------------------------
          |                Calculation Setup                |
           -------------------------------------------------

          program call               : /srv/scratch/z5358697/.xtb/bin/xtb xtb_opt.coord --opt normal --orca -I xtb_opt-xcontrol-inp
          hostname                   : k163
          coordinate file            : xtb_opt.coord
          omp threads                :                    24

           -------------------------------------------------
          |                   Orca driver                   |
           -------------------------------------------------
orca executable           : /apps/z_install_tree/linux-rocky8-ivybridge/gcc-12.2.0/orca-6.0.0-srtngmq3qlimg2qxbl6avaaiffipurdx/bin/orca
orca input file           : xtb_opt.inp
orca input line           : 
orca parallel             : true
orca number of threads    : 24
                         * ORCA takes the control...
  ------------------------------------------------------------------------

                                 *****************
                                 * O   R   C   A *
                                 *****************

                                            #,                                       
                                            ###                                      
                                            ####                                     
                                            #####                                    
                                            ######                                   
                                           ########,                                 
                                     ,,################,,,,,                         
                               ,,#################################,,                 
                          ,,##########################################,,             
                       ,#########################################, ''#####,          
                    ,#############################################,,   '####,        
                  ,##################################################,,,,####,       
                ,###########''''           ''''###############################       
              ,#####''   ,,,,##########,,,,          '''####'''          '####       
            ,##' ,,,,###########################,,,                        '##       
           ' ,,###''''                  '''############,,,                           
         ,,##''                                '''############,,,,        ,,,,,,###''
      ,#''                                            '''#######################'''  
     '                                                          ''''####''''         
             ,#######,   #######,   ,#######,      ##                                
            ,#'     '#,  ##    ##  ,#'     '#,    #''#        ,####,   ,####,        
            ##       ##  ##   ,#'  ##            #'  '#       #'       #'  '#        
            ##       ##  #######   ##           ,######,      #####,   #    #        
            '#,     ,#'  ##    ##  '#,     ,#' ,#      #,     #,   #   #,  ,#        
             '#######'   ##     ##  '#######'  #'      '#     '####' # '####'        



                #########################################################
                #                        -***-                          #
                #          Department of theory and spectroscopy        #
                #                                                       #
                #                      Frank Neese                      #
                #                                                       #
                #     Directorship, Architecture, Infrastructure        #
                #                    SHARK, DRIVERS                     #
                #        Core code/Algorithms in most modules           #
                #                                                       #
                #        Max Planck Institute fuer Kohlenforschung      #
                #                Kaiser Wilhelm Platz 1                 #
                #                 D-45470 Muelheim/Ruhr                 #
                #                      Germany                          #
                #                                                       #
                #                  All rights reserved                  #
                #                        -***-                          #
                #########################################################


                         Program Version 6.0.0  -   RELEASE  -


 With contributions from (in alphabetic order):
   Daniel Aravena         : Magnetic Suceptibility
   Michael Atanasov       : Ab Initio Ligand Field Theory (pilot matlab implementation)
   Alexander A. Auer      : GIAO ZORA, VPT2 properties, NMR spectrum
   Ute Becker             : All parallelization in ORCA, NUMFREQ, NUMCALC
   Giovanni Bistoni       : ED, misc. LED, open-shell LED, HFLD
   Martin Brehm           : Molecular dynamics
   Dmytro Bykov           : pre 5.0 version of the SCF Hessian
   Marcos Casanova-Páez   : Triplet and SCS-CIS(D). UHF-(DLPNO)-IP/EA/STEOM-CCSD. UHF-CVS-IP/STEOM-CCSD
   Vijay G. Chilkuri      : MRCI spin determinant printing, contributions to CSF-ICE
   Pauline Colinet        : FMM embedding
   Dipayan Datta          : RHF DLPNO-CCSD density
   Achintya Kumar Dutta   : EOM-CC, STEOM-CC
   Nicolas Foglia         : Exact transition moments, OPA infrastructure, MCD improvements
   Dmitry Ganyushin       : Spin-Orbit,Spin-Spin,Magnetic field MRCI
   Miquel Garcia          : C-PCM and meta-GGA Hessian, CCSD/C-PCM, Gaussian charge scheme
   Tiago L. C. Gouveia    : GS-ROHF, GS-ROCIS
   Yang Guo               : DLPNO-NEVPT2, F12-NEVPT2, CIM, IAO-localization
   Andreas Hansen         : Spin unrestricted coupled pair/coupled cluster methods
   Ingolf Harden          : AUTO-CI MPn and infrastructure 
   Benjamin Helmich-Paris : MC-RPA, TRAH-(SCF,CASSCF), AVAS, COSX integrals, SCF dyn. polar.
   Lee Huntington         : MR-EOM, pCC
   Robert Izsak           : Overlap fitted RIJCOSX, COSX-SCS-MP3, EOM
   Riya Kayal             : Wick's Theorem for AUTO-CI, AUTO-CI UHF-CCSDT
   Emily Kempfer          : AUTO-CI, RHF CISDT and CCSDT
   Christian Kollmar      : KDIIS, OOCD, Brueckner-CCSD(T), CCSD density, CASPT2, CASPT2-K, improved NEVPT2
   Axel Koslowski         : Symmetry handling
   Simone Kossmann        : Meta GGA functionals, TD-DFT gradient, OOMP2, (MP2 Hessian; deprecated post 5.0)
   Lucas Lang             : DCDCAS
   Marvin Lechner         : AUTO-CI (C++ implementation), FIC-MRCC
   Spencer Leger          : CASSCF response
   Dagmar Lenk            : GEPOL surface, SMD, ORCA-2-JSON
   Dimitrios Liakos       : Extrapolation schemes; Compound Job, initial MDCI parallelization
   Dimitrios Manganas     : Further ROCIS development; embedding schemes. LFT, Crystal Embedding
   Dimitrios Pantazis     : SARC Basis sets
   Anastasios Papadopoulos: AUTO-CI, single reference methods and gradients
   Taras Petrenko         : pre 6.0 DFT Hessian and TD-DFT gradient, (ASA, deprecated), ECA, 1-Electron XAS/XES, NRVS
   Peter Pinski           : DLPNO-MP2, DLPNO-MP2 Gradient
   Christoph Reimann      : Effective Core Potentials
   Marius Retegan         : Local ZFS, SOC
   Christoph Riplinger    : Optimizer, TS searches, QM/MM, DLPNO-CCSD(T), (RO)-DLPNO pert. Triples
   Michael Roemelt        : Original ROCIS implementation
   Masaaki Saitow         : Open-shell DLPNO-CCSD energy and density
   Barbara Sandhoefer     : DKH picture change effects
   Kantharuban Sivalingam : CASSCF convergence/infrastructure, NEVPT2 and variants, FIC-MRCI
   Bernardo de Souza      : ESD, SOC TD-DFT
   Georgi Stoychev        : AutoAux, RI-MP2 NMR, DLPNO-MP2 response, X2C
   Van Anh Tran           : RI-MP2 g-tensors
   Willem Van den Heuvel  : Paramagnetic NMR
   Zikuan Wang            : NOTCH, Electric field optimization 
   Frank Wennmohs         : Technical directorship and infrastructure
   Hang Xu                : AUTO-CI-Response properties 


 We gratefully acknowledge several colleagues who have allowed us to
 interface, adapt or use parts of their codes:
   Stefan Grimme, W. Hujo, H. Kruse, P. Pracht,  : VdW corrections, initial TS optimization,
                  C. Bannwarth, S. Ehlert,         DFT functionals, gCP, sTDA/sTD-DF
                  L. Wittmann, M. Mueller
   Ed Valeev, F. Pavosevic, A. Kumar             : LibInt (2-el integral package), F12 methods
   Garnet Chan, S. Sharma, J. Yang, R. Olivares  : DMRG
   Ulf Ekstrom                                   : XCFun DFT Library
   Mihaly Kallay                                 : mrcc  (arbitrary order and MRCC methods)
   Frank Weinhold                                : gennbo (NPA and NBO analysis)
   Simon Mueller                                 : openCOSMO-RS
   Christopher J. Cramer and Donald G. Truhlar   : smd solvation model
   Lars Goerigk                                  : TD-DFT with DH, B97 family of functionals
   V. Asgeirsson, H. Jonsson                     : NEB implementation
   FAccTs GmbH                                   : IRC, NEB, NEB-TS, DLPNO-Multilevel, CI-OPT
                                                   MM, QMMM, 2- and 3-layer-ONIOM, Crystal-QMMM,
                                                   LR-CPCM, SF, NACMEs, symmetry and pop. for TD-DFT,
                                                   nearIR, NL-DFT gradient (VV10), updates on ESD,
                                                   ML-optimized integration grids, MBIS, APM,
                                                   GOAT, DOCKER, SOLVATOR, interface openCOSMO-RS
   S Lehtola, MJT Oliveira, MAL Marques          : LibXC Library
   Liviu Ungur et al                             : ANISO software


 Your calculation uses the libint2 library for the computation of 2-el integrals
 For citations please refer to: http://libint.valeyev.net

 Your ORCA version has been built with support for libXC version: 6.2.2
 For citations please refer to: https://libxc.gitlab.io

 This ORCA versions uses:
   CBLAS   interface :  Fast vector & matrix operations
   LAPACKE interface :  Fast linear algebra routines
   SCALAPACK package :  Parallel linear algebra routines
   Shared memory     :  Shared parallel matrices
   BLAS/LAPACK       :  OpenBLAS 0.3.27  USE64BITINT DYNAMIC_ARCH NO_AFFINITY SapphireRapids SINGLE_THREADED
        Core in use  :  SapphireRapids
   Copyright (c) 2011-2014, The OpenBLAS Project




***************************************
The coordinates will be read from file: xtb_opt.xyz
***************************************


Your calculation utilizes the geometrical counterpoise correction gCP
Please cite in your paper:
H.Kruse, S. Grimme J.Chem.Phys., 136, (2012), 154101 
   

Your calculation utilizes the atom-pairwise dispersion correction
based on EEQ partial charges (D4)


Your calculation utilizes the SMD solvation module
Please cite in your paper:
A.V. Marenich, C.J. Cramer, D.G. Truhlar J. Phys. Chem. B, 113, (2009), 6378 

================================================================================

----- Orbital basis set information -----
Your calculation utilizes the basis: def2-mTZVPP
   Stefan Grimme, Andreas Hansen, Sebastian Ehlert, and Jan-Michael Mewes 
   J. Chem. Phys. 154, 064103 (2021). DOI: 10.1063/5.0040021

----- AuxJ basis set information -----
Your calculation utilizes the auxiliary basis: def2/J
   F. Weigend, Phys. Chem. Chem. Phys. 8, 1057 (2006).

================================================================================
                                        WARNINGS
                       Please study these warnings very carefully!
================================================================================

WARNING: Old DensityContainer found on disk!
         Will remove this file - 
         If you want to keep old densities, please start your calculation with a different basename. 

Using LibXC functional ID 497 : Re-regularized SCAN exchange by Furness et al
[ 1]  J. W. Furness, A. D. Kaplan, J. Ning, J. P. Perdew, and J. Sun.,  J. Phys. Chem. Lett. 11, 8208-8215 (2020)
[ 2]  J. W. Furness, A. D. Kaplan, J. Ning, J. P. Perdew, and J. Sun.,  J. Phys. Chem. Lett. 11, 9248-9248 (2020)
Using LibXC functional ID 498 : Re-regularized SCAN correlation by Furness et al
[ 1]  J. W. Furness, A. D. Kaplan, J. Ning, J. P. Perdew, and J. Sun.,  J. Phys. Chem. Lett. 11, 8208-8215 (2020)
[ 2]  J. W. Furness, A. D. Kaplan, J. Ning, J. P. Perdew, and J. Sun.,  J. Phys. Chem. Lett. 11, 9248-9248 (2020)
Using LibXC functional ID 497 : Re-regularized SCAN exchange by Furness et al
[ 1]  J. W. Furness, A. D. Kaplan, J. Ning, J. P. Perdew, and J. Sun.,  J. Phys. Chem. Lett. 11, 8208-8215 (2020)
[ 2]  J. W. Furness, A. D. Kaplan, J. Ning, J. P. Perdew, and J. Sun.,  J. Phys. Chem. Lett. 11, 9248-9248 (2020)
Using LibXC functional ID 498 : Re-regularized SCAN correlation by Furness et al
[ 1]  J. W. Furness, A. D. Kaplan, J. Ning, J. P. Perdew, and J. Sun.,  J. Phys. Chem. Lett. 11, 8208-8215 (2020)
[ 2]  J. W. Furness, A. D. Kaplan, J. Ning, J. P. Perdew, and J. Sun.,  J. Phys. Chem. Lett. 11, 9248-9248 (2020)

================================================================================
                                       INPUT FILE
================================================================================
NAME = xtb_opt.inp
|  1> ! r2scan-3c def2/J RI DEFGRID2 scfconv7 ENGRAD tightSCF miniprint
|  2> %cpcm
|  3>     smd true
|  4>     smdsolvent "water"
|  5> end
|  6> * xyzfile 0 1 xtb_opt.xyz
|  7> 
|  8>                          ****END OF INPUT****
================================================================================

                     *******************************
                     * Energy+Gradient Calculation *
                     *******************************

---------------------------------
CARTESIAN COORDINATES (ANGSTROEM)
---------------------------------
  C      5.653526   -1.673529   -1.215756
  C      4.352900   -1.138317   -1.755488
  O      3.319024   -1.312836   -0.722557
  P      2.363842   -0.094345   -0.275690
  S      3.224513    1.613809    0.094057
  O      1.551179   -0.781111    0.923256
  C      2.112476   -0.871624    2.280772
  C      0.963680   -1.152096    3.216390
  S      0.928119   -0.110060   -1.828548
  C      0.142286    1.536329   -1.625950
  S     -0.770666    1.855120   -0.066343
  P     -2.298152    0.390232   -0.171346
  S     -3.016637    0.005762   -1.939426
  O     -3.325837    0.962344    0.932282
  C     -4.263561    2.041957    0.587995
  C     -4.973454    2.432566    1.857567
  O     -1.642261   -0.827541    0.641238
  C     -2.135273   -2.208144    0.521770
  C     -3.423576   -2.405568    1.281068
  H      5.986779   -1.089281   -0.353209
  H      5.551820   -2.721503   -0.919981
  H      6.418006   -1.608607   -1.996306
  H      4.007754   -1.697006   -2.629638
  H      4.431580   -0.078201   -2.015519
  H      2.852883   -1.677802    2.281196
  H      2.605021    0.076172    2.519745
  H      0.237976   -0.333653    3.196121
  H      0.458903   -2.086093    2.952031
  H      1.352773   -1.245785    4.234871
  H     -0.536699    1.636332   -2.477726
  H      0.908122    2.316029   -1.675373
  H     -3.695792    2.878880    0.167712
  H     -4.955742    1.660039   -0.167961
  H     -4.264916    2.798075    2.605851
  H     -5.684248    3.233562    1.633458
  H     -5.526936    1.584978    2.271428
  H     -2.240805   -2.445305   -0.541345
  H     -1.321271   -2.803738    0.940452
  H     -3.685717   -3.468348    1.256420
  H     -3.311004   -2.101899    2.325865
  H     -4.246282   -1.841485    0.831580

----------------------------
CARTESIAN COORDINATES (A.U.)
----------------------------
  NO LB      ZA    FRAG     MASS         X           Y           Z
   0 C     6.0000    0    12.011   10.683615   -3.162512   -2.297446
   1 C     6.0000    0    12.011    8.225789   -2.151107   -3.317391
   2 O     8.0000    0    15.999    6.272045   -2.480900   -1.365435
   3 P    15.0000    0    30.974    4.467015   -0.178286   -0.520978
   4 S    16.0000    0    32.060    6.093447    3.049657    0.177743
   5 O     8.0000    0    15.999    2.931303   -1.476086    1.744700
   6 C     6.0000    0    12.011    3.992000   -1.647131    4.310034
   7 C     6.0000    0    12.011    1.821091   -2.177145    6.078096
   8 S    16.0000    0    32.060    1.753891   -0.207983   -3.455455
   9 C     6.0000    0    12.011    0.268882    2.903241   -3.072600
  10 S    16.0000    0    32.060   -1.456349    3.505668   -0.125370
  11 P    15.0000    0    30.974   -4.342879    0.737431   -0.323798
  12 S    16.0000    0    32.060   -5.700617    0.010889   -3.664984
  13 O     8.0000    0    15.999   -6.284920    1.818566    1.761758
  14 C     6.0000    0    12.011   -8.056962    3.858740    1.111150
  15 C     6.0000    0    12.011   -9.398465    4.596884    3.510293
  16 O     8.0000    0    15.999   -3.103423   -1.563827    1.211764
  17 C     6.0000    0    12.011   -4.035080   -4.172787    0.986002
  18 C     6.0000    0    12.011   -6.469620   -4.545864    2.420867
  19 H     1.0000    0     1.008   11.313373   -2.058443   -0.667468
  20 H     1.0000    0     1.008   10.491419   -5.142894   -1.738513
  21 H     1.0000    0     1.008   12.128273   -3.039827   -3.772472
  22 H     1.0000    0     1.008    7.573558   -3.206876   -4.969296
  23 H     1.0000    0     1.008    8.374472   -0.147779   -3.808779
  24 H     1.0000    0     1.008    5.391168   -3.170586    4.310836
  25 H     1.0000    0     1.008    4.922777    0.143944    4.761628
  26 H     1.0000    0     1.008    0.449710   -0.630512    6.039794
  27 H     1.0000    0     1.008    0.867200   -3.942144    5.578529
  28 H     1.0000    0     1.008    2.556370   -2.354193    8.002746
  29 H     1.0000    0     1.008   -1.014214    3.092220   -4.682224
  30 H     1.0000    0     1.008    1.716102    4.376661   -3.165997
  31 H     1.0000    0     1.008   -6.984035    5.440295    0.316929
  32 H     1.0000    0     1.008   -9.364996    3.137018   -0.317400
  33 H     1.0000    0     1.008   -8.059523    5.287595    4.924344
  34 H     1.0000    0     1.008  -10.741671    6.110547    3.086788
  35 H     1.0000    0     1.008  -10.444395    2.995174    4.292377
  36 H     1.0000    0     1.008   -4.234508   -4.620956   -1.022994
  37 H     1.0000    0     1.008   -2.496841   -5.298296    1.777197
  38 H     1.0000    0     1.008   -6.964995   -6.554229    2.374289
  39 H     1.0000    0     1.008   -6.256891   -3.972013    4.395248
  40 H     1.0000    0     1.008   -8.024311   -3.479902    1.571459

------------------------------------------------------------------------------
                   ___                                                        
                  /   \      - P O W E R E D   B Y -                         
                 /     \                                                     
                 |  |  |   _    _      __       _____    __    __             
                 |  |  |  | |  | |    /  \     |  _  \  |  |  /  |          
                  \  \/   | |  | |   /    \    | | | |  |  | /  /          
                 / \  \   | |__| |  /  /\  \   | |_| |  |  |/  /          
                |  |  |   |  __  | /  /__\  \  |    /   |      \           
                |  |  |   | |  | | |   __   |  |    \   |  |\   \          
                \     /   | |  | | |  |  |  |  | |\  \  |  | \   \       
                 \___/    |_|  |_| |__|  |__|  |_| \__\ |__|  \__/        
                                                                              
                      - O R C A' S   B I G   F R I E N D -                    
                                      &                                       
                       - I N T E G R A L  F E E D E R -                       
                                                                              
 v1 FN, 2020, v2 2021, v3 2022-2024                                           
------------------------------------------------------------------------------


----------------------
SHARK INTEGRAL PACKAGE
----------------------

Number of atoms                             ...     41
Number of basis functions                   ...    539
Number of shells                            ...    253
Maximum angular momentum                    ...      2
Integral batch strategy                     ... SHARK/LIBINT Hybrid
RI-J (if used) integral strategy            ... SPLIT-RIJ (Revised 2003 algorithm where possible)
Printlevel                                  ...      1
Contraction scheme used                     ... SEGMENTED contraction
Prescreening option                         ... SCHWARTZ
   Thresh                                   ... 3.000e-11
   Tcut                                     ... 1.000e-12
   Tpresel                                  ... 1.000e-12 
Coulomb Range Separation                    ... NOT USED
Exchange Range Separation                   ... NOT USED
Multipole approximations                    ... NOT USED
Finite Nucleus Model                        ... NOT USED
CABS basis                                  ... NOT available
Auxiliary Coulomb fitting basis             ... AVAILABLE
   # of basis functions in Aux-J            ...   1185
   # of shells in Aux-J                     ...    407
   Maximum angular momentum in Aux-J        ...      4
Auxiliary J/K fitting basis                 ... NOT available
Auxiliary Correlation fitting basis         ... NOT available
Auxiliary 'external' fitting basis          ... NOT available

Checking pre-screening integrals            ... done (  0.0 sec) Dimension = 253
Check shell pair data                       ... done (  0.0 sec)
Shell pair information
Shell pair cut-off parameter TPreSel        ...   1.0e-12
Total number of shell pairs                 ...     32131
Shell pairs after pre-screening             ...     21268
Total number of primitive shell pairs       ...    124843
Primitive shell pairs kept                  ...     49805
          la=0 lb=0:   6001 shell pairs
          la=1 lb=0:   7730 shell pairs
          la=1 lb=1:   2523 shell pairs
          la=2 lb=0:   2847 shell pairs
          la=2 lb=1:   1814 shell pairs
          la=2 lb=2:    353 shell pairs

Calculating one electron integrals          ... done (  0.1 sec)
Calculating RI/J V-Matrix + Cholesky decomp.... done (  0.2 sec)
Calculating Nuclear repulsion               ... done (  0.0 sec) ENN=   2696.811121156643 Eh

Diagonalization of the overlap matrix:
Smallest eigenvalue                        ... 3.223e-04
Time for diagonalization                   ...    0.032 sec
Threshold for overlap eigenvalues          ... 1.000e-07
Number of eigenvalues below threshold      ... 0
Time for construction of square roots      ...    0.126 sec
Total time needed                          ...    0.197 sec

-------------------
DFT GRID GENERATION
-------------------

General Integration Accuracy     IntAcc      ... 4.388
Radial Grid Type                 RadialGrid  ... OptM3 with GC (2021)
Angular Grid (max. ang.)         AngularGrid ... 4 (Lebedev-302)
Angular grid pruning method      GridPruning ... 4 (adaptive)
Weight generation scheme         WeightScheme... mBecke (2022)
Basis function cutoff            BFCut       ... 1.0000e-11
Integration weight cutoff        WCut        ... 1.0000e-14
Partially contracted basis set               ... off
Rotationally invariant grid construction     ... off
Angular grids for H and He will be reduced by one unit
Diffuse basis detected: some atoms will have their outermost
                        angular grid increased by 1.

Total number of grid points                  ...   193146
Total number of batches                      ...     3038
Average number of points per batch           ...       63
Average number of grid points per atom       ...     4711
Initializing property integral containers    ... done (  0.0 sec)

SHARK setup successfully completed in   3.7 seconds

Maximum memory used throughout the entire STARTUP-calculation: 101.7 MB
Occupation numbers will be reassigned to an Aufbau configuration
             **** ENERGY FILE WAS UPDATED (xtb_opt.en.tmp) ****
Finished Guess after   1.2 sec
Maximum memory used throughout the entire GUESS-calculation: 55.2 MB
--------------------
CPCM SOLVATION MODEL
--------------------
CPCM parameters:
  Epsilon                                         ...      78.3550
  Refrac                                          ...       1.3328
  Rsolv                                           ...       1.3000
  Surface type                                    ... GAUSSIAN VDW
  Discretization scheme                           ... Constant charge density
    Threshold for H atoms                         ...       5.0000 (charges/Ang^2)
    Threshold for non-H atoms                     ...       5.0000 (charges/Ang^2)
  Epsilon function type                           ...         CPCM
Solvent:                                          ... WATER
SMD-CDS solvent descriptors:
  Soln                                            ...       1.3328
  Soln25                                          ...       1.3323
  Sola                                            ...       0.0000
  Solb                                            ...       0.0000
  Solg                                            ...       0.0000
  Solc                                            ...       0.0000
  Solh                                            ...       0.0000
Radii:
  Scheme                                          ... Element-dependent radii
  Radius for C  used is    3.4960 Bohr (=   1.8500 Ang.)
  Radius for O  used is    2.8724 Bohr (=   1.5200 Ang.)
  Radius for P  used is    4.0062 Bohr (=   2.1200 Ang.)
  Radius for S  used is    4.7054 Bohr (=   2.4900 Ang.)
  Radius for H  used is    2.2677 Bohr (=   1.2000 Ang.)
Calculating surface                               ...        done! (  0.0s)
Cavity surface points                             ...         3538
Cavity Volume                                     ...    2836.1863
Cavity Surface-area                               ...    1472.7958
Calculating surface distance matrix               ...        done! (  0.1s)
Performing Cholesky decomposition & store         ...        done! (  1.7s)
Overall time for CPCM initialization              ...                 1.8s

----------------------------------------D-I-I-S--------------------------------------------
Iteration    Energy (Eh)           Delta-E    RMSDP     MaxDP     DIISErr   Damp  Time(sec)
-------------------------------------------------------------------------------------------
               ***  Starting incremental Fock matrix formation  ***
                              *** Initializing SOSCF ***
---------------------------------------S-O-S-C-F--------------------------------------
Iteration    Energy (Eh)           Delta-E    RMSDP     MaxDP     MaxGrad    Time(sec)
--------------------------------------------------------------------------------------
    1    -2932.5219235210561237     0.00e+00  1.18e-06  8.68e-05  4.87e-06    13.7
               *** Restarting incremental Fock matrix formation ***
    2    -2932.5219235024987938     1.86e-08  2.02e-06  1.47e-04  2.59e-05    13.4
    3    -2932.5219233326024550     1.70e-07  1.46e-06  9.77e-05  5.00e-05     8.5
    4    -2932.5219235518516143    -2.19e-07  1.96e-07  1.72e-05  1.71e-06     8.4
                  *** Gradient check signals convergence ***

               *****************************************************
               *                     SUCCESS                       *
               *           SCF CONVERGED AFTER   4 CYCLES          *
               *****************************************************


SMD CDS free energy correction energy :                 7.31294     Kcal/mol
Total Energy after SMD CDS correction =             -2932.510269645 Eh
             **** ENERGY FILE WAS UPDATED (xtb_opt.en.tmp) ****

----------------
TOTAL SCF ENERGY
----------------

Total Energy       :      -2932.51026964514540 Eh          -79797.66127 eV

Components:
Nuclear Repulsion  :       2696.81112115664291 Eh           73383.96138 eV
Electronic Energy  :      -5629.30431469382165 Eh         -153181.15798 eV
One Electron Energy:      -9416.78832637507730 Eh         -256243.83755 eV
Two Electron Energy:       3787.48401168125565 Eh          103062.67956 eV
CPCM Dielectric    :         -0.02873001467273 Eh              -0.78178 eV
SMD CDS (Gcds)     :          0.01165390670644 Eh               0.31712 eV

Virial components:
Potential Energy   :      -5855.61356893329139 Eh         -159339.34587 eV
Kinetic Energy     :       2923.10329928814645 Eh           79541.68459 eV
Virial Ratio       :          2.00321814503076

DFT components:
N(Alpha)           :      101.000068115664 electrons
N(Beta)            :      101.000068115664 electrons
N(Total)           :      202.000136231327 electrons
E(X)               :     -233.396743117945 Eh       
E(C)               :       -7.101006321981 Eh       
E(XC)              :     -240.497749439926 Eh       

CPCM Solvation Model Properties:
Surface-charge          :         -0.04639151149905
Corrected charge        :          0.00000000000000
Outlying charge corr.   :          0.00010791993051 Eh               0.00294 eV
Free-energy (cav+disp)  :          0.01165390670644 Eh               0.31712 eV

---------------
SCF CONVERGENCE
---------------

  Last Energy change         ...    2.1925e-07  Tolerance :   1.0000e-07
  Last MAX-Density change    ...    1.7153e-05  Tolerance :   1.0000e-07
  Last RMS-Density change    ...    1.9617e-07  Tolerance :   5.0000e-09
  Last DIIS Error            ...    1.2992e-04  Tolerance :   1.0000e-07
  Last Orbital Gradient      ...    1.7066e-06  Tolerance :   1.0000e-04
  Last Orbital Rotation      ...    7.0002e-06  Tolerance :   1.0000e-04


----------------
ORBITAL ENERGIES
----------------

  NO   OCC          E(Eh)            E(eV) 
   0   2.0000     -88.583745     -2410.4862 
   1   2.0000     -88.582957     -2410.4648 
   2   2.0000     -88.532022     -2409.0788 
   3   2.0000     -88.531147     -2409.0550 
   4   2.0000     -76.921351     -2093.1364 
   5   2.0000     -76.921221     -2093.1328 
   6   2.0000     -18.994425      -516.8646 
   7   2.0000     -18.994222      -516.8591 
   8   2.0000     -18.993186      -516.8309 
   9   2.0000     -18.992788      -516.8200 
  10   2.0000     -10.111141      -275.1381 
  11   2.0000     -10.092095      -274.6199 
  12   2.0000     -10.092070      -274.6192 
  13   2.0000     -10.091938      -274.6156 
  14   2.0000     -10.091764      -274.6109 
  15   2.0000     -10.022298      -272.7206 
  16   2.0000     -10.022153      -272.7167 
  17   2.0000     -10.021933      -272.7107 
  18   2.0000     -10.021720      -272.7049 
  19   2.0000      -7.877275      -214.3516 
  20   2.0000      -7.876511      -214.3308 
  21   2.0000      -7.827266      -212.9907 
  22   2.0000      -7.826421      -212.9677 
  23   2.0000      -6.599058      -179.5695 
  24   2.0000      -6.598968      -179.5671 
  25   2.0000      -5.824323      -158.4879 
  26   2.0000      -5.823537      -158.4665 
  27   2.0000      -5.820915      -158.3952 
  28   2.0000      -5.820228      -158.3764 
  29   2.0000      -5.814603      -158.2234 
  30   2.0000      -5.813782      -158.2010 
  31   2.0000      -5.774678      -157.1370 
  32   2.0000      -5.773814      -157.1135 
  33   2.0000      -5.767571      -156.9436 
  34   2.0000      -5.767389      -156.9386 
  35   2.0000      -5.766712      -156.9202 
  36   2.0000      -5.766569      -156.9163 
  37   2.0000      -4.744556      -129.1059 
  38   2.0000      -4.744296      -129.0989 
  39   2.0000      -4.743976      -129.0901 
  40   2.0000      -4.743915      -129.0885 
  41   2.0000      -4.742988      -129.0633 
  42   2.0000      -4.742947      -129.0621 
  43   2.0000      -1.040420       -28.3113 
  44   2.0000      -1.039783       -28.2939 
  45   2.0000      -1.001063       -27.2403 
  46   2.0000      -1.000232       -27.2177 
  47   2.0000      -0.796232       -21.6666 
  48   2.0000      -0.756524       -20.5861 
  49   2.0000      -0.743622       -20.2350 
  50   2.0000      -0.724733       -19.7210 
  51   2.0000      -0.724471       -19.7139 
  52   2.0000      -0.710657       -19.3380 
  53   2.0000      -0.692453       -18.8426 
  54   2.0000      -0.677672       -18.4404 
  55   2.0000      -0.626725       -17.0541 
  56   2.0000      -0.613203       -16.6861 
  57   2.0000      -0.595893       -16.2151 
  58   2.0000      -0.588628       -16.0174 
  59   2.0000      -0.587211       -15.9788 
  60   2.0000      -0.532047       -14.4777 
  61   2.0000      -0.522880       -14.2283 
  62   2.0000      -0.493297       -13.4233 
  63   2.0000      -0.489089       -13.3088 
  64   2.0000      -0.470213       -12.7951 
  65   2.0000      -0.452272       -12.3069 
  66   2.0000      -0.450159       -12.2494 
  67   2.0000      -0.442624       -12.0444 
  68   2.0000      -0.440047       -11.9743 
  69   2.0000      -0.429861       -11.6971 
  70   2.0000      -0.417268       -11.3544 
  71   2.0000      -0.411609       -11.2005 
  72   2.0000      -0.403912       -10.9910 
  73   2.0000      -0.396695       -10.7946 
  74   2.0000      -0.389550       -10.6002 
  75   2.0000      -0.385961       -10.5025 
  76   2.0000      -0.383155       -10.4262 
  77   2.0000      -0.364690        -9.9237 
  78   2.0000      -0.359945        -9.7946 
  79   2.0000      -0.356285        -9.6950 
  80   2.0000      -0.353626        -9.6227 
  81   2.0000      -0.350858        -9.5473 
  82   2.0000      -0.348506        -9.4833 
  83   2.0000      -0.343345        -9.3429 
  84   2.0000      -0.341269        -9.2864 
  85   2.0000      -0.330700        -8.9988 
  86   2.0000      -0.319802        -8.7023 
  87   2.0000      -0.318789        -8.6747 
  88   2.0000      -0.311971        -8.4892 
  89   2.0000      -0.310330        -8.4445 
  90   2.0000      -0.300468        -8.1762 
  91   2.0000      -0.290900        -7.9158 
  92   2.0000      -0.284147        -7.7320 
  93   2.0000      -0.279595        -7.6082 
  94   2.0000      -0.277251        -7.5444 
  95   2.0000      -0.255195        -6.9442 
  96   2.0000      -0.243334        -6.6215 
  97   2.0000      -0.236731        -6.4418 
  98   2.0000      -0.231710        -6.3052 
  99   2.0000      -0.225696        -6.1415 
 100   2.0000      -0.223660        -6.0861 
 101   0.0000      -0.053553        -1.4572 
 102   0.0000      -0.029969        -0.8155 
 103   0.0000      -0.011882        -0.3233 
 104   0.0000      -0.003945        -0.1073 
 105   0.0000       0.002937         0.0799 
 106   0.0000       0.016495         0.4489 
 107   0.0000       0.027261         0.7418 
 108   0.0000       0.029274         0.7966 
 109   0.0000       0.045601         1.2409 
 110   0.0000       0.067381         1.8335 
 111   0.0000       0.071759         1.9527 
*Only the first 10 virtual orbitals were printed.
Total SCF time: 0 days 0 hours 0 min 46 sec 
Finished LeanSCF after  47.3 sec

Maximum memory used throughout the entire LEANSCF-calculation: 142.3 MB


-------------------------------------------------------------------------------
                          DFT DISPERSION CORRECTION                            
                                                                               
                                DFTD4 V3.4.0                                   
-------------------------------------------------------------------------------
-------------------------   ----------------
Dispersion correction           -0.020156515
-------------------------   ----------------

------------------   -----------------
gCP correction             0.044731887
------------------   -----------------

-------------------------   --------------------
FINAL SINGLE POINT ENERGY     -2932.485694273717
-------------------------   --------------------

------------------------------------------------------------------------------
                         ORCA SCF GRADIENT CALCULATION
------------------------------------------------------------------------------

Nuc. rep. gradient        (SHARK) ... done (  0.0 sec)
HCore & Overlap gradient  (SHARK) ... done (  2.0 sec)
Split-RIJ-J gradient      (SHARK) ... done (  9.3 sec)
XC gradient                       ... done ( 22.7 sec)
CPCM gradient                     ... done (  8.3 sec)
SMD gradient                      ... done (  0.0 sec)
Dispersion correction             ... done (  0.0 sec)

-------------------
DISPERSION GRADIENT
-------------------

   1   C   :    0.000120214   -0.000060801   -0.000031092
   2   C   :    0.000086849   -0.000042611   -0.000074634
   3   O   :    0.000075814   -0.000065005   -0.000045209
   4   P   :    0.000206258    0.000045625   -0.000038932
   5   S   :    0.000186678    0.000236452    0.000043637
   6   O   :    0.000088320   -0.000053159    0.000095495
   7   C   :    0.000070853   -0.000038516    0.000149951
   8   C   :    0.000040740   -0.000053038    0.000188642
   9   S   :    0.000066186    0.000029413   -0.000271952
  10   C   :    0.000011212    0.000112631   -0.000116247
  11   S   :   -0.000025724    0.000286599   -0.000071221
  12   P   :   -0.000193043    0.000043027   -0.000108492
  13   S   :   -0.000169746   -0.000029968   -0.000257502
  14   O   :   -0.000087289    0.000062805    0.000039326
  15   C   :   -0.000095267    0.000091387    0.000018844
  16   C   :   -0.000092447    0.000077812    0.000073356
  17   O   :   -0.000091098   -0.000091900    0.000027271
  18   C   :   -0.000090786   -0.000156575    0.000008104
  19   C   :   -0.000081533   -0.000137679    0.000054408
  20   H   :    0.000057719   -0.000022429   -0.000008498
  21   H   :    0.000038549   -0.000030007   -0.000009852
  22   H   :    0.000034192   -0.000014719   -0.000012831
  23   H   :    0.000029536   -0.000034575   -0.000035498
  24   H   :    0.000042913   -0.000007988   -0.000025874
  25   H   :    0.000007648   -0.000031476    0.000055821
  26   H   :    0.000019123    0.000001562    0.000058505
  27   H   :    0.000023624   -0.000011752    0.000093679
  28   H   :    0.000023930   -0.000032214    0.000067897
  29   H   :    0.000004047   -0.000009431    0.000043795
  30   H   :   -0.000001382    0.000031284   -0.000054141
  31   H   :    0.000009161    0.000053173   -0.000031416
  32   H   :   -0.000034473    0.000044196    0.000016028
  33   H   :   -0.000048895    0.000027806    0.000000281
  34   H   :   -0.000029722    0.000029564    0.000034558
  35   H   :   -0.000024215    0.000021381    0.000016277
  36   H   :   -0.000037262    0.000025703    0.000030773
  37   H   :   -0.000032328   -0.000063167   -0.000009102
  38   H   :   -0.000032127   -0.000080135    0.000016758
  39   H   :   -0.000019876   -0.000042657    0.000016051
  40   H   :   -0.000029740   -0.000052385    0.000033882
  41   H   :   -0.000026612   -0.000058238    0.000019156

Difference to translation invariance:
           :    0.0000000000    0.0000000000   -0.0000000000

Difference to rotation invariance:
           :    0.0000000000   -0.0000000000    0.0000000000

Norm of the Dispersion gradient    ...    0.0009107284
RMS gradient                       ...    0.0000821176
MAX gradient                       ...    0.0002865986
gCP correction                   ... done

------------------
CARTESIAN GRADIENT
------------------

   1   C   :    0.000058138   -0.000006814   -0.000003010
   2   C   :    0.000055790   -0.000009931    0.000019902
   3   O   :    0.000347608   -0.000429915   -0.000222422
   4   P   :   -0.000448373    0.000382076    0.000224751
   5   S   :   -0.000024601   -0.000047861    0.000070148
   6   O   :    0.000236994    0.000200161   -0.000102956
   7   C   :    0.000251643    0.000072849   -0.000482223
   8   C   :   -0.000311464   -0.000108199    0.000655308
   9   S   :   -0.000018846    0.000104675   -0.000171273
  10   C   :   -0.000154235   -0.000295085    0.000116107
  11   S   :   -0.000032751    0.000251186    0.000199254
  12   P   :    0.000032788   -0.000049885   -0.000200750
  13   S   :   -0.000017657   -0.000044079   -0.000052908
  14   O   :    0.000211381   -0.000193139    0.000039592
  15   C   :   -0.000231447    0.000275585   -0.000052052
  16   C   :    0.000029035   -0.000000827   -0.000019542
  17   O   :    0.000051422    0.000027619   -0.000036841
  18   C   :   -0.000043413   -0.000056387    0.000016255
  19   C   :   -0.000021525   -0.000002616    0.000018060
  20   H   :   -0.000002195   -0.000009535   -0.000071117
  21   H   :   -0.000038677    0.000090525    0.000017575
  22   H   :   -0.000043377   -0.000069232    0.000050699
  23   H   :    0.000001516    0.000008554   -0.000017223
  24   H   :   -0.000035162    0.000017165   -0.000000699
  25   H   :   -0.000008659   -0.000191611   -0.000007698
  26   H   :    0.000069032    0.000112452    0.000081674
  27   H   :   -0.000081680    0.000167574   -0.000018264
  28   H   :   -0.000048354   -0.000128035    0.000038600
  29   H   :    0.000015673    0.000073475   -0.000070445
  30   H   :    0.000087372    0.000022648   -0.000058085
  31   H   :   -0.000020164   -0.000002186    0.000009244
  32   H   :    0.000018288   -0.000051206    0.000002523
  33   H   :    0.000043291   -0.000007948    0.000027992
  34   H   :   -0.000006156   -0.000072165   -0.000046198
  35   H   :    0.000068861   -0.000020110    0.000037215
  36   H   :   -0.000000431    0.000019110   -0.000031259
  37   H   :   -0.000011226   -0.000001287    0.000002640
  38   H   :   -0.000005753   -0.000027548    0.000000900
  39   H   :    0.000027275    0.000012020    0.000041168
  40   H   :    0.000009086    0.000018584   -0.000012982
  41   H   :   -0.000009048   -0.000030658    0.000008341

Difference to translation invariance:
           :   -0.0000000000   -0.0000000000    0.0000000000

Difference to rotation invariance:
           :   -0.0007933899   -0.0001529348    0.0002956005

Norm of the Cartesian gradient     ...    0.0015654510
RMS gradient                       ...    0.0001411520
MAX gradient                       ...    0.0006553079

-------
TIMINGS
-------

Total SCF gradient time     ....       48.162 sec

Densities                   ....       0.007 sec  (  0.0%)
One electron gradient       ....       1.973 sec  (  4.1%)
RI-J Coulomb gradient       ....       9.297 sec  ( 19.3%)
XC gradient                 ....      22.674 sec  ( 47.1%)
CPCM gradient               ....       8.264 sec  ( 17.2%)
   A-Matrix (El+Nuc)        ....       0.279 sec  (  0.6%)
   Potential                ....       7.985 sec  ( 16.6%)
SMD gradient                ....       0.014 sec  (  0.0%)

Maximum memory used throughout the entire SCFGRAD-calculation: 83.7 MB

------------------------------------------------------------------------------
                              ORCA PROPERTY CALCULATIONS
------------------------------------------------------------------------------

GBWName                                 ... xtb_opt.gbw
Number of atoms                         ...     41
Number of basis functions               ...    539
Max core memory                         ...   1024 MB

Electric properties:
Dipole moment                           ... YES
Quadrupole moment                       ...  NO
Static polarizability (Dipole/Dipole)   ...  NO
Static polarizability (Dipole/Quad.)    ...  NO
Static polarizability (Quad./Quad.)     ...  NO
Static polarizability (Velocity)        ...  NO

Atomic electric properties:
Dipole moment                           ...  NO
Quadrupole moment                       ...  NO
Static polarizability                   ...  NO

Choice of electric origin               ... Center of mass
Position of electric origin             ...    -0.055952     0.173533    -0.142451

General magnetic properties:
Magnetizability                         ...  NO

EPR properties:
g-Tensor (aka g-matrix)                 ...  NO
Zero-Field splitting spin-orbit         ...  NO
Zero-field splitting spin-spin          ...  NO
Hyperfine couplings                     ...  NO (   0 nuclei)
Quadrupole couplings                    ...  NO (   0 nuclei)
Contact density                         ...  NO (   0 nuclei)

NMR properties:
Chemical shifts                         ...  NO (   0 nuclei)
Spin-rotation constants                 ...  NO (   0 nuclei)
Spin-spin couplings                     ...  NO (   0 nuclei,    0 pairs)

Choice of magnetic origin               ... GIAO
Position of magnetic origin             ...     0.000000     0.000000     0.000000

Properties with geometric perturbations:
SCF Hessian                             ...  NO
IR spectrum                             ...  NO
VCD spectrum                            ...  NO
X-ray spectroscopy properties:
SCF XES/XAS/RIXS spectra                ...  NO


-------------
DIPOLE MOMENT
-------------

Method             : SCF
Type of density    : Electron Density
Multiplicity       :   1
Irrep              :   0
Energy             : -2932.5102696451453994 Eh
Relativity type    : 
Basis              : AO
                                X                 Y                 Z
Electronic contribution:      3.805930989       9.766512559     -14.756508371
Nuclear contribution   :     -3.884017422     -10.574129801      15.497796505
                        -----------------------------------------
Total Dipole Moment    :     -0.078086433      -0.807617241       0.741288133
                        -----------------------------------------
Magnitude (a.u.)       :      1.099022837
Magnitude (Debye)      :      2.793494049



--------------------
Rotational spectrum 
--------------------
 
Rotational constants in cm-1:             0.012763             0.004379             0.004220 
Rotational constants in MHz :           382.634403           131.267485           126.515818 

Dipole components along the rotational axes: 
x,y,z [a.u.] :    -0.038113     1.084584     0.173426 
x,y,z [Debye]:    -0.096876     2.756793     0.440815 

 

Dipole moment calculation done in   0.1 sec 

Maximum memory used throughout the entire PROP-calculation: 51.5 MB

--------------------------------
SUGGESTED CITATIONS FOR THIS RUN
--------------------------------

Below you find a list of papers that are relevant to this ORCA run
We neither can nor want to force you to cite these papers, but we appreciate if you do
You receive ORCA, which is the product of decades of hard work by many enthusiastic individuals, for free
The only thing we kindly ask in return is that you cite our papers,
We deeply appreciate it, if you show your appreciation for ORCA by not just citing the generic ORCA reference.

Please note that relegating all ORCA citations to the supporting information does *not* help us.
SI sections are not indexed - citations you put there will not count into any citation statistics
But we need these citations in order to attract the funding resources that allow us to do what we are doing

Therefore, if you are a happy ORCA user, please consider citing a few of the papers listed below in the main body of your paper

In addition to the list printed below, the program has created the file xtb_opt.bibtex that contains the list in bibtex format
You can import this file easily into all common literature databanks and citation aid programs


List of essential papers. We consider these as the minimum necessary citations

  1. Neese,F.
     Software update: the ORCA program system, version 5.0
     WIRES Comput. Molec. Sci., 2022 12(1)e1606
     doi.org/10.1002/wcms.1606
  2. Grimme,S.; Hansen,A.; Ehlert,S.; Mewes,J.
     r2SCAN-3c: A 'Swiss army knife' composite electronic-structure method
     J. Chem. Phys., 2021 154 064103
     doi.org/10.1063/5.0040021

List of papers to cite with high priority. The work reported in these papers was absolutely
necessary for this run to complete.
Our perspective: the developers of density functionals and basis sets usually get cited in chemistry papers
Good! But without the algorithms to do something with them, the functionals or basis sets would not do anything.
Hence, in our opinion, the algorithm design and method developments papers are equally worthy of getting cited

  1. Neese,F.
     An improvement of the resolution of the identity approximation for the formation of the Coulomb matrix
     J. Comp. Chem., 2003 24(14)1740-1747
     doi.org/10.1002/jcc.10318
  2. Garcia-Rates,M.; Neese,F.
     Effect of the Solute Cavity on the Solvation Energy and its Derivatives within the Framework of the Gaussian Charge Scheme
     J. Comput. Chem., 2020 41 922-939
     doi.org/10.1002/jcc.26139
  3. Neese,F.
     The SHARK Integral Generation and Digestion System
     J. Comp. Chem., 2022  1-16
     doi.org/10.1002/jcc.26942
  4. Lehtola,S.; Steigemann,C.; Oliveira,M.; Marques,M.
     Recent developments in Libxc - A comprehensive library of functionals for density functional theory
     Software X, 2018 7 
     doi.org/10.1016/j.softx.2017.11.002
  5. Caldeweyher,E.; Bannwarth,C.; Grimme,S.
     Extension of the D3 dispersion coefficient model
     J. Chem. Phys., 2017 147 034112-XXXX
     doi.org/10.1063/1.4993215
  6. Caldeweyher,E.; Ehlert,S.; Hansen,A.; Neugebauer,H.; Spicher,S.; Bannwarth,C.; Grimme,S.
     A generally applicable atomic-charge dependent London dispersion correction
     J. Chem. Phys., 2019 150 154122-XXXX
     doi.org/10.1063/1.5090222
  7. Caldeweyher,E.; Mewes,J.; Ehlert,S.; Grimme,S.
     Extension and evaluation of the D4 London-dispersion model for periodic systems
     Phys. Chem. Chem. Phys., 2020 22(16)8499-8512
     doi.org/10.1039/D0CP00502A

List of suggested additional citations. These are papers that are important in the 'surrounding' of 
of this run, or papers that preceded the highly important papers. If you like your results we are grateful for a citation.

  1. Neese,F.
     The ORCA program system
     WIRES Comput. Molec. Sci., 2012 2(1)73-78
     doi.org/10.1002/wcms.81
  2. Neese,F.
     Software update: the ORCA program system, version 4.0
     WIRES Comput. Molec. Sci., 2018 8(1)1-6
     doi.org/10.1002/wcms.1327
  3. Neese,F.; Wennmohs,F.; Becker,U.; Riplinger,C.
     The ORCA quantum chemistry program package
     J. Chem. Phys., 2020 152 Art. No. L224108
     doi.org/10.1063/5.0004608

List of optional additional citations

  1. Neese,F.
     Approximate second-order SCF convergence for spin unrestricted wavefunctions
     Chem. Phys. Lett., 2000 325(1-3)93-98
     doi.org/10.1016/s0009-2614(00)00662-x

Timings for individual modules:

Sum of individual times          ...      100.858 sec (=   1.681 min)
Startup calculation              ...        3.723 sec (=   0.062 min)   3.7 %
SCF iterations                   ...       48.505 sec (=   0.808 min)  48.1 %
Property calculations            ...        0.296 sec (=   0.005 min)   0.3 %
SCF Gradient evaluation          ...       48.334 sec (=   0.806 min)  47.9 %
                             ****ORCA TERMINATED NORMALLY****
TOTAL RUN TIME: 0 days 0 hours 1 minutes 41 seconds 913 msec
  ------------------------------------------------------------------------
          * successful ORCA run, taking over control again...

         :::::::::::::::::::::::::::::::::::::::::::::::::::::
         ::                  ORCA SUMMARY                   ::
         :::::::::::::::::::::::::::::::::::::::::::::::::::::
         :: total energy           -2932.485694273717 Eh    ::
         :: gradient norm              0.001565451030 Eh/a0 ::
         :: HOMO-LUMO gap              0.000000000000 eV    ::
         :::::::::::::::::::::::::::::::::::::::::::::::::::::

      ----------------------------------------------------------- 
     |                       L-ANC optimizer                     |
      ----------------------------------------------------------- 
          low memory version by Sebastian Ehlert

          ...................................................
          :                      SETUP                      :
          :.................................................:
          :   energy convergence        0.5000000E-05 Eh    :
          :   grad. convergence         0.1000000E-02 Eh/a0 :
          :   optimization log               true           :
          :   writing optlog all                1     steps :
          :   Hessian reset                     8     steps :
          :   maximium step len.        1.0000000     a0    :
          :   LBFGS images                      8           :
          ...................................................
 * calculating model hessian...
Using Lindh-Hessian (1995)
 Shifting diagonal of input Hessian by   1.000000000000000E-002
 Lowest  eigenvalues of input Hessian
    0.000000    0.000000    0.000000    0.000000    0.000000    0.000000
    0.010014    0.010026    0.010344    0.010554    0.010738    0.011322
    0.011536    0.011854    0.012053    0.012198    0.012265    0.012989
 Highest eigenvalues
    1.287056    1.295444    1.722502    1.728567    1.869161    1.877696
 

........................................................................
.............................. CYCLE    1 ..............................
........................................................................
                         * ORCA takes the control...
  ------------------------------------------------------------------------

                                 *****************
                                 * O   R   C   A *
                                 *****************

                                            #,                                       
                                            ###                                      
                                            ####                                     
                                            #####                                    
                                            ######                                   
                                           ########,                                 
                                     ,,################,,,,,                         
                               ,,#################################,,                 
                          ,,##########################################,,             
                       ,#########################################, ''#####,          
                    ,#############################################,,   '####,        
                  ,##################################################,,,,####,       
                ,###########''''           ''''###############################       
              ,#####''   ,,,,##########,,,,          '''####'''          '####       
            ,##' ,,,,###########################,,,                        '##       
           ' ,,###''''                  '''############,,,                           
         ,,##''                                '''############,,,,        ,,,,,,###''
      ,#''                                            '''#######################'''  
     '                                                          ''''####''''         
             ,#######,   #######,   ,#######,      ##                                
            ,#'     '#,  ##    ##  ,#'     '#,    #''#        ,####,   ,####,        
            ##       ##  ##   ,#'  ##            #'  '#       #'       #'  '#        
            ##       ##  #######   ##           ,######,      #####,   #    #        
            '#,     ,#'  ##    ##  '#,     ,#' ,#      #,     #,   #   #,  ,#        
             '#######'   ##     ##  '#######'  #'      '#     '####' # '####'        



                #########################################################
                #                        -***-                          #
                #          Department of theory and spectroscopy        #
                #                                                       #
                #                      Frank Neese                      #
                #                                                       #
                #     Directorship, Architecture, Infrastructure        #
                #                    SHARK, DRIVERS                     #
                #        Core code/Algorithms in most modules           #
                #                                                       #
                #        Max Planck Institute fuer Kohlenforschung      #
                #                Kaiser Wilhelm Platz 1                 #
                #                 D-45470 Muelheim/Ruhr                 #
                #                      Germany                          #
                #                                                       #
                #                  All rights reserved                  #
                #                        -***-                          #
                #########################################################


                         Program Version 6.0.0  -   RELEASE  -


 With contributions from (in alphabetic order):
   Daniel Aravena         : Magnetic Suceptibility
   Michael Atanasov       : Ab Initio Ligand Field Theory (pilot matlab implementation)
   Alexander A. Auer      : GIAO ZORA, VPT2 properties, NMR spectrum
   Ute Becker             : All parallelization in ORCA, NUMFREQ, NUMCALC
   Giovanni Bistoni       : ED, misc. LED, open-shell LED, HFLD
   Martin Brehm           : Molecular dynamics
   Dmytro Bykov           : pre 5.0 version of the SCF Hessian
   Marcos Casanova-Páez   : Triplet and SCS-CIS(D). UHF-(DLPNO)-IP/EA/STEOM-CCSD. UHF-CVS-IP/STEOM-CCSD
   Vijay G. Chilkuri      : MRCI spin determinant printing, contributions to CSF-ICE
   Pauline Colinet        : FMM embedding
   Dipayan Datta          : RHF DLPNO-CCSD density
   Achintya Kumar Dutta   : EOM-CC, STEOM-CC
   Nicolas Foglia         : Exact transition moments, OPA infrastructure, MCD improvements
   Dmitry Ganyushin       : Spin-Orbit,Spin-Spin,Magnetic field MRCI
   Miquel Garcia          : C-PCM and meta-GGA Hessian, CCSD/C-PCM, Gaussian charge scheme
   Tiago L. C. Gouveia    : GS-ROHF, GS-ROCIS
   Yang Guo               : DLPNO-NEVPT2, F12-NEVPT2, CIM, IAO-localization
   Andreas Hansen         : Spin unrestricted coupled pair/coupled cluster methods
   Ingolf Harden          : AUTO-CI MPn and infrastructure 
   Benjamin Helmich-Paris : MC-RPA, TRAH-(SCF,CASSCF), AVAS, COSX integrals, SCF dyn. polar.
   Lee Huntington         : MR-EOM, pCC
   Robert Izsak           : Overlap fitted RIJCOSX, COSX-SCS-MP3, EOM
   Riya Kayal             : Wick's Theorem for AUTO-CI, AUTO-CI UHF-CCSDT
   Emily Kempfer          : AUTO-CI, RHF CISDT and CCSDT
   Christian Kollmar      : KDIIS, OOCD, Brueckner-CCSD(T), CCSD density, CASPT2, CASPT2-K, improved NEVPT2
   Axel Koslowski         : Symmetry handling
   Simone Kossmann        : Meta GGA functionals, TD-DFT gradient, OOMP2, (MP2 Hessian; deprecated post 5.0)
   Lucas Lang             : DCDCAS
   Marvin Lechner         : AUTO-CI (C++ implementation), FIC-MRCC
   Spencer Leger          : CASSCF response
   Dagmar Lenk            : GEPOL surface, SMD, ORCA-2-JSON
   Dimitrios Liakos       : Extrapolation schemes; Compound Job, initial MDCI parallelization
   Dimitrios Manganas     : Further ROCIS development; embedding schemes. LFT, Crystal Embedding
   Dimitrios Pantazis     : SARC Basis sets
   Anastasios Papadopoulos: AUTO-CI, single reference methods and gradients
   Taras Petrenko         : pre 6.0 DFT Hessian and TD-DFT gradient, (ASA, deprecated), ECA, 1-Electron XAS/XES, NRVS
   Peter Pinski           : DLPNO-MP2, DLPNO-MP2 Gradient
   Christoph Reimann      : Effective Core Potentials
   Marius Retegan         : Local ZFS, SOC
   Christoph Riplinger    : Optimizer, TS searches, QM/MM, DLPNO-CCSD(T), (RO)-DLPNO pert. Triples
   Michael Roemelt        : Original ROCIS implementation
   Masaaki Saitow         : Open-shell DLPNO-CCSD energy and density
   Barbara Sandhoefer     : DKH picture change effects
   Kantharuban Sivalingam : CASSCF convergence/infrastructure, NEVPT2 and variants, FIC-MRCI
   Bernardo de Souza      : ESD, SOC TD-DFT
   Georgi Stoychev        : AutoAux, RI-MP2 NMR, DLPNO-MP2 response, X2C
   Van Anh Tran           : RI-MP2 g-tensors
   Willem Van den Heuvel  : Paramagnetic NMR
   Zikuan Wang            : NOTCH, Electric field optimization 
   Frank Wennmohs         : Technical directorship and infrastructure
   Hang Xu                : AUTO-CI-Response properties 


 We gratefully acknowledge several colleagues who have allowed us to
 interface, adapt or use parts of their codes:
   Stefan Grimme, W. Hujo, H. Kruse, P. Pracht,  : VdW corrections, initial TS optimization,
                  C. Bannwarth, S. Ehlert,         DFT functionals, gCP, sTDA/sTD-DF
                  L. Wittmann, M. Mueller
   Ed Valeev, F. Pavosevic, A. Kumar             : LibInt (2-el integral package), F12 methods
   Garnet Chan, S. Sharma, J. Yang, R. Olivares  : DMRG
   Ulf Ekstrom                                   : XCFun DFT Library
   Mihaly Kallay                                 : mrcc  (arbitrary order and MRCC methods)
   Frank Weinhold                                : gennbo (NPA and NBO analysis)
   Simon Mueller                                 : openCOSMO-RS
   Christopher J. Cramer and Donald G. Truhlar   : smd solvation model
   Lars Goerigk                                  : TD-DFT with DH, B97 family of functionals
   V. Asgeirsson, H. Jonsson                     : NEB implementation
   FAccTs GmbH                                   : IRC, NEB, NEB-TS, DLPNO-Multilevel, CI-OPT
                                                   MM, QMMM, 2- and 3-layer-ONIOM, Crystal-QMMM,
                                                   LR-CPCM, SF, NACMEs, symmetry and pop. for TD-DFT,
                                                   nearIR, NL-DFT gradient (VV10), updates on ESD,
                                                   ML-optimized integration grids, MBIS, APM,
                                                   GOAT, DOCKER, SOLVATOR, interface openCOSMO-RS
   S Lehtola, MJT Oliveira, MAL Marques          : LibXC Library
   Liviu Ungur et al                             : ANISO software


 Your calculation uses the libint2 library for the computation of 2-el integrals
 For citations please refer to: http://libint.valeyev.net

 Your ORCA version has been built with support for libXC version: 6.2.2
 For citations please refer to: https://libxc.gitlab.io

 This ORCA versions uses:
   CBLAS   interface :  Fast vector & matrix operations
   LAPACKE interface :  Fast linear algebra routines
   SCALAPACK package :  Parallel linear algebra routines
   Shared memory     :  Shared parallel matrices
   BLAS/LAPACK       :  OpenBLAS 0.3.27  USE64BITINT DYNAMIC_ARCH NO_AFFINITY SapphireRapids SINGLE_THREADED
        Core in use  :  SapphireRapids
   Copyright (c) 2011-2014, The OpenBLAS Project




***************************************
The coordinates will be read from file: xtb_opt.xyz
***************************************


Your calculation utilizes the geometrical counterpoise correction gCP
Please cite in your paper:
H.Kruse, S. Grimme J.Chem.Phys., 136, (2012), 154101 
   

Your calculation utilizes the atom-pairwise dispersion correction
based on EEQ partial charges (D4)


Your calculation utilizes the SMD solvation module
Please cite in your paper:
A.V. Marenich, C.J. Cramer, D.G. Truhlar J. Phys. Chem. B, 113, (2009), 6378 

================================================================================

----- Orbital basis set information -----
Your calculation utilizes the basis: def2-mTZVPP
   Stefan Grimme, Andreas Hansen, Sebastian Ehlert, and Jan-Michael Mewes 
   J. Chem. Phys. 154, 064103 (2021). DOI: 10.1063/5.0040021

----- AuxJ basis set information -----
Your calculation utilizes the auxiliary basis: def2/J
   F. Weigend, Phys. Chem. Chem. Phys. 8, 1057 (2006).

================================================================================
                                        WARNINGS
                       Please study these warnings very carefully!
================================================================================

WARNING: Old DensityContainer found on disk!
         Will remove this file - 
         If you want to keep old densities, please start your calculation with a different basename. 

Using LibXC functional ID 497 : Re-regularized SCAN exchange by Furness et al
[ 1]  J. W. Furness, A. D. Kaplan, J. Ning, J. P. Perdew, and J. Sun.,  J. Phys. Chem. Lett. 11, 8208-8215 (2020)
[ 2]  J. W. Furness, A. D. Kaplan, J. Ning, J. P. Perdew, and J. Sun.,  J. Phys. Chem. Lett. 11, 9248-9248 (2020)
Using LibXC functional ID 498 : Re-regularized SCAN correlation by Furness et al
[ 1]  J. W. Furness, A. D. Kaplan, J. Ning, J. P. Perdew, and J. Sun.,  J. Phys. Chem. Lett. 11, 8208-8215 (2020)
[ 2]  J. W. Furness, A. D. Kaplan, J. Ning, J. P. Perdew, and J. Sun.,  J. Phys. Chem. Lett. 11, 9248-9248 (2020)
Using LibXC functional ID 497 : Re-regularized SCAN exchange by Furness et al
[ 1]  J. W. Furness, A. D. Kaplan, J. Ning, J. P. Perdew, and J. Sun.,  J. Phys. Chem. Lett. 11, 8208-8215 (2020)
[ 2]  J. W. Furness, A. D. Kaplan, J. Ning, J. P. Perdew, and J. Sun.,  J. Phys. Chem. Lett. 11, 9248-9248 (2020)
Using LibXC functional ID 498 : Re-regularized SCAN correlation by Furness et al
[ 1]  J. W. Furness, A. D. Kaplan, J. Ning, J. P. Perdew, and J. Sun.,  J. Phys. Chem. Lett. 11, 8208-8215 (2020)
[ 2]  J. W. Furness, A. D. Kaplan, J. Ning, J. P. Perdew, and J. Sun.,  J. Phys. Chem. Lett. 11, 9248-9248 (2020)

================================================================================
                                       INPUT FILE
================================================================================
NAME = xtb_opt.inp
|  1> ! r2scan-3c def2/J RI DEFGRID2 scfconv7 ENGRAD tightSCF miniprint
|  2> %cpcm
|  3>     smd true
|  4>     smdsolvent "water"
|  5> end
|  6> * xyzfile 0 1 xtb_opt.xyz
|  7> 
|  8>                          ****END OF INPUT****
================================================================================

                     *******************************
                     * Energy+Gradient Calculation *
                     *******************************

---------------------------------
CARTESIAN COORDINATES (ANGSTROEM)
---------------------------------
  C      5.653939   -1.673691   -1.215524
  C      4.352961   -1.138892   -1.754848
  O      3.319494   -1.313332   -0.721494
  P      2.364543   -0.095263   -0.275220
  S      3.224451    1.614128    0.091402
  O      1.551500   -0.782254    0.923522
  C      2.112768   -0.870777    2.281176
  C      0.964064   -1.153519    3.214350
  S      0.928314   -0.111094   -1.826969
  C      0.144938    1.537181   -1.628952
  S     -0.768395    1.852371   -0.069213
  P     -2.298979    0.390828   -0.168158
  S     -3.016326    0.007349   -1.936805
  O     -3.327118    0.963239    0.934817
  C     -4.264561    2.042006    0.589080
  C     -4.975188    2.433594    1.858020
  O     -1.643107   -0.827047    0.644186
  C     -2.135019   -2.207733    0.522714
  C     -3.423885   -2.405966    1.280773
  H      5.986466   -1.090201   -0.352035
  H      5.553534   -2.722374   -0.921293
  H      6.418425   -1.606518   -1.996066
  H      4.007708   -1.697652   -2.628895
  H      4.431730   -0.078812   -2.014943
  H      2.855371   -1.674593    2.282170
  H      2.602985    0.078038    2.519592
  H      0.237494   -0.336235    3.194679
  H      0.460361   -2.087234    2.948077
  H      1.351676   -1.248476    4.233451
  H     -0.535919    1.635854   -2.479397
  H      0.910558    2.317055   -1.678561
  H     -3.697083    2.878991    0.168322
  H     -4.956439    1.659429   -0.166955
  H     -4.267238    2.801140    2.606033
  H     -5.687002    3.233382    1.632387
  H     -5.527644    1.585772    2.272895
  H     -2.239583   -2.444033   -0.540710
  H     -1.321027   -2.803210    0.941519
  H     -3.686428   -3.468636    1.254504
  H     -3.311995   -2.103576    2.326045
  H     -4.245999   -1.840934    0.831354

----------------------------
CARTESIAN COORDINATES (A.U.)
----------------------------
  NO LB      ZA    FRAG     MASS         X           Y           Z
   0 C     6.0000    0    12.011   10.684396   -3.162817   -2.297007
   1 C     6.0000    0    12.011    8.225905   -2.152194   -3.316182
   2 O     8.0000    0    15.999    6.272934   -2.481837   -1.363426
   3 P    15.0000    0    30.974    4.468339   -0.180020   -0.520091
   4 S    16.0000    0    32.060    6.093330    3.050260    0.172725
   5 O     8.0000    0    15.999    2.931911   -1.478246    1.745203
   6 C     6.0000    0    12.011    3.992554   -1.645530    4.310798
   7 C     6.0000    0    12.011    1.821817   -2.179835    6.074241
   8 S    16.0000    0    32.060    1.754260   -0.209936   -3.452471
   9 C     6.0000    0    12.011    0.273894    2.904851   -3.078274
  10 S    16.0000    0    32.060   -1.452057    3.500473   -0.130793
  11 P    15.0000    0    30.974   -4.344440    0.738558   -0.317772
  12 S    16.0000    0    32.060   -5.700030    0.013888   -3.660031
  13 O     8.0000    0    15.999   -6.287341    1.820259    1.766548
  14 C     6.0000    0    12.011   -8.058852    3.858833    1.113199
  15 C     6.0000    0    12.011   -9.401743    4.598826    3.511149
  16 O     8.0000    0    15.999   -3.105021   -1.562893    1.217335
  17 C     6.0000    0    12.011   -4.034602   -4.172010    0.987786
  18 C     6.0000    0    12.011   -6.470205   -4.546616    2.420310
  19 H     1.0000    0     1.008   11.312782   -2.060181   -0.665250
  20 H     1.0000    0     1.008   10.494658   -5.144540   -1.740991
  21 H     1.0000    0     1.008   12.129066   -3.035878   -3.772018
  22 H     1.0000    0     1.008    7.573471   -3.208097   -4.967892
  23 H     1.0000    0     1.008    8.374757   -0.148934   -3.807691
  24 H     1.0000    0     1.008    5.395870   -3.164522    4.312677
  25 H     1.0000    0     1.008    4.918928    0.147471    4.761340
  26 H     1.0000    0     1.008    0.448798   -0.635392    6.037069
  27 H     1.0000    0     1.008    0.869956   -3.944300    5.571057
  28 H     1.0000    0     1.008    2.554297   -2.359279    8.000063
  29 H     1.0000    0     1.008   -1.012740    3.091316   -4.685381
  30 H     1.0000    0     1.008    1.720705    4.378599   -3.172020
  31 H     1.0000    0     1.008   -6.986475    5.440504    0.318082
  32 H     1.0000    0     1.008   -9.366312    3.135867   -0.315498
  33 H     1.0000    0     1.008   -8.063911    5.293387    4.924688
  34 H     1.0000    0     1.008  -10.746876    6.110206    3.084765
  35 H     1.0000    0     1.008  -10.445734    2.996675    4.295149
  36 H     1.0000    0     1.008   -4.232199   -4.618554   -1.021793
  37 H     1.0000    0     1.008   -2.496379   -5.297299    1.779214
  38 H     1.0000    0     1.008   -6.966339   -6.554772    2.370670
  39 H     1.0000    0     1.008   -6.258764   -3.975183    4.395589
  40 H     1.0000    0     1.008   -8.023776   -3.478861    1.571032

------------------------------------------------------------------------------
                   ___                                                        
                  /   \      - P O W E R E D   B Y -                         
                 /     \                                                     
                 |  |  |   _    _      __       _____    __    __             
                 |  |  |  | |  | |    /  \     |  _  \  |  |  /  |          
                  \  \/   | |  | |   /    \    | | | |  |  | /  /          
                 / \  \   | |__| |  /  /\  \   | |_| |  |  |/  /          
                |  |  |   |  __  | /  /__\  \  |    /   |      \           
                |  |  |   | |  | | |   __   |  |    \   |  |\   \          
                \     /   | |  | | |  |  |  |  | |\  \  |  | \   \       
                 \___/    |_|  |_| |__|  |__|  |_| \__\ |__|  \__/        
                                                                              
                      - O R C A' S   B I G   F R I E N D -                    
                                      &                                       
                       - I N T E G R A L  F E E D E R -                       
                                                                              
 v1 FN, 2020, v2 2021, v3 2022-2024                                           
------------------------------------------------------------------------------


----------------------
SHARK INTEGRAL PACKAGE
----------------------

Number of atoms                             ...     41
Number of basis functions                   ...    539
Number of shells                            ...    253
Maximum angular momentum                    ...      2
Integral batch strategy                     ... SHARK/LIBINT Hybrid
RI-J (if used) integral strategy            ... SPLIT-RIJ (Revised 2003 algorithm where possible)
Printlevel                                  ...      1
Contraction scheme used                     ... SEGMENTED contraction
Prescreening option                         ... SCHWARTZ
   Thresh                                   ... 3.000e-11
   Tcut                                     ... 1.000e-12
   Tpresel                                  ... 1.000e-12 
Coulomb Range Separation                    ... NOT USED
Exchange Range Separation                   ... NOT USED
Multipole approximations                    ... NOT USED
Finite Nucleus Model                        ... NOT USED
CABS basis                                  ... NOT available
Auxiliary Coulomb fitting basis             ... AVAILABLE
   # of basis functions in Aux-J            ...   1185
   # of shells in Aux-J                     ...    407
   Maximum angular momentum in Aux-J        ...      4
Auxiliary J/K fitting basis                 ... NOT available
Auxiliary Correlation fitting basis         ... NOT available
Auxiliary 'external' fitting basis          ... NOT available

Checking pre-screening integrals            ... done (  0.0 sec) Dimension = 253
Check shell pair data                       ... done (  0.0 sec)
Shell pair information
Shell pair cut-off parameter TPreSel        ...   1.0e-12
Total number of shell pairs                 ...     32131
Shell pairs after pre-screening             ...     21266
Total number of primitive shell pairs       ...    124843
Primitive shell pairs kept                  ...     49805
          la=0 lb=0:   6000 shell pairs
          la=1 lb=0:   7730 shell pairs
          la=1 lb=1:   2522 shell pairs
          la=2 lb=0:   2847 shell pairs
          la=2 lb=1:   1814 shell pairs
          la=2 lb=2:    353 shell pairs

[...]
CPCM gradient                     ... done (  8.1 sec)
SMD gradient                      ... done (  0.0 sec)
Dispersion correction             ... done (  0.0 sec)

-------------------
DISPERSION GRADIENT
-------------------

   1   C   :    0.000120264   -0.000060764   -0.000031034
   2   C   :    0.000086994   -0.000042695   -0.000074669
   3   O   :    0.000075869   -0.000065019   -0.000045127
   4   P   :    0.000206167    0.000045548   -0.000039187
   5   S   :    0.000186599    0.000236519    0.000043162
   6   O   :    0.000088338   -0.000053207    0.000095579
   7   C   :    0.000070993   -0.000038208    0.000149990
   8   C   :    0.000040823   -0.000053483    0.000188623
   9   S   :    0.000066095    0.000028779   -0.000272523
  10   C   :    0.000011103    0.000112454   -0.000116522
  11   S   :   -0.000025612    0.000286748   -0.000071207
  12   P   :   -0.000193132    0.000043551   -0.000107834
  13   S   :   -0.000169926   -0.000029577   -0.000257110
  14   O   :   -0.000086983    0.000063062    0.000039561
  15   C   :   -0.000095366    0.000091435    0.000018760
  16   C   :   -0.000092451    0.000077758    0.000073232
  17   O   :   -0.000091099   -0.000091536    0.000027884
  18   C   :   -0.000090988   -0.000156621    0.000008258
  19   C   :   -0.000081664   -0.000137701    0.000054200
  20   H   :    0.000057749   -0.000022477   -0.000008475
  21   H   :    0.000038436   -0.000029910   -0.000009789
  22   H   :    0.000034280   -0.000014681   -0.000012832
  23   H   :    0.000029538   -0.000034622   -0.000035475
  24   H   :    0.000042926   -0.000007959   -0.000025838
  25   H   :    0.000007680   -0.000031225    0.000055921
  26   H   :    0.000019333    0.000001676    0.000058660
  27   H   :    0.000023721   -0.000011930    0.000093651
  28   H   :    0.000023974   -0.000032523    0.000067857
  29   H   :    0.000004164   -0.000009519    0.000043835
  30   H   :   -0.000001479    0.000031166   -0.000054218
  31   H   :    0.000009161    0.000053106   -0.000031553
  32   H   :   -0.000034470    0.000044206    0.000015950
  33   H   :   -0.000048859    0.000027790    0.000000239
  34   H   :   -0.000029617    0.000029470    0.000034387
  35   H   :   -0.000024269    0.000021358    0.000016211
  36   H   :   -0.000037272    0.000025734    0.000030809
  37   H   :   -0.000032568   -0.000063259   -0.000009144
  38   H   :   -0.000032181   -0.000080124    0.000016902
  39   H   :   -0.000019926   -0.000042726    0.000015982
  40   H   :   -0.000029730   -0.000052338    0.000033817
  41   H   :   -0.000026614   -0.000058259    0.000019064

Difference to translation invariance:
           :   -0.0000000000    0.0000000000   -0.0000000000

Difference to rotation invariance:
           :    0.0000000000   -0.0000000000   -0.0000000000

Norm of the Dispersion gradient    ...    0.0009108747
RMS gradient                       ...    0.0000821308
MAX gradient                       ...    0.0002867479
gCP correction                   ... done

------------------
CARTESIAN GRADIENT
------------------

   1   C   :   -0.000015340    0.000007673    0.000021496
   2   C   :   -0.000066229   -0.000000319    0.000038431
   3   O   :   -0.000092761    0.000139264    0.000123011
   4   P   :    0.000282863   -0.000029092   -0.000287544
   5   S   :   -0.000051280   -0.000080121    0.000058154
   6   O   :   -0.000013099   -0.000055754   -0.000004297
   7   C   :   -0.000247452   -0.000025400    0.000293202
   8   C   :    0.000262885    0.000085921   -0.000192709
   9   S   :   -0.000017076    0.000012373   -0.000162893
  10   C   :   -0.000142839   -0.000111597    0.000029492
  11   S   :   -0.000113575    0.000152780    0.000157400
  12   P   :    0.000011124   -0.000198321   -0.000001447
  13   S   :    0.000015587    0.000053719   -0.000100158
  14   O   :   -0.000019702    0.000105612   -0.000068239
  15   C   :    0.000102980   -0.000022662    0.000023688
  16   C   :   -0.000003607   -0.000017263    0.000010750
  17   O   :    0.000031954   -0.000026591    0.000008652
  18   C   :    0.000021967    0.000048582    0.000034775
  19   C   :    0.000000537    0.000002768   -0.000010851
  20   H   :    0.000013664    0.000015803    0.000000867
  21   H   :   -0.000003299   -0.000006218    0.000023028
  22   H   :   -0.000008020   -0.000006146   -0.000024211
  23   H   :   -0.000015541    0.000007795    0.000013942
  24   H   :   -0.000019381   -0.000000602    0.000028147
  25   H   :   -0.000012557   -0.000030404   -0.000029087
  26   H   :    0.000064929   -0.000028416   -0.000025247
  27   H   :    0.000034884    0.000035183   -0.000013391
  28   H   :   -0.000019992    0.000035255    0.000017797
  29   H   :   -0.000037592    0.000021649    0.000051972
  30   H   :    0.000048679   -0.000006168   -0.000026265
  31   H   :    0.000021058   -0.000022808    0.000008290
  32   H   :    0.000008704   -0.000011542   -0.000021248
  33   H   :   -0.000018143   -0.000022499   -0.000010351
  34   H   :    0.000025996   -0.000023173    0.000023911
  35   H   :    0.000010160    0.000019992   -0.000007647
  36   H   :   -0.000031294   -0.000013049    0.000003387
  37   H   :   -0.000016564    0.000005052   -0.000010381
  38   H   :    0.000003847   -0.000014084   -0.000015282
  39   H   :    0.000003827   -0.000013484    0.000026561
  40   H   :    0.000012230    0.000023243    0.000012630
  41   H   :   -0.000012534   -0.000006950    0.000001666

Difference to translation invariance:
           :   -0.0000000000    0.0000000000    0.0000000000

Difference to rotation invariance:
           :   -0.0008076476   -0.0000617511    0.0002868167

Norm of the Cartesian gradient     ...    0.0008551637
RMS gradient                       ...    0.0000771075
MAX gradient                       ...    0.0002932019

-------
TIMINGS
-------

Total SCF gradient time     ....       47.275 sec

Densities                   ....       0.007 sec  (  0.0%)
One electron gradient       ....       1.971 sec  (  4.2%)
RI-J Coulomb gradient       ....       9.264 sec  ( 19.6%)
XC gradient                 ....      21.926 sec  ( 46.4%)
CPCM gradient               ....       8.106 sec  ( 17.1%)
   A-Matrix (El+Nuc)        ....       0.277 sec  (  0.6%)
   Potential                ....       7.829 sec  ( 16.6%)
SMD gradient                ....       0.016 sec  (  0.0%)

Maximum memory used throughout the entire SCFGRAD-calculation: 83.7 MB

------------------------------------------------------------------------------
                              ORCA PROPERTY CALCULATIONS
------------------------------------------------------------------------------

GBWName                                 ... xtb_opt.gbw
Number of atoms                         ...     41
Number of basis functions               ...    539
Max core memory                         ...   1024 MB

Electric properties:
Dipole moment                           ... YES
Quadrupole moment                       ...  NO
Static polarizability (Dipole/Dipole)   ...  NO
Static polarizability (Dipole/Quad.)    ...  NO
Static polarizability (Quad./Quad.)     ...  NO
Static polarizability (Velocity)        ...  NO

Atomic electric properties:
Dipole moment                           ...  NO
Quadrupole moment                       ...  NO
Static polarizability                   ...  NO

Choice of electric origin               ... Center of mass
Position of electric origin             ...    -0.055058     0.173600    -0.140660

General magnetic properties:
Magnetizability                         ...  NO

EPR properties:
g-Tensor (aka g-matrix)                 ...  NO
Zero-Field splitting spin-orbit         ...  NO
Zero-field splitting spin-spin          ...  NO
Hyperfine couplings                     ...  NO (   0 nuclei)
Quadrupole couplings                    ...  NO (   0 nuclei)
Contact density                         ...  NO (   0 nuclei)

NMR properties:
Chemical shifts                         ...  NO (   0 nuclei)
Spin-rotation constants                 ...  NO (   0 nuclei)
Spin-spin couplings                     ...  NO (   0 nuclei,    0 pairs)

Choice of magnetic origin               ... GIAO
Position of magnetic origin             ...     0.000000     0.000000     0.000000

Properties with geometric perturbations:
SCF Hessian                             ...  NO
IR spectrum                             ...  NO
VCD spectrum                            ...  NO
X-ray spectroscopy properties:
SCF XES/XAS/RIXS spectra                ...  NO


-------------
DIPOLE MOMENT
-------------

Method             : SCF
Type of density    : Electron Density
Multiplicity       :   1
Irrep              :   0
Energy             : -2932.5102903614310890 Eh
Relativity type    : 
Basis              : AO
                                X                 Y                 Z
Electronic contribution:      3.828747903       9.764797844     -14.725453087
Nuclear contribution   :     -3.903247032     -10.578250438      15.459828783
                        -----------------------------------------
Total Dipole Moment    :     -0.074499128      -0.813452595       0.734375696
                        -----------------------------------------
Magnitude (a.u.)       :      1.098436574
Magnitude (Debye)      :      2.792003886



--------------------
Rotational spectrum 
--------------------
 
Rotational constants in cm-1:             0.012778             0.004377             0.004219 
Rotational constants in MHz :           383.079500           131.231602           126.470068 

Dipole components along the rotational axes: 
x,y,z [a.u.] :    -0.032844     1.083669     0.176480 
x,y,z [Debye]:    -0.083482     2.754468     0.448577 

 

Dipole moment calculation done in   0.1 sec 

Maximum memory used throughout the entire PROP-calculation: 51.5 MB

--------------------------------
SUGGESTED CITATIONS FOR THIS RUN
--------------------------------

Below you find a list of papers that are relevant to this ORCA run
We neither can nor want to force you to cite these papers, but we appreciate if you do
You receive ORCA, which is the product of decades of hard work by many enthusiastic individuals, for free
The only thing we kindly ask in return is that you cite our papers,
We deeply appreciate it, if you show your appreciation for ORCA by not just citing the generic ORCA reference.

Please note that relegating all ORCA citations to the supporting information does *not* help us.
SI sections are not indexed - citations you put there will not count into any citation statistics
But we need these citations in order to attract the funding resources that allow us to do what we are doing

Therefore, if you are a happy ORCA user, please consider citing a few of the papers listed below in the main body of your paper

In addition to the list printed below, the program has created the file xtb_opt.bibtex that contains the list in bibtex format
You can import this file easily into all common literature databanks and citation aid programs


List of essential papers. We consider these as the minimum necessary citations

  1. Neese,F.
     Software update: the ORCA program system, version 5.0
     WIRES Comput. Molec. Sci., 2022 12(1)e1606
     doi.org/10.1002/wcms.1606
  2. Grimme,S.; Hansen,A.; Ehlert,S.; Mewes,J.
     r2SCAN-3c: A 'Swiss army knife' composite electronic-structure method
     J. Chem. Phys., 2021 154 064103
     doi.org/10.1063/5.0040021

List of papers to cite with high priority. The work reported in these papers was absolutely
necessary for this run to complete.
Our perspective: the developers of density functionals and basis sets usually get cited in chemistry papers
Good! But without the algorithms to do something with them, the functionals or basis sets would not do anything.
Hence, in our opinion, the algorithm design and method developments papers are equally worthy of getting cited

  1. Neese,F.
     An improvement of the resolution of the identity approximation for the formation of the Coulomb matrix
     J. Comp. Chem., 2003 24(14)1740-1747
     doi.org/10.1002/jcc.10318
  2. Garcia-Rates,M.; Neese,F.
     Effect of the Solute Cavity on the Solvation Energy and its Derivatives within the Framework of the Gaussian Charge Scheme
     J. Comput. Chem., 2020 41 922-939
     doi.org/10.1002/jcc.26139
  3. Neese,F.
     The SHARK Integral Generation and Digestion System
     J. Comp. Chem., 2022  1-16
     doi.org/10.1002/jcc.26942
  4. Lehtola,S.; Steigemann,C.; Oliveira,M.; Marques,M.
     Recent developments in Libxc - A comprehensive library of functionals for density functional theory
     Software X, 2018 7 
     doi.org/10.1016/j.softx.2017.11.002
  5. Caldeweyher,E.; Bannwarth,C.; Grimme,S.
     Extension of the D3 dispersion coefficient model
     J. Chem. Phys., 2017 147 034112-XXXX
     doi.org/10.1063/1.4993215
  6. Caldeweyher,E.; Ehlert,S.; Hansen,A.; Neugebauer,H.; Spicher,S.; Bannwarth,C.; Grimme,S.
     A generally applicable atomic-charge dependent London dispersion correction
     J. Chem. Phys., 2019 150 154122-XXXX
     doi.org/10.1063/1.5090222
  7. Caldeweyher,E.; Mewes,J.; Ehlert,S.; Grimme,S.
     Extension and evaluation of the D4 London-dispersion model for periodic systems
     Phys. Chem. Chem. Phys., 2020 22(16)8499-8512
     doi.org/10.1039/D0CP00502A

List of suggested additional citations. These are papers that are important in the 'surrounding' of 
of this run, or papers that preceded the highly important papers. If you like your results we are grateful for a citation.

  1. Neese,F.
     The ORCA program system
     WIRES Comput. Molec. Sci., 2012 2(1)73-78
     doi.org/10.1002/wcms.81
  2. Neese,F.
     Software update: the ORCA program system, version 4.0
     WIRES Comput. Molec. Sci., 2018 8(1)1-6
     doi.org/10.1002/wcms.1327
  3. Neese,F.; Wennmohs,F.; Becker,U.; Riplinger,C.
     The ORCA quantum chemistry program package
     J. Chem. Phys., 2020 152 Art. No. L224108
     doi.org/10.1063/5.0004608

List of optional additional citations

  1. Neese,F.
     Approximate second-order SCF convergence for spin unrestricted wavefunctions
     Chem. Phys. Lett., 2000 325(1-3)93-98
     doi.org/10.1016/s0009-2614(00)00662-x

Timings for individual modules:

Sum of individual times          ...       80.603 sec (=   1.343 min)
Startup calculation              ...        3.265 sec (=   0.054 min)   4.1 %
SCF iterations                   ...       29.698 sec (=   0.495 min)  36.8 %
Property calculations            ...        0.195 sec (=   0.003 min)   0.2 %
SCF Gradient evaluation          ...       47.445 sec (=   0.791 min)  58.9 %
                             ****ORCA TERMINATED NORMALLY****
TOTAL RUN TIME: 0 days 0 hours 1 minutes 21 seconds 514 msec
  ------------------------------------------------------------------------
          * successful ORCA run, taking over control again...

         :::::::::::::::::::::::::::::::::::::::::::::::::::::
         ::                  ORCA SUMMARY                   ::
         :::::::::::::::::::::::::::::::::::::::::::::::::::::
         :: total energy           -2932.485710440733 Eh    ::
         :: gradient norm              0.000855163730 Eh/a0 ::
         :: HOMO-LUMO gap              0.000000000000 eV    ::
         :::::::::::::::::::::::::::::::::::::::::::::::::::::

           -------------------------------------------------
          |                Property Printout                |
           -------------------------------------------------
           -------------------------------------------------
          |                Geometry Summary                 |
           -------------------------------------------------

      molecular mass/u    :      384.4756129
   center of mass at/Å    :       -0.0291281       0.0919045      -0.0744809
  moments of inertia/u·Å² :        0.1319304E+04   0.3851131E+04   0.3996096E+04
rotational constants/cm⁻¹ :        0.1277767E-01   0.4377320E-02   0.4218526E-02

 * 34 selected distances

     #   Z          #   Z                                           value/Å
     1   6 C        2   6 C                                       1.5064420
     3   8 O        4  15 P                                       1.6099117
     4  15 P        5  16 S                                       1.9480908
     4  15 P        6   8 O                                       1.6034486
     7   6 C        8   6 C                                       1.5060465
     4  15 P        9  16 S                                       2.1151610
    11  16 S       12  15 P                                       2.1187956 (max)
    12  15 P       13  16 S                                       1.9468869
    12  15 P       14   8 O                                       1.6129736
    15   6 C       16   6 C                                       1.5063726
    12  15 P       17   8 O                                       1.6041198
    18   6 C       19   6 C                                       1.5083648
     1   6 C       20   1 H                                       1.0939184
     1   6 C       21   1 H                                       1.0937728
     1   6 C       22   1 H                                       1.0946325
     2   6 C       23   1 H                                       1.0932975
     2   6 C       24   1 H                                       1.0943352
     7   6 C       25   1 H                                       1.0944421
     7   6 C       26   1 H                                       1.0943205
     8   6 C       27   1 H                                       1.0937749
     8   6 C       28   1 H                                       1.0939007
     8   6 C       29   1 H                                       1.0944515
    10   6 C       30   1 H                                       1.0938484
    10   6 C       31   1 H                                       1.0940045
    15   6 C       32   1 H                                       1.0952778
    15   6 C       33   1 H                                       1.0939579
    16   6 C       34   1 H                                       1.0935429
    16   6 C       35   1 H                                       1.0942237
    16   6 C       36   1 H                                       1.0937194
    18   6 C       37   1 H                                       1.0943664
    18   6 C       38   1 H                                       1.0920665 (min)
    19   6 C       39   1 H                                       1.0949519
    19   6 C       40   1 H                                       1.0938779
    19   6 C       41   1 H                                       1.0941586

 * 4 distinct bonds (by element types)

   Z      Z             #   av. dist./Å        max./Å        min./Å
   1 H    6 C          22     1.0940383     1.0952778     1.0920665
   6 C    6 C           4     1.5068065     1.5083648     1.5060465
   8 O   15 P           4     1.6076134     1.6129736     1.6034486
  15 P   16 S           4     2.0322336     2.1187956     1.9468869


optimized geometry written to: xtbopt.coord


           -------------------------------------------------
          | TOTAL ENERGY            -2932.485710440733 Eh   |
          | GRADIENT NORM               0.000855163730 Eh/α |
           -------------------------------------------------

------------------------------------------------------------------------
 * finished run on 2025/04/11 at 03:24:40.222     
------------------------------------------------------------------------
 total:
 * wall-time:     0 d,  0 h,  8 min, 20.958 sec
 *  cpu-time:     0 d,  0 h,  0 min,  5.023 sec
 * ratio c/w:     0.010 speedup
 SCF:
 * wall-time:     0 d,  0 h,  1 min, 41.968 sec
 *  cpu-time:     0 d,  0 h,  0 min,  0.898 sec
 * ratio c/w:     0.009 speedup
 ANC optimizer:
 * wall-time:     0 d,  0 h,  6 min, 38.919 sec
 *  cpu-time:     0 d,  0 h,  0 min,  4.083 sec
 * ratio c/w:     0.010 speedup

