41
 energy: -65.051681401682 gnorm: 0.054093919191 xtb: 6.7.1 (edcfbbe)
C            1.85501998114085        0.29171140776276       -3.21989724929894
C            2.50585157901345        0.38986560854443       -1.86414754194064
O            1.75941697084928       -0.49898589973096       -0.96349644040784
P            2.14372725036441       -0.59204654731538        0.58969641936317
S            2.65545424831539        1.05010301565212        1.49999726220988
O            3.23694767690137       -1.77399431227083        0.54925798511023
C            4.06231033114043       -2.09644521736711        1.72346646765925
C            5.44809978483841       -1.52186684770386        1.55650542533424
S            0.47607348533561       -1.62524543223974        1.39886348057540
C           -0.60156512204919       -0.23540161757584        1.96219147990587
S           -2.28012012380571       -0.19239317983563        1.22732845570656
P           -1.92917102025121        0.78494652504515       -0.63484536002685
S           -0.67401804532838        2.26475973546014       -0.58728491594593
O           -3.44548108082828        1.10766110761689       -1.07108698939365
C           -4.05007656262241        2.43908585511010       -0.92975550267298
C           -4.48602360061970        2.72504069053007        0.48568225425370
O           -1.48541428110636       -0.33252405201557       -1.69672566544209
C           -1.93987947490459       -1.73236901928776       -1.71313795291922
C           -3.40551070880115       -1.88090705820968       -2.04079569011740
H            2.40973755721206        0.91898067005870       -3.92466516901566
H            1.86884061241414       -0.73837645624395       -3.58862203972236
H            0.82045704486035        0.64521796972786       -3.18043178569859
H            2.45358292342620        1.40476595959159       -1.46044603138779
H            3.54995590532722        0.06005147285112       -1.88747887493046
H            3.57385747237144       -1.72016286029386        2.62825027307954
H            4.07783817053285       -3.18840083473120        1.76029082993013
H            6.06097835129073       -1.82945791688203        2.41109319444987
H            5.91969430106221       -1.89498155634836        0.64238795984083
H            5.41946808285350       -0.42898688932283        1.52616073691564
H           -0.09031594654836        0.71793911109635        1.77921990248377
H           -0.75905526363716       -0.35381879981066        3.03784392169043
H           -3.33089938534598        3.18176977945560       -1.28980418668763
H           -4.90059923105418        2.40575154220894       -1.61345053403779
H           -3.63170454924409        2.78993807763580        1.16598855630317
H           -5.00056782645854        3.69140057877568        0.49545235307008
H           -5.17904978286157        1.96189900676610        0.85023200529469
H           -1.31127771147543       -2.18494638389545       -2.48305276624043
H           -1.69094342032220       -2.18162988397167       -0.74728343292486
H           -3.65979602401687       -1.36640107918622       -2.97167493886962
H           -3.61420364233952       -2.94799324229789       -2.16861103954308
H           -4.04610002969441       -1.50663853455171       -1.23697498325598
41
 energy: -65.055576673149 gnorm: 0.027421401830 xtb: 6.7.1 (edcfbbe)
C            1.85387254890552        0.29281737926768       -3.21612576708434
C            2.49426394483842        0.38113064231317       -1.85158167125640
O            1.74936305757751       -0.49950157328926       -0.95674171792584
P            2.12062585383647       -0.60148633674453        0.59242077694929
S            2.64655067964661        1.06320780598421        1.48684303465060
O            3.22967628304814       -1.76064598186095        0.55107947126726
C            4.04993405799183       -2.08576533006603        1.71282356489847
C            5.44189625033457       -1.51717476823066        1.55738677920678
S            0.44065884712698       -1.61444781617516        1.35200486682481
C           -0.59196908509638       -0.22139670528498        1.95571734193221
S           -2.26104191886715       -0.22660138519803        1.23211853808159
P           -1.93660970385103        0.76941171685221       -0.61403341020653
S           -0.66482195583573        2.25626052657087       -0.60882471795143
O           -3.43337675003424        1.11396967750404       -1.07927692906445
C           -4.03254099729211        2.43182793370646       -0.93167361827378
C           -4.47729036351128        2.71703420178700        0.48334109557247
O           -1.48646142708077       -0.34108224870531       -1.66907947032978
C           -1.93709599242441       -1.72915052927212       -1.70298008202283
C           -3.40213841215785       -1.87670036257621       -2.03548411555637
H            2.40665762774332        0.92058704621805       -3.91295661554512
H            1.86722904300951       -0.73427521303340       -3.57512555812389
H            0.82216658990717        0.63793437544271       -3.17063766865957
H            2.44489341754684        1.39607536994477       -1.44649324014129
H            3.53517010053706        0.04769846176946       -1.87041439481657
H            3.56092900199241       -1.70290993257865        2.61236528315695
H            4.06306963331850       -3.17719467638438        1.74219190131126
H            6.04953143742701       -1.82372444703218        2.40745351207544
H            5.90420180416320       -1.88591988426951        0.64377682997996
H            5.40932959727766       -0.42920288205316        1.52450308196488
H           -0.08486534302172        0.72497362211020        1.74722266305545
H           -0.74379907693786       -0.35954608479420        3.02545821143709
H           -3.30772188867950        3.17542022613123       -1.27544711980970
H           -4.88048031674195        2.39798541174739       -1.61802460716572
H           -3.62137010388610        2.77122047303023        1.15527710188058
H           -4.99058151906856        3.67780372649707        0.49981474709701
H           -5.15872273625270        1.94745291983652        0.84016653043481
H           -1.30376960527461       -2.16863785549021       -2.47605501751820
H           -1.69927518543050       -2.18309390713119       -0.73725283858857
H           -3.64380480214563       -1.35201708224389       -2.95779139190494
H           -3.61813770477146       -2.93657137032465       -2.16615450062714
H           -4.02860599193269       -1.48885065117342       -1.23357100650779
41
 energy: -65.057091781873 gnorm: 0.011711658559 xtb: 6.7.1 (edcfbbe)
C            1.84924395288941        0.29292397120321       -3.21365204090857
C            2.48581163913691        0.37570517765853       -1.84377522279404
O            1.73850742860908       -0.49288772769828       -0.95815641144055
P            2.09808569575321       -0.60233217912000        0.58474851316108
S            2.60970344418140        1.06726602223646        1.48645276831498
O            3.21987482802846       -1.73976972542130        0.54890701251072
C            4.02894607393831       -2.07316239474831        1.70155024517030
C            5.42783905421537       -1.50991265132000        1.55338143287191
S            0.41988415135537       -1.61198511869646        1.32290338770900
C           -0.59769525542447       -0.21764221660199        1.93383466455950
S           -2.27405899752676       -0.21002384059388        1.25350032587938
P           -1.92944673475863        0.75462095897907       -0.60464521268418
S           -0.64638104295329        2.23534916578785       -0.60106469511414
O           -3.40827393343004        1.11816372928932       -1.08861402154487
C           -4.00642365398074        2.42003431435049       -0.93395091301182
C           -4.45895592780806        2.69838293371852        0.48366890300133
O           -1.47849962319459       -0.35602318878244       -1.64498189032922
C           -1.92803603117652       -1.73123650212410       -1.69047465681474
C           -3.39588164741449       -1.86646241966534       -2.02715209361347
H            2.40141910194939        0.92321019988026       -3.90149900928522
H            1.86424242660020       -0.73278403680846       -3.56618831439966
H            0.81899154127532        0.63292246768212       -3.16124047199253
H            2.44091121774666        1.39162916262265       -1.43849326450248
H            3.52427841976901        0.03785784818652       -1.85881314350019
H            3.54571367953300       -1.68564522663585        2.60112111570641
H            4.04097952326130       -3.16419137679606        1.72735937944846
H            6.02845400228778       -1.81869197720614        2.40150223331333
H            5.88441317076648       -1.87569811947093        0.63957740662191
H            5.39362855866008       -0.42429913439518        1.52108244930740
H           -0.08836735008997        0.72020949112568        1.70407594839245
H           -0.72638085631640       -0.35262888871932        3.00392883391136
H           -3.28224394549349        3.17120228947973       -1.26223615915555
H           -4.85288811091996        2.39042755332865       -1.62203366923051
H           -3.60062462641365        2.74627500215725        1.14945497635002
H           -4.97342134388524        3.65373612865362        0.50603565375625
H           -5.13158883344573        1.92094981025948        0.83154625338543
H           -1.29505530253245       -2.16513355936892       -2.46622006209667
H           -1.70247106181112       -2.19660181028885       -0.72699781662769
H           -3.62521094305002       -1.33295205904049       -2.94447719112591
H           -3.62453948200213       -2.91928593885039       -2.15877887243871
H           -4.00894431039472       -1.46460164144551       -1.22494649806388
41
 energy: -65.057611257274 gnorm: 0.007055338123 xtb: 6.7.1 (edcfbbe)
C            1.84426480791144        0.29379264003694       -3.21311188415330
C            2.47966416209603        0.37520846937674       -1.84103281069677
O            1.72461223584831       -0.48273056444109       -0.96036437881195
P            2.07722130794846       -0.59602793300743        0.57826065007835
S            2.57589092762353        1.07102238206504        1.49190222224987
O            3.20547236152449       -1.72087452925858        0.54599893471122
C            4.00824728345076       -2.06228255224629        1.69463496966547
C            5.41166149669806       -1.50306201055265        1.54774471163304
S            0.39769143381067       -1.62367290303158        1.30244721661272
C           -0.60083432636002       -0.22084068515575        1.92869480473403
S           -2.27506747251165       -0.20541556103898        1.25702857023679
P           -1.91723307948844        0.75152163759649       -0.60539894430121
S           -0.62207558392673        2.22084252775514       -0.59085762308344
O           -3.38366710744651        1.12378116755325       -1.10518107899181
C           -3.98559083069122        2.41552185400741       -0.93984719321034
C           -4.43992667763709        2.67793271848955        0.48316025795325
O           -1.46380388471729       -0.36861656880956       -1.62490029339321
C           -1.91911672720820       -1.73678274996811       -1.67759592262870
C           -3.38987882596389       -1.85620998478539       -2.01874487906107
H            2.39656708918464        0.92624811290817       -3.89781593176944
H            1.86093858631707       -0.73227241934456       -3.56511255870984
H            0.81360522958143        0.63289567656313       -3.15799566892052
H            2.44204910399280        1.39394791787846       -1.44005907720581
H            3.51710889119434        0.03287767555262       -1.85517294553031
H            3.53206405006411       -1.67412499405010        2.59805681449310
H            4.01863893602542       -3.15328368747865        1.72119904065870
H            6.00934222398128       -1.81567138159408        2.39614398604617
H            5.86666051182041       -1.86823097247547        0.63262060058335
H            5.37882482941093       -0.41685869858194        1.51781994063782
H           -0.08980848584911        0.71325229237153        1.68374384768946
H           -0.71217699305780       -0.34493773455301        3.00222155614905
H           -3.26587951424786        3.17713113111806       -1.25622440159534
H           -4.83210050852716        2.39441830421032       -1.62834503595814
H           -3.57990458630471        2.72308974677773        1.14763242535804
H           -4.95867005928244        3.63012540286076        0.51477775969950
H           -5.10747234276281        1.89216369680122        0.82322786459105
H           -1.28932115530179       -2.17475892689762       -2.45348766691280
H           -1.70321122921495       -2.21394272140650       -0.71699288653468
H           -3.60958651236885       -1.31784895030722       -2.93607743426948
H           -3.63263879813633       -2.90529247233886       -2.15047178058631
H           -3.99702187154526       -1.44511985979791       -1.21628590475992
41
 energy: -65.057832948727 gnorm: 0.006285119171 xtb: 6.7.1 (edcfbbe)
C            1.84048535005509        0.29640335492994       -3.21576084449991
C            2.47510007912686        0.37682252868583       -1.84298175072197
O            1.71304811364440       -0.47526690760187       -0.96397327424652
P            2.06422322634939       -0.59253510595606        0.57155138226158
S            2.54809882963273        1.06968574034457        1.50032485620274
O            3.19740355520685       -1.70884861108469        0.53988740727630
C            3.99485356635846       -2.05517139937628        1.68940008666913
C            5.39986678068986       -1.49795998583241        1.54339796007272
S            0.38322159498950       -1.62041710468805        1.29419715903851
C           -0.61721477722422       -0.22082128783113        1.92707000854507
S           -2.29386696264307       -0.19620244545728        1.26485454334519
P           -1.90148425967983        0.74799969019969       -0.60334706823188
S           -0.59904416324768        2.21029462232861       -0.58464811649220
O           -3.35726888869473        1.12743260381607       -1.12151744603833
C           -3.96554188366610        2.41393631916627       -0.94367304623953
C           -4.42177969863222        2.65860920738842        0.48304575534494
O           -1.44451902458517       -0.38077525982665       -1.60642477982186
C           -1.91231700424211       -1.74433902944848       -1.66810776369839
C           -3.38474125935489       -1.84753266975250       -2.01212542316025
H            2.39212023242154        0.93080408531356       -3.90060982701762
H            1.85823702520829       -0.72974240344746       -3.57040898868824
H            0.80882283973353        0.63507282219403       -3.16024008007096
H            2.44414936283082        1.39767482513382       -1.44558666510442
H            3.51170353276857        0.02977785882598       -1.85634739708179
H            3.52036268497780       -1.66697833260145        2.59446254003527
H            4.00213084884164       -3.14629309434310        1.71760732586302
H            5.99690878055500       -1.81323469751886        2.39262823448723
H            5.85518969310157       -1.86298660549907        0.62731213137642
H            5.36834992568863       -0.41077385226858        1.51528206068288
H           -0.10367695378625        0.71235133478519        1.68062921688898
H           -0.71447847419762       -0.34126684907424        3.00311715208865
H           -3.25122396941896        3.18516779991178       -1.25109396696714
H           -4.81216683556886        2.40012039926596       -1.63257827020932
H           -3.56159602829798        2.70249802787442        1.14860134977000
H           -4.94678436427375        3.60803376570476        0.52524004718810
H           -5.08514027863131        1.86469156844126        0.81539069143704
H           -1.28592924599834       -2.18763631147906       -2.44399869521567
H           -1.70327594763998       -2.23034001401988       -0.71004645750857
H           -3.59713792511138       -1.30610967384121       -2.93035267275026
H           -3.64044321909533       -2.89427980612465       -2.14449456929342
H           -3.98910596225687       -1.43095061443600       -1.20944293281904
41
 energy: -65.057942278408 gnorm: 0.004538553067 xtb: 6.7.1 (edcfbbe)
C            1.83806762617804        0.29921759336129       -3.21889908847018
C            2.47137452867755        0.37940248540236       -1.84601623301934
O            1.70187277574139       -0.46665623306494       -0.96463529009464
P            2.05286394443263       -0.58572736866537        0.57021024038934
S            2.53824305600397        1.07202405390530        1.50473610539637
O            3.18693883475013       -1.69999990560496        0.53684098625881
C            3.98460003585901       -2.04925321278205        1.68704490219922
C            5.39021889017598       -1.49519231444260        1.54040698406111
S            0.37649044437060       -1.62301843443093        1.29376096009909
C           -0.62172613653000       -0.22303446402707        1.93392273802586
S           -2.29468100315678       -0.18571445148241        1.26547568716677
P           -1.89259928399080        0.74661555751519       -0.60666769816483
S           -0.58346272843602        2.20156965057928       -0.57612740616870
O           -3.34040880246563        1.13188729977065       -1.14111299945086
C           -3.95331287949992        2.41624533106155       -0.94777174025207
C           -4.40837984780292        2.64429119400020        0.48171881487647
O           -1.43048272997648       -0.39010582598907       -1.59666498966108
C           -1.90997933568995       -1.75150038252434       -1.66312565683592
C           -3.38237414446751       -1.84246586373321       -2.00806649470288
H            2.38981167471613        0.93403097742486       -3.90471413898542
H            1.85573975108787       -0.72668517854622       -3.57621189354387
H            0.80597688862649        0.63847864899785       -3.16518071544856
H            2.44565281180487        1.40137741538360       -1.45124872741244
H            3.50643874685183        0.02637192663258       -1.85687723741078
H            3.51059361786827       -1.66052600058525        2.59255739670701
H            3.98824933754833       -3.14056109053139        1.71615593330094
H            5.98827858522497       -1.81218064006008        2.38940614901949
H            5.84562950655545       -1.86065135467463        0.62388037192477
H            5.36150656411143       -0.40749917377139        1.51339941515382
H           -0.10577316640043        0.71120257385268        1.69553176661985
H           -0.72069148101838       -0.34750847296335        3.00905193929278
H           -3.24183028974152        3.19249187486010       -1.24915260128953
H           -4.80032371403773        2.40729503342157       -1.63631407723082
H           -3.54823006043446        2.68723101667839        1.14809643891420
H           -4.93879557653443        3.59116535637575        0.53403470605973
H           -5.06811501016422        1.84423113097832        0.80809063011075
H           -1.28606993824865       -2.19781625009131       -2.43952643638092
H           -1.70354683891283       -2.24090708903998       -0.70641861452920
H           -3.59080427862611       -1.29984948865577       -2.92687342729903
H           -3.64577545481108       -2.88783290482184       -2.14110537893234
H           -3.98564602370535       -1.42352852691216       -1.20537144759649
41
 energy: -65.057997781367 gnorm: 0.002408665310 xtb: 6.7.1 (edcfbbe)
C            1.83667256797715        0.30147158087187       -3.22215329321411
C            2.46883671728024        0.38182827969194       -1.84960173976918
O            1.69498814372746       -0.46061315392957       -0.96531278699098
P            2.04772560795151       -0.58070451152158        0.56977489350368
S            2.53622587337780        1.07474703660535        1.50704851912723
O            3.18141647784914       -1.69586210308500        0.53385203545282
C            3.97945409415947       -2.04571374949021        1.68566056256930
C            5.38480218278325       -1.49409900928950        1.53860201930779
S            0.37252724992159       -1.61801872918599        1.29565404433592
C           -0.62946689917709       -0.22264057578735        1.94027825449841
S           -2.29943867448265       -0.18232153924938        1.26381201953257
P           -1.88419403597411        0.74611536955866       -0.60717287277089
S           -0.57166795792383        2.19859292915229       -0.57613498093101
O           -3.32706929382579        1.13415141077737       -1.15255732372110
C           -3.94436028119158        2.41736927094303       -0.94907480715512
C           -4.39833175018501        2.63470641806641        0.48095118089382
O           -1.42040043887617       -0.39593404542650       -1.59022807290631
C           -1.91004936033580       -1.75599164010106       -1.66004008482578
C           -3.38150696915592       -1.83930470188850       -2.00507009804593
H            2.38894632481625        0.93640454132637       -3.90792933841215
H            1.85416489716984       -0.72397287581109       -3.58096775739577
H            0.80460460504903        0.64121980328911       -3.17004802993155
H            2.44575071299763        1.40377238898212       -1.45555873360187
H            3.50204899587329        0.02368839410410       -1.85741404187273
H            3.50410145224948       -1.65548359108036        2.58983656839528
H            3.98008099023377       -3.13705093093195        1.71487906913204
H            5.98327119390252       -1.81182199639406        2.38723549562663
H            5.83990127189472       -1.86021700683008        0.62217171883756
H            5.35829206090688       -0.40642035944110        1.51175124664690
H           -0.11087919425601        0.71329851708556        1.71336263167882
H           -0.73554336329992       -0.35738932250631        3.01335157149508
H           -3.23447798628102        3.19538358916316       -1.24776020662081
H           -4.79167844993173        2.40861194276206       -1.63704255756711
H           -3.53849748003449        2.67846571293415        1.14753515164522
H           -4.93321127042018        3.57878013124406        0.53888609741305
H           -5.05464735746595        1.83050954668348        0.80351675420964
H           -1.28813411005043       -2.20239154927273       -2.43803798519863
H           -1.70392113470008       -2.24690344072720       -0.70438239028811
H           -3.58812401420838       -1.29553938189724       -2.92345036167239
H           -3.64845026587295       -2.88367020015229       -2.13971909635551
H           -3.98422223653829       -1.42013795644081       -1.20226340235828
41
 energy: -65.058012830545 gnorm: 0.001471867166 xtb: 6.7.1 (edcfbbe)
C            1.83629826352806        0.30230737465414       -3.22359461712836
C            2.46749368424591        0.38293478899157       -1.85096959534049
O            1.69215258416259       -0.45793099635290       -0.96542456350732
P            2.04597157315742       -0.57802755483450        0.57022540483787
S            2.53731735421832        1.07746580517021        1.50658503523956
O            3.17909676460871       -1.69475965426068        0.53260793257807
C            3.97752431843835       -2.04397969484719        1.68511482528662
C            5.38295694096696       -1.49395186963698        1.53787311486641
S            0.37183244398435       -1.61463869022664        1.29655144222812
C           -0.63165823395461       -0.22268818359016        1.94526903514839
S           -2.29994034863731       -0.17916710596231        1.26367723206576
P           -1.88144029258052        0.74511088564753       -0.60783219654598
S           -0.56763887301245        2.19696054944171       -0.57565855259893
O           -3.32221031579852        1.13473193333055       -1.15715294254163
C           -3.94095651324251        2.41735093544308       -0.94994444052106
C           -4.39388611302474        2.63124957055210        0.48004185367210
O           -1.41780596071567       -0.39785904127852       -1.59012482540565
C           -1.91072956309046       -1.75739128791800       -1.66029761883320
C           -3.38192933181844       -1.83828020184151       -2.00370139251772
H            2.38926317200666        0.93708910984481       -3.90856575616355
H            1.85369473825153       -0.72294719884755       -3.58198037383003
H            0.80449358115774        0.64219092894408       -3.17208865928924
H            2.44500047786932        1.40476176737504       -1.45719950006499
H            3.49954279555731        0.02255948373038       -1.85705515888336
H            3.50155861486650       -1.65234545462437        2.58811195984164
H            3.97695573124733       -3.13520873211499        1.71415404198790
H            5.98104376012352       -1.81199772642675        2.38624338725312
H            5.83725116977239       -1.86070074602384        0.62161052795797
H            5.35770430582420       -0.40649810444892        1.51063668225450
H           -0.11141099506562        0.71403439506403        1.72565677970181
H           -0.74395915808728       -0.36544665411703        3.01684343168864
H           -3.23143005236446        3.19544381361230       -1.24800836267923
H           -4.78865087704393        2.40732002126900       -1.63727241421565
H           -3.53383245588070        2.67617712544163        1.14587563775395
H           -4.93103878273119        3.57349435037991        0.53974216325709
H           -5.04757710599836        1.82504008870302        0.80172222064760
H           -1.28991424539179       -2.20269539683688       -2.43965034805382
H           -1.70377211757777       -2.24805649755477       -0.70488838217776
H           -3.58862262132276       -1.29321305594045       -2.92098813040297
H           -3.64954095662750       -2.88211119516879       -2.13963403925026
H           -3.98366846408700       -1.41941339194015       -1.20027096561951
41
 energy: -65.058016516372 gnorm: 0.000835357464 xtb: 6.7.1 (edcfbbe)
C            1.83635511837608        0.30234631145141       -3.22403694714393
C            2.46683137624585        0.38338315484030       -1.85095365487586
O            1.69081124738871       -0.45660651934434       -0.96562492734253
P            2.04471888261962       -0.57625961276848        0.57061157101079
S            2.53790282389065        1.07950067578259        1.50547917656959
O            3.17775496913233       -1.69410767500786        0.53210644734062
C            3.97619501373133       -2.04262882803896        1.68478581482939
C            5.38217828800060       -1.49372759479534        1.53728991361457
S            0.37155433379975       -1.61394659262026        1.29672717809702
C           -0.63215065307173       -0.22370098917266        1.94702203109701
S           -2.30006234529934       -0.17973940747593        1.26299359464244
P           -1.87951098671157        0.74473042615523       -0.60746035191156
S           -0.56538166861814        2.19668161117535       -0.57646085211841
O           -3.31945439280600        1.13473059715812       -1.15763912075475
C           -3.93929876849619        2.41650027311380       -0.95068901948558
C           -4.39169961464773        2.63025992123484        0.47940270200363
O           -1.41743139670252       -0.39801674326565       -1.59096031985939
C           -1.91093719334721       -1.75722212714608       -1.66068823041649
C           -3.38259561315988       -1.83760377601872       -2.00241936312194
H            2.38992166722811        0.93685725864327       -3.90829156371089
H            1.85380187491801       -0.72301773788375       -3.58138962124133
H            0.80470853648798        0.64224415403232       -3.17280700267848
H            2.44424902313895        1.40536154411649       -1.45764016541368
H            3.49844244185498        0.02249139079083       -1.85619635871996
H            3.50055759605030       -1.64992771338143        2.58727245171940
H            3.97538753297686       -3.13374873687103        1.71411797691137
H            5.97962944906094       -1.81214801360637        2.38562349994538
H            5.83571630229311       -1.86113318177666        0.62110826826340
H            5.35786807875729       -0.40637970162742        1.50963359083731
H           -0.11143304168724        0.71357996730346        1.73183157170890
H           -0.74827440080775       -0.37085605151595        3.01767201013896
H           -3.23049416876455        3.19501227955860       -1.24914692646586
H           -4.78736898792819        2.40490837738508       -1.63750852239965
H           -3.53108556809736        2.67722503270615        1.14418371275675
H           -4.93087856963798        3.57103920440799        0.53918845383866
H           -5.04283975554787        1.82243033485104        0.80169399720213
H           -1.29130456591135       -2.20201744793416       -2.44112980901051
H           -1.70312059669087       -2.24817092229979       -0.70558543952409
H           -3.59012827628349       -1.29093505210518       -2.91847258525286
H           -3.65055721531177       -2.88104090082907       -2.13959171609212
H           -3.98303788048915       -1.41943269642056       -1.19781159229102
41
 energy: -65.058017851581 gnorm: 0.000398938235 xtb: 6.7.1 (edcfbbe)
C            1.83658275961757        0.30218218261865       -3.22411219279426
C            2.46666525785767        0.38335016521057       -1.85062684630557
O            1.69073622004647       -0.45685569910353       -0.96618100205783
P            2.04461403181642       -0.57636746493116        0.57015939371241
S            2.53615288582319        1.07933205512532        1.50579836134621
O            3.17823406025676       -1.69404131725114        0.53157119250322