      -----------------------------------------------------------      
     |                   =====================                   |     
     |                           x T B                           |     
     |                   =====================                   |     
     |                         S. Grimme                         |     
     |          Mulliken Center for Theoretical Chemistry        |     
     |                    University of Bonn                     |     
      -----------------------------------------------------------      

   * xtb version 6.7.1 (edcfbbe) compiled by 'albert@albert-system' on 2024-07-22

   xtb is free software: you can redistribute it and/or modify it under
   the terms of the GNU Lesser General Public License as published by
   the Free Software Foundation, either version 3 of the License, or
   (at your option) any later version.
   
   xtb is distributed in the hope that it will be useful,
   but WITHOUT ANY WARRANTY; without even the implied warranty of
   MERCHANTABILITY or FITNESS FOR A PARTICULAR PURPOSE.  See the
   GNU Lesser General Public License for more details.
   
   Cite this work as:
   * C. Bannwarth, E. Caldeweyher, S. Ehlert, A. Hansen, P. Pracht,
     J. Seibert, S. Spicher, S. Grimme, WIREs Comput. Mol. Sci., 2020, 11,
     e01493. DOI: 10.1002/wcms.1493
   
   for GFN2-xTB:
   * C. Bannwarth, S. Ehlert and S. Grimme., J. Chem. Theory Comput., 2019,
     15, 1652-1671. DOI: 10.1021/acs.jctc.8b01176
   for GFN1-xTB:
   * S. Grimme, C. Bannwarth, P. Shushkov, J. Chem. Theory Comput., 2017,
     13, 1989-2009. DOI: 10.1021/acs.jctc.7b00118
   for GFN0-xTB:
   * P. Pracht, E. Caldeweyher, S. Ehlert, S. Grimme, ChemRxiv, 2019, preprint.
     DOI: 10.26434/chemrxiv.8326202.v1
   for GFN-FF:
   * S. Spicher and S. Grimme, Angew. Chem. Int. Ed., 2020, 59, 15665-15673.
     DOI: 10.1002/anie.202004239
   
   for ALPB and GBSA implicit solvation:
   * S. Ehlert, M. Stahn, S. Spicher, S. Grimme, J. Chem. Theory Comput.,
     2021, 17, 4250-4261. DOI: 10.1021/acs.jctc.1c00471
   
   for ddCOSMO and CPCM-X implicit solvation:
   * M. Stahn, S. Ehlert, S. Grimme, J. Phys. Chem. A,
     2023, XX, XXXX-XXXX. DOI: 10.1021/acs.jpca.3c04382
   
   for DFT-D4:
   * E. Caldeweyher, C. Bannwarth and S. Grimme, J. Chem. Phys., 2017,
     147, 034112. DOI: 10.1063/1.4993215
   * E. Caldeweyher, S. Ehlert, A. Hansen, H. Neugebauer, S. Spicher,
     C. Bannwarth and S. Grimme, J. Chem. Phys., 2019, 150, 154122.
     DOI: 10.1063/1.5090222
   * E. Caldeweyher, J.-M. Mewes, S. Ehlert and S. Grimme, Phys. Chem. Chem. Phys.
     2020, 22, 8499-8512. DOI: 10.1039/D0CP00502A
   
   for sTDA-xTB:
   * S. Grimme and C. Bannwarth, J. Chem. Phys., 2016, 145, 054103.
     DOI: 10.1063/1.4959605
   
   in the mass-spec context:
   * V. Asgeirsson, C. Bauer and S. Grimme, Chem. Sci., 2017, 8, 4879.
     DOI: 10.1039/c7sc00601b
   * J. Koopman and S. Grimme, ACS Omega 2019, 4, 12, 15120-15133.
     DOI: 10.1021/acsomega.9b02011
   
   for metadynamics refer to:
   * S. Grimme, J. Chem. Theory Comput., 2019, 155, 2847-2862
     DOI: 10.1021/acs.jctc.9b00143
   
   for SPH calculations refer to:
   * S. Spicher and S. Grimme, J. Chem. Theory Comput., 2021, 17, 1701-1714
     DOI: 10.1021/acs.jctc.0c01306
   
   for ONIOM refer to:
   * C. Plett, A. Katbashev, S. Ehlert, S. Grimme, M. Bursch,
     Phys. Chem. Chem. Phys., 2023, 25, 17860-17868. DOI: 10.1039/D3CP02178E
   
   for DIPRO refer to:
   * J. Kohn, N. Gildemeister, S. Grimme, D. Fazzi, A. Hansen,
     J. Chem. Phys., 2023, just accepted.
   
   for PTB refer to:
   * S. Grimme, M. Mueller, A. Hansen, J. Chem. Phys., 2023, 158, 124111.
     DOI: 10.1063/5.0137838
   
   with help from (in alphabetical order)
   P. Atkinson, C. Bannwarth, F. Bohle, G. Brandenburg, E. Caldeweyher
   M. Checinski, S. Dohm, S. Ehlert, S. Ehrlich, I. Gerasimov, C. Hölzer
   A. Katbashev, J. Kohn, J. Koopman, C. Lavigne, S. Lehtola, F. März, M. Müller,
   F. Musil, H. Neugebauer, J. Pisarek, C. Plett, P. Pracht, F. Pultar,
   J. Seibert, P. Shushkov, S. Spicher, M. Stahn, M. Steiner, T. Strunk,
   J. Stückrath, T. Rose, and J. Unsleber
   
 * started run on 2025/04/09 at 07:31:35.799     
   ID    Z sym.   atoms
    1    6 C      1, 2, 4, 6, 7, 9, 12, 13, 18, 20
    2    8 O      3, 5, 10, 11, 17, 19
    3    1 H      8, 21-38
    4   16 S      14, 16
    5   15 P      15

           -------------------------------------------------
          |                Calculation Setup                |
           -------------------------------------------------

          program call               : /software/projects/pawsey0265/mwang1/xtb/bin/xtb solv.coord --gfn2 --sp --chrg 0 --norestart --parallel 1 --alpb water reference -I xtb_sp-xcontrol-inp
          hostname                   : nid002043
          coordinate file            : solv.coord
          omp threads                :                     1


           -------------------------------------------------
          |                 G F N 2 - x T B                 |
           -------------------------------------------------

        Reference                      10.1021/acs.jctc.8b01176
      * Hamiltonian:
        H0-scaling (s, p, d)           1.850000    2.230000    2.230000
        zeta-weighting                 0.500000
      * Dispersion:
        s8                             2.700000
        a1                             0.520000
        a2                             5.000000
        s9                             5.000000
      * Repulsion:
        kExp                           1.500000    1.000000
        rExp                           1.000000
      * Coulomb:
        alpha                          2.000000
        third order                    shell-resolved
        anisotropic                    true
        a3                             3.000000
        a5                             4.000000
        cn-shift                       1.200000
        cn-exp                         4.000000
        max-rad                        5.000000

      * Solvation model:               ALPB
        Solvent                        water
        Parameter file                 internal GFN2-xTB/ALPB
        Dielectric constant                8.0200E+01
        Reference state                gsolv=reference [X=1]
        Free energy shift                  2.8945E-03 Eh       1.8164E+00 kcal/mol
        Temperature                        2.9815E+02 K
        Density                            1.0000E+00 kg/L
        Solvent mass                       1.8000E+01 g/mol
        Interaction kernel             P16
        Born radius scaling (c1)           1.4744E+00
        Born radii integrator          GBOBC
        Born offset                        0.0000E+00 a0       0.0000E+00 AA
        H-bond correction              true
        Ion screening                  false
        Surface tension                    1.0000E-05 Eh       1.5569E+01 dyn/cm
        Grid points                               974 per atom

          ...................................................
          :                      SETUP                      :
          :.................................................:
          :  # basis functions                 113          :
          :  # atomic orbitals                 110          :
          :  # shells                           60          :
          :  # electrons                       112          :
          :  max. iterations                   250          :
          :  Hamiltonian                  GFN2-xTB          :
          :  restarted?                      false          :
          :  GBSA solvation                   true          :
          :  PC potential                    false          :
          :  electronic temp.          300.0000000     K    :
          :  accuracy                    1.0000000          :
          :  -> integral cutoff          0.2500000E+02      :
          :  -> integral neglect         0.1000000E-07      :
          :  -> SCF convergence          0.1000000E-05 Eh   :
          :  -> wf. convergence          0.1000000E-03 e    :
          :  Broyden damping             0.4000000          :
          :  net charge                          0          :
          :  unpaired electrons                  0          :
          ...................................................

 iter      E             dE          RMSdq      gap      omega  full diag
   1    -65.0912482 -0.650912E+02  0.607E+00    4.26       0.0  T
   2    -65.2266385 -0.135390E+00  0.331E+00    3.13       1.0  T
   3    -65.2359599 -0.932135E-02  0.123E+00    3.07       1.0  T
   4    -65.2418038 -0.584394E-02  0.432E-01    2.88       1.0  T
   5    -65.2425398 -0.735963E-03  0.209E-01    3.02       1.0  T
   6    -65.2426406 -0.100829E-03  0.872E-02    3.01       1.0  T
   7    -65.2426635 -0.228849E-04  0.328E-02    3.04       1.0  T
   8    -65.2426657 -0.216977E-05  0.129E-02    3.04       1.3  T
   9    -65.2426662 -0.511694E-06  0.441E-03    3.04       3.7  T
  10    -65.2426662 -0.998600E-08  0.208E-03    3.04       7.8  T
  11    -65.2426662 -0.217894E-07  0.493E-04    3.04      32.9  T
  12    -65.2426662 -0.113141E-08  0.239E-04    3.04      67.8  T

   *** convergence criteria satisfied after 12 iterations ***

         #    Occupation            Energy/Eh            Energy/eV
      -------------------------------------------------------------
         1        2.0000           -0.7802135             -21.2307
       ...           ...                  ...                  ...
        50        2.0000           -0.4482825             -12.1984
        51        2.0000           -0.4475402             -12.1782
        52        2.0000           -0.4455317             -12.1235
        53        2.0000           -0.4347986             -11.8315
        54        2.0000           -0.4109341             -11.1821
        55        2.0000           -0.3908738             -10.6362
        56        2.0000           -0.3866540             -10.5214 (HOMO)
        57                         -0.2749735              -7.4824 (LUMO)
        58                         -0.2679474              -7.2912
        59                         -0.2476722              -6.7395
        60                         -0.2063796              -5.6159
        61                         -0.1614727              -4.3939
       ...                                ...                  ...
       110                          1.3309751              36.2177
      -------------------------------------------------------------
                  HL-Gap            0.1116806 Eh            3.0390 eV
             Fermi-level           -0.3308137 Eh           -9.0019 eV

 SCC (total)                   0 d,  0 h,  0 min,  0.102 sec
 SCC setup                      ...        0 min,  0.003 sec (  2.994%)
 Dispersion                     ...        0 min,  0.000 sec (  0.362%)
 classical contributions        ...        0 min,  0.000 sec (  0.079%)
 integral evaluation            ...        0 min,  0.039 sec ( 38.404%)
 iterations                     ...        0 min,  0.030 sec ( 28.915%)
 molecular gradient             ...        0 min,  0.029 sec ( 28.883%)
 printout                       ...        0 min,  0.000 sec (  0.333%)

         :::::::::::::::::::::::::::::::::::::::::::::::::::::
         ::                     SUMMARY                     ::
         :::::::::::::::::::::::::::::::::::::::::::::::::::::
         :: total energy             -64.671566231627 Eh    ::
         :: total w/o Gsasa/hb       -64.673510452434 Eh    ::
         :: gradient norm              0.000157923895 Eh/a0 ::
         :: HOMO-LUMO gap              3.038982910217 eV    ::
         ::.................................................::
         :: SCC energy               -65.242224719058 Eh    ::
         :: -> isotropic ES            0.168277425469 Eh    ::
         :: -> anisotropic ES         -0.016470546961 Eh    ::
         :: -> anisotropic XC          0.017131298438 Eh    ::
         :: -> dispersion             -0.041527021865 Eh    ::
         :: -> Gsolv                  -0.027002478138 Eh    ::
         ::    -> Gelec               -0.028946698946 Eh    ::
         ::    -> Gsasa                0.004023864332 Eh    ::
         ::    -> Ghb                 -0.004974192684 Eh    ::
         ::    -> Gshift               0.002894549160 Eh    ::
         :: repulsion energy           0.570658487431 Eh    ::
         :: add. restraining           0.000000000000 Eh    ::
         :: total charge               0.000000000000 e     ::
         :::::::::::::::::::::::::::::::::::::::::::::::::::::

           -------------------------------------------------
          |                Property Printout                |
           -------------------------------------------------

    * Orbital Energies and Occupations

         #    Occupation            Energy/Eh            Energy/eV
      -------------------------------------------------------------
         1        2.0000           -0.7802135             -21.2307
       ...           ...                  ...                  ...
        44        2.0000           -0.4713474             -12.8260
        45        2.0000           -0.4705666             -12.8048
        46        2.0000           -0.4677890             -12.7292
        47        2.0000           -0.4625591             -12.5869
        48        2.0000           -0.4581865             -12.4679
        49        2.0000           -0.4555065             -12.3950
        50        2.0000           -0.4482825             -12.1984
        51        2.0000           -0.4475402             -12.1782
        52        2.0000           -0.4455317             -12.1235
        53        2.0000           -0.4347986             -11.8315
        54        2.0000           -0.4109341             -11.1821
        55        2.0000           -0.3908738             -10.6362
        56        2.0000           -0.3866540             -10.5214 (HOMO)
        57                         -0.2749735              -7.4824 (LUMO)
        58                         -0.2679474              -7.2912
        59                         -0.2476722              -6.7395
        60                         -0.2063796              -5.6159
        61                         -0.1614727              -4.3939
        62                         -0.1548702              -4.2142
        63                         -0.1205062              -3.2791
        64                         -0.0528189              -1.4373
        65                         -0.0406416              -1.1059
        66                         -0.0326045              -0.8872
        67                         -0.0216568              -0.5893
       ...                                ...                  ...
       110                          1.3309751              36.2177
      -------------------------------------------------------------
                  HL-Gap            0.1116806 Eh            3.0390 eV
             Fermi-level           -0.3308137 Eh           -9.0019 eV

     #   Z          covCN         q      C6AA      α(0)
     1   6 C        3.751    -0.130    23.064     6.849
     2   6 C        3.695     0.062    19.701     6.350
     3   8 O        1.703    -0.249    18.127     5.748
     4   6 C        2.717     0.374    20.666     7.442
     5   8 O        0.856    -0.465    23.026     6.434
     6   6 C        3.827    -0.095    22.282     6.717
     7   6 C        3.854     0.006    20.444     6.431
     8   1 H        0.924     0.131     1.528     1.933
     9   6 C        2.780     0.373    20.680     7.448
    10   8 O        0.961    -0.433    22.291     6.333
    11   8 O        1.703    -0.221    17.665     5.675
    12   6 C        3.699     0.071    19.542     6.322
    13   6 C        3.752    -0.140    23.255     6.877
    14  16 S        1.974    -0.140   146.935    20.402
    15  15 P        3.950     0.353   145.518    21.669
    16  16 S        0.925    -0.482   160.557    21.432
    17   8 O        1.656    -0.250    18.166     5.754
    18   6 C        3.787     0.026    20.151     6.394
    19   8 O        1.657    -0.285    18.752     5.846
    20   6 C        3.835     0.031    20.024     6.366
    21   1 H        0.925     0.076     2.021     2.223
    22   1 H        0.925     0.071     2.075     2.252
    23   1 H        0.925     0.055     2.260     2.351
    24   1 H        0.924     0.064     2.156     2.296
    25   1 H        0.925     0.093     1.847     2.125
    26   1 H        0.925     0.121     1.608     1.983
    27   1 H        0.924     0.084     1.943     2.180
    28   1 H        0.924     0.076     2.019     2.222
    29   1 H        0.924     0.071     2.078     2.254
    30   1 H        0.925     0.081     1.973     2.197
    31   1 H        0.925     0.084     1.939     2.177
    32   1 H        0.925     0.077     2.011     2.217
    33   1 H        0.924     0.075     2.036     2.232
    34   1 H        0.925     0.102     1.765     2.077
    35   1 H        0.925     0.092     1.858     2.132
    36   1 H        0.924     0.072     2.066     2.248
    37   1 H        0.924     0.071     2.075     2.252
    38   1 H        0.925     0.100     1.786     2.090

 Mol. C6AA /au·bohr⁶  :      18238.883585
 Mol. C8AA /au·bohr⁸  :     514554.278244
 Mol. α(0) /au        :        207.930298


Wiberg/Mayer (AO) data.
largest (>0.10) Wiberg bond orders for each atom

 ---------------------------------------------------------------------------
     #   Z sym  total        # sym  WBO       # sym  WBO       # sym  WBO
 ---------------------------------------------------------------------------
     1   6 C    3.986 --     2 C    1.014    23 H    0.985    22 H    0.984
                            21 H    0.979
     2   6 C    3.900 --     1 C    1.014    24 H    0.970    25 H    0.967
                             3 O    0.909
     3   8 O    2.343 --     4 C    1.198     2 C    0.909     5 O    0.181
     4   6 C    3.920 --     5 O    1.702     3 O    1.198     6 C    0.958
     5   8 O    1.997 --     4 C    1.702     3 O    0.181
     6   6 C    3.981 --     7 C    0.969    27 H    0.964     4 C    0.958
                            26 H    0.949
     7   6 C    3.967 --     6 C    0.969    14 S    0.967     9 C    0.952
                             8 H    0.932
     8   1 H    0.983 --     7 C    0.932
     9   6 C    3.922 --    10 O    1.644    11 O    1.244     7 C    0.952
    10   8 O    2.094 --     9 C    1.644    11 O    0.171    15 P    0.141
    11   8 O    2.375 --     9 C    1.244    12 C    0.890    10 O    0.171
    12   6 C    3.886 --    13 C    1.020    29 H    0.967    28 H    0.966
                            11 O    0.890
    13   6 C    3.979 --    12 C    1.020    32 H    0.982    30 H    0.982
                            31 H    0.977
    14  16 S    2.264 --    15 P    0.975     7 C    0.967    16 S    0.137
    15  15 P    5.296 --    16 S    1.474    17 O    1.318    19 O    1.269
                            14 S    0.975    10 O    0.141
    16  16 S    1.802 --    15 P    1.474    14 S    0.137
    17   8 O    2.409 --    15 P    1.318    18 C    0.906
    18   6 C    3.879 --    35 H    0.977    33 H    0.974    34 H    0.973
                            17 O    0.906
    19   8 O    2.359 --    15 P    1.269    20 C    0.919
    20   6 C    3.893 --    36 H    0.978    38 H    0.974    37 H    0.973
                            19 O    0.919
    21   1 H    0.994 --     1 C    0.979
    22   1 H    0.995 --     1 C    0.984
    23   1 H    0.997 --     1 C    0.985
    24   1 H    0.996 --     2 C    0.970
    25   1 H    0.991 --     2 C    0.967
    26   1 H    0.985 --     6 C    0.949
    27   1 H    0.993 --     6 C    0.964
    28   1 H    0.994 --    12 C    0.966
    29   1 H    0.995 --    12 C    0.967
    30   1 H    0.993 --    13 C    0.982
    31   1 H    0.992 --    13 C    0.977
    32   1 H    0.994 --    13 C    0.982
    33   1 H    0.994 --    18 C    0.974
    34   1 H    0.989 --    18 C    0.973
    35   1 H    0.991 --    18 C    0.977
    36   1 H    0.995 --    20 C    0.978
    37   1 H    0.995 --    20 C    0.973
    38   1 H    0.990 --    20 C    0.974
 ---------------------------------------------------------------------------

Topologies differ in total number of bonds
Writing topology from bond orders to xtbtopo.mol

molecular dipole:
                 x           y           z       tot (Debye)
 q only:        2.774       1.471      -1.347
   full:        2.305       1.524      -1.437       7.916
molecular quadrupole (traceless):
                xx          xy          yy          xz          yz          zz
 q only:        4.750      -2.672      18.721      -3.631      10.739     -23.470
  q+dip:        7.544      -1.032      14.842      -3.558       6.830     -22.386
   full:        7.022      -2.018      16.011      -3.134       7.331     -23.032


           -------------------------------------------------
          | TOTAL ENERGY              -64.671566231627 Eh   |
          | GRADIENT NORM               0.000157923895 Eh/α |
          | HOMO-LUMO GAP               3.038982910217 eV   |
           -------------------------------------------------

------------------------------------------------------------------------
 * finished run on 2025/04/09 at 07:31:35.934     
------------------------------------------------------------------------
 total:
 * wall-time:     0 d,  0 h,  0 min,  0.134 sec
 *  cpu-time:     0 d,  0 h,  0 min,  0.107 sec
 * ratio c/w:     0.801 speedup
 SCF:
 * wall-time:     0 d,  0 h,  0 min,  0.102 sec
 *  cpu-time:     0 d,  0 h,  0 min,  0.083 sec
 * ratio c/w:     0.811 speedup

