
                                 *****************
                                 * O   R   C   A *
                                 *****************

                                            #,                                       
                                            ###                                      
                                            ####                                     
                                            #####                                    
                                            ######                                   
                                           ########,                                 
                                     ,,################,,,,,                         
                               ,,#################################,,                 
                          ,,##########################################,,             
                       ,#########################################, ''#####,          
                    ,#############################################,,   '####,        
                  ,##################################################,,,,####,       
                ,###########''''           ''''###############################       
              ,#####''   ,,,,##########,,,,          '''####'''          '####       
            ,##' ,,,,###########################,,,                        '##       
           ' ,,###''''                  '''############,,,                           
         ,,##''                                '''############,,,,        ,,,,,,###''
      ,#''                                            '''#######################'''  
     '                                                          ''''####''''         
             ,#######,   #######,   ,#######,      ##                                
            ,#'     '#,  ##    ##  ,#'     '#,    #''#        ,####,   ,####,        
            ##       ##  ##   ,#'  ##            #'  '#       #'       #'  '#        
            ##       ##  #######   ##           ,######,      #####,   #    #        
            '#,     ,#'  ##    ##  '#,     ,#' ,#      #,     #,   #   #,  ,#        
             '#######'   ##     ##  '#######'  #'      '#     '####' # '####'        



                #########################################################
                #                        -***-                          #
                #          Department of theory and spectroscopy        #
                #                                                       #
                #                      Frank Neese                      #
                #                                                       #
                #     Directorship, Architecture, Infrastructure        #
                #                    SHARK, DRIVERS                     #
                #        Core code/Algorithms in most modules           #
                #                                                       #
                #        Max Planck Institute fuer Kohlenforschung      #
                #                Kaiser Wilhelm Platz 1                 #
                #                 D-45470 Muelheim/Ruhr                 #
                #                      Germany                          #
                #                                                       #
                #                  All rights reserved                  #
                #                        -***-                          #
                #########################################################


                         Program Version 6.0.0  -   RELEASE  -


 With contributions from (in alphabetic order):
   Daniel Aravena         : Magnetic Suceptibility
   Michael Atanasov       : Ab Initio Ligand Field Theory (pilot matlab implementation)
   Alexander A. Auer      : GIAO ZORA, VPT2 properties, NMR spectrum
   Ute Becker             : All parallelization in ORCA, NUMFREQ, NUMCALC
   Giovanni Bistoni       : ED, misc. LED, open-shell LED, HFLD
   Martin Brehm           : Molecular dynamics
   Dmytro Bykov           : pre 5.0 version of the SCF Hessian
   Marcos Casanova-Páez   : Triplet and SCS-CIS(D). UHF-(DLPNO)-IP/EA/STEOM-CCSD. UHF-CVS-IP/STEOM-CCSD
   Vijay G. Chilkuri      : MRCI spin determinant printing, contributions to CSF-ICE
   Pauline Colinet        : FMM embedding
   Dipayan Datta          : RHF DLPNO-CCSD density
   Achintya Kumar Dutta   : EOM-CC, STEOM-CC
   Nicolas Foglia         : Exact transition moments, OPA infrastructure, MCD improvements
   Dmitry Ganyushin       : Spin-Orbit,Spin-Spin,Magnetic field MRCI
   Miquel Garcia          : C-PCM and meta-GGA Hessian, CCSD/C-PCM, Gaussian charge scheme
   Tiago L. C. Gouveia    : GS-ROHF, GS-ROCIS
   Yang Guo               : DLPNO-NEVPT2, F12-NEVPT2, CIM, IAO-localization
   Andreas Hansen         : Spin unrestricted coupled pair/coupled cluster methods
   Ingolf Harden          : AUTO-CI MPn and infrastructure 
   Benjamin Helmich-Paris : MC-RPA, TRAH-(SCF,CASSCF), AVAS, COSX integrals, SCF dyn. polar.
   Lee Huntington         : MR-EOM, pCC
   Robert Izsak           : Overlap fitted RIJCOSX, COSX-SCS-MP3, EOM
   Riya Kayal             : Wick's Theorem for AUTO-CI, AUTO-CI UHF-CCSDT
   Emily Kempfer          : AUTO-CI, RHF CISDT and CCSDT
   Christian Kollmar      : KDIIS, OOCD, Brueckner-CCSD(T), CCSD density, CASPT2, CASPT2-K, improved NEVPT2
   Axel Koslowski         : Symmetry handling
   Simone Kossmann        : Meta GGA functionals, TD-DFT gradient, OOMP2, (MP2 Hessian; deprecated post 5.0)
   Lucas Lang             : DCDCAS
   Marvin Lechner         : AUTO-CI (C++ implementation), FIC-MRCC
   Spencer Leger          : CASSCF response
   Dagmar Lenk            : GEPOL surface, SMD, ORCA-2-JSON
   Dimitrios Liakos       : Extrapolation schemes; Compound Job, initial MDCI parallelization
   Dimitrios Manganas     : Further ROCIS development; embedding schemes. LFT, Crystal Embedding
   Dimitrios Pantazis     : SARC Basis sets
   Anastasios Papadopoulos: AUTO-CI, single reference methods and gradients
   Taras Petrenko         : pre 6.0 DFT Hessian and TD-DFT gradient, (ASA, deprecated), ECA, 1-Electron XAS/XES, NRVS
   Peter Pinski           : DLPNO-MP2, DLPNO-MP2 Gradient
   Christoph Reimann      : Effective Core Potentials
   Marius Retegan         : Local ZFS, SOC
   Christoph Riplinger    : Optimizer, TS searches, QM/MM, DLPNO-CCSD(T), (RO)-DLPNO pert. Triples
   Michael Roemelt        : Original ROCIS implementation
   Masaaki Saitow         : Open-shell DLPNO-CCSD energy and density
   Barbara Sandhoefer     : DKH picture change effects
   Kantharuban Sivalingam : CASSCF convergence/infrastructure, NEVPT2 and variants, FIC-MRCI
   Bernardo de Souza      : ESD, SOC TD-DFT
   Georgi Stoychev        : AutoAux, RI-MP2 NMR, DLPNO-MP2 response, X2C
   Van Anh Tran           : RI-MP2 g-tensors
   Willem Van den Heuvel  : Paramagnetic NMR
   Zikuan Wang            : NOTCH, Electric field optimization 
   Frank Wennmohs         : Technical directorship and infrastructure
   Hang Xu                : AUTO-CI-Response properties 


 We gratefully acknowledge several colleagues who have allowed us to
 interface, adapt or use parts of their codes:
   Stefan Grimme, W. Hujo, H. Kruse, P. Pracht,  : VdW corrections, initial TS optimization,
                  C. Bannwarth, S. Ehlert,         DFT functionals, gCP, sTDA/sTD-DF
                  L. Wittmann, M. Mueller
   Ed Valeev, F. Pavosevic, A. Kumar             : LibInt (2-el integral package), F12 methods
   Garnet Chan, S. Sharma, J. Yang, R. Olivares  : DMRG
   Ulf Ekstrom                                   : XCFun DFT Library
   Mihaly Kallay                                 : mrcc  (arbitrary order and MRCC methods)
   Frank Weinhold                                : gennbo (NPA and NBO analysis)
   Simon Mueller                                 : openCOSMO-RS
   Christopher J. Cramer and Donald G. Truhlar   : smd solvation model
   Lars Goerigk                                  : TD-DFT with DH, B97 family of functionals
   V. Asgeirsson, H. Jonsson                     : NEB implementation
   FAccTs GmbH                                   : IRC, NEB, NEB-TS, DLPNO-Multilevel, CI-OPT
                                                   MM, QMMM, 2- and 3-layer-ONIOM, Crystal-QMMM,
                                                   LR-CPCM, SF, NACMEs, symmetry and pop. for TD-DFT,
                                                   nearIR, NL-DFT gradient (VV10), updates on ESD,
                                                   ML-optimized integration grids, MBIS, APM,
                                                   GOAT, DOCKER, SOLVATOR, interface openCOSMO-RS
   S Lehtola, MJT Oliveira, MAL Marques          : LibXC Library
   Liviu Ungur et al                             : ANISO software


 Your calculation uses the libint2 library for the computation of 2-el integrals
 For citations please refer to: http://libint.valeyev.net

 Your ORCA version has been built with support for libXC version: 6.2.2
 For citations please refer to: https://libxc.gitlab.io

 This ORCA versions uses:
   CBLAS   interface :  Fast vector & matrix operations
   LAPACKE interface :  Fast linear algebra routines
   SCALAPACK package :  Parallel linear algebra routines
   Shared memory     :  Shared parallel matrices
   BLAS/LAPACK       :  OpenBLAS 0.3.27  USE64BITINT DYNAMIC_ARCH NO_AFFINITY SapphireRapids SINGLE_THREADED
        Core in use  :  SapphireRapids
   Copyright (c) 2011-2014, The OpenBLAS Project


Your calculation utilizes the geometrical counterpoise correction gCP
Please cite in your paper:
H.Kruse, S. Grimme J.Chem.Phys., 136, (2012), 154101 
   

Your calculation utilizes the atom-pairwise dispersion correction
based on EEQ partial charges (D4)


================================================================================

----- Orbital basis set information -----
Your calculation utilizes the basis: def2-SV(P)
   F. Weigend and R. Ahlrichs, Phys. Chem. Chem. Phys. 7, 3297 (2005).

----- AuxJ basis set information -----
Your calculation utilizes the auxiliary basis: def2/J
   F. Weigend, Phys. Chem. Chem. Phys. 8, 1057 (2006).

================================================================================
                                        WARNINGS
                       Please study these warnings very carefully!
================================================================================


================================================================================
                                       INPUT FILE
================================================================================
NAME = sp.inp
|  1> ! pbe def2-sv(p) def2/J RI DEFGRID1 loosescf d4 GCP(DFT/SV(P)) printgap
|  2> %output
|  3>     printlevel normal
|  4> end
|  5> * xyz 0 1
|  6> C 3.3978159687 0.0993115819 -2.6909882917
|  7> C 1.9961768192 0.4806820791 -2.2672565407
|  8> O 1.4748510594 -0.4330968627 -1.2875874784
|  9> P 2.0231528828 -0.4874984042 0.1993911863
| 10> S 2.5878928277 1.2372140156 0.9531579808
| 11> O 3.1422978844 -1.606629336 0.0403812651
| 12> C 3.7068879496 -2.4026770391 1.0986628012
| 13> C 4.2069711519 -1.5771314658 2.2657290452
| 14> S 0.4973285801 -1.5258682084 1.2068967395
| 15> C -0.4083916464 -0.1470722576 1.9922308635
| 16> S -2.1450640094 -0.0920513915 1.5059404569
| 17> P -1.8808865773 0.6600836409 -0.4645257711
| 18> S -0.5802075271 2.1124371148 -0.6571351208
| 19> O -3.3490974448 1.030805066 -0.9427182482
| 20> C -3.9436109924 2.3171325456 -0.7006015172
| 21> C -4.2167875285 2.5587542387 0.7699761188
| 22> O -1.5101172347 -0.5716194339 -1.375651748
| 23> C -2.055943736 -1.9128824146 -1.2967712855
| 24> C -3.5654147988 -1.9447117034 -1.3877881118
| 25> H 3.7279595156 0.76456139 -3.4825752067
| 26> H 4.0734872618 0.1923715504 -1.8413588386
| 27> H 3.4158507247 -0.9282503206 -3.0440824549
| 28> H 1.2825353086 0.4180560104 -3.090519434
| 29> H 1.9735558469 1.4930879821 -1.8484668201
| 30> H 2.9465976438 -3.1166534502 1.4273545693
| 31> H 4.524694694 -2.933641146 0.6079076211
| 32> H 4.6958702396 -2.2290105549 2.982502108
| 33> H 4.9124152987 -0.822990754 1.9248169087
| 34> H 3.375835825 -1.0708064144 2.7544162618
| 35> H 0.0887956157 0.7911352373 1.7285613951
| 36> H -0.3991441578 -0.3093342445 3.0667977991
| 37> H -3.2760659827 3.0877273509 -1.0991172877
| 38> H -4.8660962892 2.288638385 -1.2822017802
| 39> H -3.2783127756 2.6648514746 1.3117271445
| 40> H -4.7895969059 3.4738801571 0.8808617422
| 41> H -4.7758433932 1.7285950283 1.1938826072
| 42> H -1.5870872006 -2.4163701106 -2.1436363122
| 43> H -1.7103812134 -2.369030536 -0.3643919509
| 44> H -3.9015370343 -1.4190458229 -2.2776412966
| 45> H -3.891402647 -2.9792230918 -1.4356196079
| 46> H -4.0069004205 -1.4740189675 -0.5120195344
| 47> *
| 48> 
| 49>                          ****END OF INPUT****
================================================================================

                       ****************************
                       * Single Point Calculation *
                       ****************************

---------------------------------
CARTESIAN COORDINATES (ANGSTROEM)
---------------------------------
  C      3.397816    0.099312   -2.690988
  C      1.996177    0.480682   -2.267257
  O      1.474851   -0.433097   -1.287587
  P      2.023153   -0.487498    0.199391
  S      2.587893    1.237214    0.953158
  O      3.142298   -1.606629    0.040381
  C      3.706888   -2.402677    1.098663
  C      4.206971   -1.577131    2.265729
  S      0.497329   -1.525868    1.206897
  C     -0.408392   -0.147072    1.992231
  S     -2.145064   -0.092051    1.505940
  P     -1.880887    0.660084   -0.464526
  S     -0.580208    2.112437   -0.657135
  O     -3.349097    1.030805   -0.942718
  C     -3.943611    2.317133   -0.700602
  C     -4.216788    2.558754    0.769976
  O     -1.510117   -0.571619   -1.375652
  C     -2.055944   -1.912882   -1.296771
  C     -3.565415   -1.944712   -1.387788
  H      3.727960    0.764561   -3.482575
  H      4.073487    0.192372   -1.841359
  H      3.415851   -0.928250   -3.044082
  H      1.282535    0.418056   -3.090519
  H      1.973556    1.493088   -1.848467
  H      2.946598   -3.116653    1.427355
  H      4.524695   -2.933641    0.607908
  H      4.695870   -2.229011    2.982502
  H      4.912415   -0.822991    1.924817
  H      3.375836   -1.070806    2.754416
  H      0.088796    0.791135    1.728561
  H     -0.399144   -0.309334    3.066798
  H     -3.276066    3.087727   -1.099117
  H     -4.866096    2.288638   -1.282202
  H     -3.278313    2.664851    1.311727
  H     -4.789597    3.473880    0.880862
  H     -4.775843    1.728595    1.193883
  H     -1.587087   -2.416370   -2.143636
  H     -1.710381   -2.369031   -0.364392
  H     -3.901537   -1.419046   -2.277641
  H     -3.891403   -2.979223   -1.435620
  H     -4.006900   -1.474019   -0.512020

----------------------------
CARTESIAN COORDINATES (A.U.)
----------------------------
  NO LB      ZA    FRAG     MASS         X           Y           Z
   0 C     6.0000    0    12.011    6.420942    0.187672   -5.085231
   1 C     6.0000    0    12.011    3.772228    0.908357   -4.284494
   2 O     8.0000    0    15.999    2.787065   -0.818434   -2.433188
   3 P    15.0000    0    30.974    3.823205   -0.921238    0.376795
   4 S    16.0000    0    32.060    4.890409    2.337996    1.801208
   5 O     8.0000    0    15.999    5.938082   -3.036089    0.076310
   6 C     6.0000    0    12.011    7.005003   -4.540402    2.076172
   7 C     6.0000    0    12.011    7.950023   -2.980347    4.281607
   8 S    16.0000    0    32.060    0.939815   -2.883473    2.280704
   9 C     6.0000    0    12.011   -0.771748   -0.277926    3.764771
  10 S    16.0000    0    32.060   -4.053584   -0.173952    2.845815
  11 P    15.0000    0    30.974   -3.554361    1.247377   -0.877826
  12 S    16.0000    0    32.060   -1.096433    3.991928   -1.241805
  13 O     8.0000    0    15.999   -6.328877    1.947939   -1.781479
  14 C     6.0000    0    12.011   -7.452345    4.378746   -1.323945
  15 C     6.0000    0    12.011   -7.968574    4.835345    1.455044
  16 O     8.0000    0    15.999   -2.853708   -1.080204   -2.599605
  17 C     6.0000    0    12.011   -3.885171   -3.614824   -2.450543
  18 C     6.0000    0    12.011   -6.737658   -3.674973   -2.622539
  19 H     1.0000    0     1.008    7.044823    1.444812   -6.581113
  20 H     1.0000    0     1.008    7.697775    0.363530   -3.479664
  21 H     1.0000    0     1.008    6.455022   -1.754139   -5.752482
  22 H     1.0000    0     1.008    2.423640    0.790011   -5.840235
  23 H     1.0000    0     1.008    3.729480    2.821527   -3.493096
  24 H     1.0000    0     1.008    5.568263   -5.889621    2.697309
  25 H     1.0000    0     1.008    8.550434   -5.543778    1.148779
  26 H     1.0000    0     1.008    8.873909   -4.212219    5.636112
  27 H     1.0000    0     1.008    9.283120   -1.555227    3.637377
  28 H     1.0000    0     1.008    6.379405   -2.023531    5.205092
  29 H     1.0000    0     1.008    0.167799    1.495029    3.266508
  30 H     1.0000    0     1.008   -0.754273   -0.584557    5.795408
  31 H     1.0000    0     1.008   -6.190868    5.834959   -2.077031
  32 H     1.0000    0     1.008   -9.195589    4.324900   -2.423010
  33 H     1.0000    0     1.008   -6.195113    5.035839    2.478805
  34 H     1.0000    0     1.008   -9.051026    6.564682    1.664587
  35 H     1.0000    0     1.008   -9.025036    3.266571    2.256111
  36 H     1.0000    0     1.008   -2.999160   -4.566278   -4.050886
  37 H     1.0000    0     1.008   -3.232152   -4.476819   -0.688601
  38 H     1.0000    0     1.008   -7.372836   -2.681608   -4.304118
  39 H     1.0000    0     1.008   -7.353685   -5.629916   -2.712928
  40 H     1.0000    0     1.008   -7.571944   -2.785492   -0.967577

--------------------------------
INTERNAL COORDINATES (ANGSTROEM)
--------------------------------
 C      0   0   0     0.000000000000     0.00000000     0.00000000
 C      1   0   0     1.513137256944     0.00000000     0.00000000
 O      2   1   0     1.437540946873   111.50359178     0.00000000
 P      3   2   1     1.585780554344   122.37411260    70.47563789
 S      4   3   2     1.965128117164   115.39963021    34.28427971
 O      4   3   2     1.590667700105   100.00111871   267.86697186
 C      6   4   3     1.439588030300   126.26299722   201.02822380
 C      7   6   4     1.514480874987   113.23916542   308.53905082
 S      4   3   2     2.102717073863   102.43505165   162.89820212
 C      9   4   3     1.827062420650   101.12839675   260.13264570
 S     10   9   4     1.804310547457   112.60071605   122.00344573
 P     11  10   9     2.125613788599    98.10631360   285.69412984
 S     12  11  10     1.959131176407   115.84660153   316.97874997
 O     12  11  10     1.588000494845   104.29102004   190.47721802
 C     14  12  11     1.437603997798   122.71905430    88.28942187
 C     15  14  12     1.515125422516   112.37822618   292.21462415
 O     12  11  10     1.576297216792   106.77240704    81.80392999
 C     17  12  11     1.450218976666   127.06458923    38.44414627
 C     18  17  12     1.512547538336   113.06649474    55.13727671
 H      1   2   3     1.085431671150   109.35977169   175.75156201
 H      1   2   3     1.089523777451   109.54529521   295.31286567
 H      1   2   3     1.086684960777   110.16295682    55.07855789
 H      2   1   3     1.091314813249   112.33533535   243.81330794
 H      2   1   3     1.095838606227   111.03825177   121.28343722
 H      7   6   4     1.093545583466   108.01851406    71.53824398
 H      7   6   4     1.091591224221   103.43234324   187.87047754
 H      8   7   6     1.085233748238   109.28647566   184.95864825
 H      8   7   6     1.087474478901   110.52651880   305.34939772
 H      8   7   6     1.089020745883   110.31802452    65.04623514
 H     10   9   4     1.094052131138   108.55909334   359.62896907
 H     10   9   4     1.086788188896   107.94536290   238.92297513
 H     15  14  12     1.094644925658   108.44448722    54.72882367
 H     15  14  12     1.090894085566   103.68251452   171.47572783
 H     16  15  14     1.088800100635   110.06407054    68.66008117
 H     16  15  14     1.085293347829   109.19574150   188.00428830
 H     16  15  14     1.086924323665   110.45517446   308.39227945
 H     18  17  12     1.091103425097   102.87535929   175.97177911
 H     18  17  12     1.093990762882   108.24624857   291.78360455
 H     19  18  17     1.086803324258   110.34904592    53.61531522
 H     19  18  17     1.085711629266   108.80474746   173.63449682
 H     19  18  17     1.087856519472   110.33187015   293.19334815

---------------------------
INTERNAL COORDINATES (A.U.)
---------------------------
 C      0   0   0     0.000000000000     0.00000000     0.00000000
 C      1   0   0     2.859415018656     0.00000000     0.00000000
 O      2   1   0     2.716558695887   111.50359178     0.00000000
 P      3   2   1     2.996690956207   122.37411260    70.47563789
 S      4   3   2     3.713553959508   115.39963021    34.28427971
 O      4   3   2     3.005926323273   100.00111871   267.86697186
 C      6   4   3     2.720427122938   126.26299722   201.02822380
 C      7   6   4     2.861954088787   113.23916542   308.53905082
 S      4   3   2     3.973559406721   102.43505165   162.89820212
 C      9   4   3     3.452647604608   101.12839675   260.13264570
 S     10   9   4     3.409652795240   112.60071605   122.00344573
 P     11  10   9     4.016827926939    98.10631360   285.69412984
 S     12  11  10     3.702221383836   115.84660153   316.97874997
 O     12  11  10     3.000886035789   104.29102004   190.47721802
 C     14  12  11     2.716677844868   122.71905430    88.28942187
 C     15  14  12     2.863172107098   112.37822618   292.21462415
 O     12  11  10     2.978770045399   106.77240704    81.80392999
 C     17  12  11     2.740516700114   127.06458923    38.44414627
 C     18  17  12     2.858300611991   113.06649474    55.13727671
 H      1   2   3     2.051168595558   109.35977169   175.75156201
 H      1   2   3     2.058901555778   109.54529521   295.31286567
 H      1   2   3     2.053536969720   110.16295682    55.07855789
 H      2   1   3     2.062286122932   112.33533535   243.81330794
 H      2   1   3     2.070834852747   111.03825177   121.28343722
 H      7   6   4     2.066501667709   108.01851406    71.53824398
 H      7   6   4     2.062808463970   103.43234324   187.87047754
 H      8   7   6     2.050794575459   109.28647566   184.95864825
 H      8   7   6     2.055028942752   110.52651880   305.34939772
 H      8   7   6     2.057950963878   110.31802452    65.04623514
 H     10   9   4     2.067458904084   108.55909334   359.62896907
 H     10   9   4     2.053732042593   107.94536290   238.92297513
 H     15  14  12     2.068579123379   108.44448722    54.72882367
 H     15  14  12     2.061491062834   103.68251452   171.47572783
 H     16  15  14     2.057534004787   110.06407054    68.66008117
 H     16  15  14     2.050907202363   109.19574150   188.00428830
 H     16  15  14     2.053989300025   110.45517446   308.39227945
 H     18  17  12     2.061886657217   102.87535929   175.97177911
 H     18  17  12     2.067342934887   108.24624857   291.78360455
 H     19  18  17     2.053760644283   110.34904592    53.61531522
 H     19  18  17     2.051697639725   108.80474746   173.63449682
 H     19  18  17     2.055750894803   110.33187015   293.19334815

---------------------
BASIS SET INFORMATION
---------------------
There are 5 groups of distinct atoms

 Group   1 Type C   : 7s4p1d contracted to 3s2p1d pattern {511/31/1}
 Group   2 Type O   : 7s4p1d contracted to 3s2p1d pattern {511/31/1}
 Group   3 Type P   : 10s7p1d contracted to 4s3p1d pattern {5311/511/1}
 Group   4 Type S   : 10s7p1d contracted to 4s3p1d pattern {5311/511/1}
 Group   5 Type H   : 4s contracted to 2s pattern {31}

Atom   0C    basis set group =>   1
Atom   1C    basis set group =>   1
Atom   2O    basis set group =>   2
Atom   3P    basis set group =>   3
Atom   4S    basis set group =>   4
Atom   5O    basis set group =>   2
Atom   6C    basis set group =>   1
Atom   7C    basis set group =>   1
Atom   8S    basis set group =>   4
Atom   9C    basis set group =>   1
Atom  10S    basis set group =>   4
Atom  11P    basis set group =>   3
Atom  12S    basis set group =>   4
Atom  13O    basis set group =>   2
Atom  14C    basis set group =>   1
Atom  15C    basis set group =>   1
Atom  16O    basis set group =>   2
Atom  17C    basis set group =>   1
Atom  18C    basis set group =>   1
Atom  19H    basis set group =>   5
Atom  20H    basis set group =>   5
Atom  21H    basis set group =>   5
Atom  22H    basis set group =>   5
Atom  23H    basis set group =>   5
Atom  24H    basis set group =>   5
Atom  25H    basis set group =>   5
Atom  26H    basis set group =>   5
Atom  27H    basis set group =>   5
Atom  28H    basis set group =>   5
Atom  29H    basis set group =>   5
Atom  30H    basis set group =>   5
Atom  31H    basis set group =>   5
Atom  32H    basis set group =>   5
Atom  33H    basis set group =>   5
Atom  34H    basis set group =>   5
Atom  35H    basis set group =>   5
Atom  36H    basis set group =>   5
Atom  37H    basis set group =>   5
Atom  38H    basis set group =>   5
Atom  39H    basis set group =>   5
Atom  40H    basis set group =>   5
---------------------------------
AUXILIARY/J BASIS SET INFORMATION
---------------------------------
There are 5 groups of distinct atoms

 Group   1 Type C   : 12s5p4d2f1g contracted to 6s4p3d1f1g pattern {711111/2111/211/2/1}
 Group   2 Type O   : 12s5p4d2f1g contracted to 6s4p3d1f1g pattern {711111/2111/211/2/1}
 Group   3 Type P   : 14s5p5d2f1g contracted to 8s4p3d1f1g pattern {71111111/2111/311/2/1}
 Group   4 Type S   : 14s5p5d2f1g contracted to 8s4p3d1f1g pattern {71111111/2111/311/2/1}
 Group   5 Type H   : 5s2p1d contracted to 3s1p1d pattern {311/2/1}

Atom   0C    basis set group =>   1
Atom   1C    basis set group =>   1
Atom   2O    basis set group =>   2
Atom   3P    basis set group =>   3
Atom   4S    basis set group =>   4
Atom   5O    basis set group =>   2
Atom   6C    basis set group =>   1
Atom   7C    basis set group =>   1
Atom   8S    basis set group =>   4
Atom   9C    basis set group =>   1
Atom  10S    basis set group =>   4
Atom  11P    basis set group =>   3
Atom  12S    basis set group =>   4
Atom  13O    basis set group =>   2
Atom  14C    basis set group =>   1
Atom  15C    basis set group =>   1
Atom  16O    basis set group =>   2
Atom  17C    basis set group =>   1
Atom  18C    basis set group =>   1
Atom  19H    basis set group =>   5
Atom  20H    basis set group =>   5
Atom  21H    basis set group =>   5
Atom  22H    basis set group =>   5
Atom  23H    basis set group =>   5
Atom  24H    basis set group =>   5
Atom  25H    basis set group =>   5
Atom  26H    basis set group =>   5
Atom  27H    basis set group =>   5
Atom  28H    basis set group =>   5
Atom  29H    basis set group =>   5
Atom  30H    basis set group =>   5
Atom  31H    basis set group =>   5
Atom  32H    basis set group =>   5
Atom  33H    basis set group =>   5
Atom  34H    basis set group =>   5
Atom  35H    basis set group =>   5
Atom  36H    basis set group =>   5
Atom  37H    basis set group =>   5
Atom  38H    basis set group =>   5
Atom  39H    basis set group =>   5
Atom  40H    basis set group =>   5
------------------------------------------------------------------------------
                             ORCA STARTUP CALCULATIONS
                           -- RI-GTO INTEGRALS CHOSEN --
------------------------------------------------------------------------------
------------------------------------------------------------------------------
                   ___                                                        
                  /   \      - P O W E R E D   B Y -                         
                 /     \                                                     
                 |  |  |   _    _      __       _____    __    __             
                 |  |  |  | |  | |    /  \     |  _  \  |  |  /  |          
                  \  \/   | |  | |   /    \    | | | |  |  | /  /          
                 / \  \   | |__| |  /  /\  \   | |_| |  |  |/  /          
                |  |  |   |  __  | /  /__\  \  |    /   |      \           
                |  |  |   | |  | | |   __   |  |    \   |  |\   \          
                \     /   | |  | | |  |  |  |  | |\  \  |  | \   \       
                 \___/    |_|  |_| |__|  |__|  |_| \__\ |__|  \__/        
                                                                              
                      - O R C A' S   B I G   F R I E N D -                    
                                      &                                       
                       - I N T E G R A L  F E E D E R -                       
                                                                              
 v1 FN, 2020, v2 2021, v3 2022-2024                                           
------------------------------------------------------------------------------


----------------------
SHARK INTEGRAL PACKAGE
----------------------

Number of atoms                             ...     41
Number of basis functions                   ...    334
Number of shells                            ...    170
Maximum angular momentum                    ...      2
Integral batch strategy                     ... SHARK/LIBINT Hybrid
RI-J (if used) integral strategy            ... SPLIT-RIJ (Revised 2003 algorithm where possible)
Printlevel                                  ...      1
Contraction scheme used                     ... SEGMENTED contraction
Prescreening option                         ... SCHWARTZ
   Thresh                                   ... 1.000e-09
   Tcut                                     ... 1.000e-10
   Tpresel                                  ... 1.000e-10 
Coulomb Range Separation                    ... NOT USED
Exchange Range Separation                   ... NOT USED
Multipole approximations                    ... NOT USED
Finite Nucleus Model                        ... NOT USED
CABS basis                                  ... NOT available
Auxiliary Coulomb fitting basis             ... AVAILABLE
   # of basis functions in Aux-J            ...   1185
   # of shells in Aux-J                     ...    407
   Maximum angular momentum in Aux-J        ...      4
Auxiliary J/K fitting basis                 ... NOT available
Auxiliary Correlation fitting basis         ... NOT available
Auxiliary 'external' fitting basis          ... NOT available

Checking pre-screening integrals            ... done (  0.0 sec) Dimension = 170
Check shell pair data                       ... done (  0.0 sec)
Shell pair information
Shell pair cut-off parameter TPreSel        ...   1.0e-10
Total number of shell pairs                 ...     14535
Shell pairs after pre-screening             ...     10401
Total number of primitive shell pairs       ...     62501
Primitive shell pairs kept                  ...     25803
          la=0 lb=0:   4005 shell pairs
          la=1 lb=0:   3536 shell pairs
          la=1 lb=1:    828 shell pairs
          la=2 lb=0:   1309 shell pairs
          la=2 lb=1:    611 shell pairs
          la=2 lb=2:    112 shell pairs

Calculating one electron integrals          ... done (  0.1 sec)
Calculating RI/J V-Matrix + Cholesky decomp.... done (  0.1 sec)
Calculating Nuclear repulsion               ... done (  0.0 sec) ENN=   2819.557792102900 Eh

Diagonalization of the overlap matrix:
Smallest eigenvalue                        ... 3.313e-03
Time for diagonalization                   ...    0.010 sec
Threshold for overlap eigenvalues          ... 1.000e-07
Number of eigenvalues below threshold      ... 0
Time for construction of square roots      ...    0.027 sec
Total time needed                          ...    0.053 sec

-------------------
DFT GRID GENERATION
-------------------

General Integration Accuracy     IntAcc      ... 4.159
Radial Grid Type                 RadialGrid  ... OptM3 with GC (2021)
Angular Grid (max. ang.)         AngularGrid ... 3 (Lebedev-194)
Angular grid pruning method      GridPruning ... 4 (adaptive)
Weight generation scheme         WeightScheme... mBecke (2022)
Basis function cutoff            BFCut       ... 1.0000e-10
Integration weight cutoff        WCut        ... 1.0000e-14
Partially contracted basis set               ... off
Rotationally invariant grid construction     ... off
Angular grids for H and He will be reduced by one unit

Total number of grid points                  ...    97395
Total number of batches                      ...     1542
Average number of points per batch           ...       63
Average number of grid points per atom       ...     2375
Initializing property integral containers    ... done (  0.0 sec)

SHARK setup successfully completed in   1.6 seconds

Maximum memory used throughout the entire STARTUP-calculation: 51.8 MB
-------------------------------------------------------------------------------
                                 ORCA GUESS
                   Start orbitals & Density for SCF / CASSCF
-------------------------------------------------------------------------------

------------
SCF SETTINGS
------------
Hamiltonian:
 Density Functional     Method          .... DFT(GTOs)
 Exchange Functional    Exchange        .... PBE
   PBE kappa parameter   XKappa         ....  0.804000
   PBE mue parameter    XMuePBE         ....  0.219520
 Correlation Functional Correlation     .... PBE
   PBE beta parameter  CBetaPBE         ....  0.066725
 LDA part of GGA corr.  LDAOpt          .... PW91-LDA
 Gradients option       PostSCFGGA      .... off
   NL short-range parameter             ....  6.400000
 RI-approximation to the Coulomb term is turned on
   Number of AuxJ basis functions       .... 1185


General Settings:
 Integral files         IntName         .... sp
 Hartree-Fock type      HFTyp           .... RHF
 Total Charge           Charge          ....    0
 Multiplicity           Mult            ....    1
 Number of Electrons    NEL             ....  202
 Basis Dimension        Dim             ....  334
 Nuclear Repulsion      ENuc            ....   2819.5577921029 Eh

Convergence Acceleration:
 AO-DIIS                CNVDIIS         .... on
   Start iteration      DIISMaxIt       ....    12
   Startup error        DIISStart       ....  0.200000
   # of expansion vecs  DIISMaxEq       ....     5
   Bias factor          DIISBfac        ....   1.050
   Max. coefficient     DIISMaxC        ....  10.000
 MO-DIIS                CNVKDIIS        .... off
 Trust-Rad. Augm. Hess. CNVTRAH         .... auto
   Auto Start mean grad. ratio tolernc. ....  1.125000
   Auto Start start iteration           ....    50
   Auto Start num. interpolation iter.  ....    10
   Max. Number of Micro iterations      ....    24
   Max. Number of Macro iterations      .... Maxiter - #DIIS iter
   Number of Davidson start vectors     ....     2
   Converg. threshold    (grad. norm)   ....   1.000e-04
   Grad. Scal. Fac. for Micro threshold ....   0.100
   Minimum threshold for Micro iter.    ....   1.000e-02
   NR start threshold (gradient norm)   ....   1.000e-04
   Initial trust radius                 ....   0.400
   Minimum AH scaling param. (alpha)    ....   1.000
   Maximum AH scaling param. (alpha)    .... 1000.000
   Quad. conv. algorithm                .... NR
   White noise on init. David. guess    .... on
   Maximum white noise                  ....   0.010
   Pseudo random numbers                .... off
   Inactive MOs                         .... canonical
   Orbital update algorithm             .... Taylor
   Preconditioner                       .... Diag
   Full preconditioner red. dimension   ....   250
 SOSCF                  CNVSOSCF        .... on
   Start iteration      SOSCFMaxIt      ....   150
   Startup grad/error   SOSCFStart      ....  0.003300
   Hessian update       SOSCFHessUp     .... L-BFGS
 Level Shifting         CNVShift        .... on
   Level shift para.    LevelShift      ....    0.2500
   Turn off err/grad.   ShiftErr        ....    0.0010
 Zerner damping         CNVZerner       .... off
 Static damping         CNVDamp         .... on
   Fraction old density DampFac         ....    0.7000
   Max. Damping (<1)    DampMax         ....    0.9800
   Min. Damping (>=0)   DampMin         ....    0.0000
   Turn off err/grad.   DampErr         ....    0.1000

SCF Procedure:
 Maximum # iterations   MaxIter         ....   125
 SCF integral mode      SCFMode         .... Direct
   Integral package                     .... SHARK and LIBINT hybrid scheme
 Reset frequency        DirectResetFreq ....    20
 Integral Threshold     Thresh          ....  1.000e-09 Eh
 Primitive CutOff       TCut            ....  1.000e-10 Eh

Convergence Tolerance:
 Convergence Check Mode ConvCheckMode   .... Total+1el-Energy
 Convergence forced     ConvForced      .... 0
 Energy Change          TolE            ....  1.000e-05 Eh
 1-El. energy change                    ....  1.000e-02 Eh
 Orbital Gradient       TolG            ....  1.000e-04
 Orbital Rotation angle TolX            ....  1.000e-04
 DIIS Error             TolErr          ....  5.000e-04

------------------------------
INITIAL GUESS: MODEL POTENTIAL
------------------------------
Loading Hartree-Fock densities                     ... done
Calculating cut-offs                               ... done
Initializing the effective Hamiltonian             ... done
Setting up the integral package (SHARK)            ... done
Starting the Coulomb interaction                   ... done (   0.6 sec)
Making the grid                                    ... done (   0.6 sec)
Mapping shells                                     ... done
Starting the XC term evaluation                    ... done (   0.4 sec)
  promolecular density results
     # of electrons  =    201.981098737
     EX              =   -229.998131010
     EC              =     -7.290998409
     EX+EC           =   -237.289129419
Transforming the Hamiltonian                       ... done (   0.0 sec)
Diagonalizing the Hamiltonian                      ... done (   0.0 sec)
Back transforming the eigenvectors                 ... done (   0.0 sec)
Now organizing SCF variables                       ... done
                      ------------------
                      INITIAL GUESS DONE (   1.6 sec)
                      ------------------
             **** ENERGY FILE WAS UPDATED (sp.en.tmp) ****
Finished Guess after   1.9 sec
Maximum memory used throughout the entire GUESS-calculation: 39.4 MB

-------------------------------------------------------------------------------------------
                                      ORCA LEAN-SCF
                              memory conserving SCF solver
-------------------------------------------------------------------------------------------

----------------------------------------D-I-I-S--------------------------------------------
Iteration    Energy (Eh)           Delta-E    RMSDP     MaxDP     DIISErr   Damp  Time(sec)
-------------------------------------------------------------------------------------------
               ***  Starting incremental Fock matrix formation  ***
    1    -2929.1822133152918468     0.00e+00  2.73e-03  1.40e-01  1.86e-01  0.700   2.3
    2    -2929.4099813572729545    -2.28e-01  1.78e-03  7.21e-02  7.63e-02  0.700   2.1
                               ***Turning on AO-DIIS***
    3    -2929.4820224071208941    -7.20e-02  6.89e-04  1.88e-02  2.30e-02  0.700   2.0
    4    -2929.5274093950511087    -4.54e-02  1.04e-03  3.72e-02  1.02e-02  0.000   2.0
    5    -2929.6334270562801976    -1.06e-01  3.22e-04  1.28e-02  8.03e-03  0.000   2.0
                              *** Initializing SOSCF ***
---------------------------------------S-O-S-C-F--------------------------------------
Iteration    Energy (Eh)           Delta-E    RMSDP     MaxDP     MaxGrad    Time(sec)
--------------------------------------------------------------------------------------
    6    -2929.6345403546238231    -1.11e-03  1.15e-04  3.53e-03  2.23e-03     2.0
               *** Restarting incremental Fock matrix formation ***
    7    -2929.6346895332735585    -1.49e-04  7.50e-05  1.90e-03  2.22e-04     2.2
    8    -2929.6346941932142727    -4.66e-06  3.17e-05  9.96e-04  2.11e-04     1.8
                 **** Energy Check signals convergence ****

               *****************************************************
               *                     SUCCESS                       *
               *           SCF CONVERGED AFTER   8 CYCLES          *
               *****************************************************

             **** ENERGY FILE WAS UPDATED (sp.en.tmp) ****

----------------
TOTAL SCF ENERGY
----------------

Total Energy       :      -2929.63469419321427 Eh          -79719.41289 eV

Components:
Nuclear Repulsion  :       2819.55779210289984 Eh           76724.06810 eV
Electronic Energy  :      -5749.19248629611320 Eh         -156443.48099 eV
One Electron Energy:      -9658.40012414056400 Eh         -262818.42881 eV
Two Electron Energy:       3909.20763784445035 Eh          106374.94782 eV

Virial components:
Potential Energy   :      -5848.90335316222263 Eh         -159156.75161 eV
Kinetic Energy     :       2919.26865896900881 Eh           79437.33873 eV
Virial Ratio       :          2.00355090141922

DFT components:
N(Alpha)           :      101.000138855094 electrons
N(Beta)            :      101.000138855094 electrons
N(Total)           :      202.000277710189 electrons
E(X)               :     -231.804577566118 Eh       
E(C)               :       -7.298937740235 Eh       
E(XC)              :     -239.103515306353 Eh       

---------------
SCF CONVERGENCE
---------------

  Last Energy change         ...    4.6599e-06  Tolerance :   1.0000e-05
  Last MAX-Density change    ...    9.9594e-04  Tolerance :   1.0000e-03
  Last RMS-Density change    ...    3.1680e-05  Tolerance :   1.0000e-04
  Last DIIS Error            ...    2.2335e-03  Tolerance :   5.0000e-04
  Last Orbital Gradient      ...    2.1077e-04  Tolerance :   1.0000e-04
  Last Orbital Rotation      ...    4.6872e-04  Tolerance :   1.0000e-04


----------------
ORBITAL ENERGIES
----------------

  NO   OCC          E(Eh)            E(eV) 
   0   2.0000     -88.046950     -2395.8793 
   1   2.0000     -88.044675     -2395.8174 
   2   2.0000     -87.979567     -2394.0457 
   3   2.0000     -87.979239     -2394.0368 
   4   2.0000     -76.424480     -2079.6158 
   5   2.0000     -76.421124     -2079.5245 
   6   2.0000     -18.793672      -511.4018 
   7   2.0000     -18.788453      -511.2598 
   8   2.0000     -18.787957      -511.2463 
   9   2.0000     -18.775720      -510.9133 
  10   2.0000      -9.957159      -270.9481 
  11   2.0000      -9.954690      -270.8809 
  12   2.0000      -9.952478      -270.8207 
  13   2.0000      -9.951474      -270.7934 
  14   2.0000      -9.934551      -270.3329 
  15   2.0000      -9.885799      -269.0063 
  16   2.0000      -9.884368      -268.9673 
  17   2.0000      -9.880666      -268.8666 
  18   2.0000      -9.872546      -268.6456 
  19   2.0000      -7.691844      -209.3057 
  20   2.0000      -7.689693      -209.2472 
  21   2.0000      -7.624456      -207.4720 
  22   2.0000      -7.624157      -207.4639 
  23   2.0000      -6.421799      -174.7460 
  24   2.0000      -6.418383      -174.6531 
  25   2.0000      -5.719648      -155.6395 
  26   2.0000      -5.717472      -155.5803 
  27   2.0000      -5.716201      -155.5457 
  28   2.0000      -5.714087      -155.4882 
  29   2.0000      -5.709062      -155.3515 
  30   2.0000      -5.706829      -155.2907 
  31   2.0000      -5.653435      -153.8378 
  32   2.0000      -5.653108      -153.8289 
  33   2.0000      -5.645051      -153.6096 
  34   2.0000      -5.644991      -153.6080 
  35   2.0000      -5.644614      -153.5978 
  36   2.0000      -5.644033      -153.5819 
  37   2.0000      -4.644580      -126.3855 
  38   2.0000      -4.643668      -126.3606 
  39   2.0000      -4.641993      -126.3150 
  40   2.0000      -4.640780      -126.2820 
  41   2.0000      -4.640243      -126.2674 
  42   2.0000      -4.638968      -126.2327 
  43   2.0000      -0.985484       -26.8164 
  44   2.0000      -0.978765       -26.6336 
  45   2.0000      -0.943729       -25.6802 
  46   2.0000      -0.935344       -25.4520 
  47   2.0000      -0.763949       -20.7881 
  48   2.0000      -0.718455       -19.5501 
  49   2.0000      -0.706848       -19.2343 
  50   2.0000      -0.689770       -18.7696 
  51   2.0000      -0.683568       -18.6008 
  52   2.0000      -0.672129       -18.2896 
  53   2.0000      -0.649064       -17.6619 
  54   2.0000      -0.632941       -17.2232 
  55   2.0000      -0.598279       -16.2800 
  56   2.0000      -0.589660       -16.0455 
  57   2.0000      -0.576158       -15.6781 
  58   2.0000      -0.568664       -15.4741 
  59   2.0000      -0.559389       -15.2218 
  60   2.0000      -0.494428       -13.4541 
  61   2.0000      -0.486434       -13.2365 
  62   2.0000      -0.470200       -12.7948 
  63   2.0000      -0.460857       -12.5405 
  64   2.0000      -0.452051       -12.3009 
  65   2.0000      -0.448290       -12.1986 
  66   2.0000      -0.442057       -12.0290 
  67   2.0000      -0.433060       -11.7841 
  68   2.0000      -0.424928       -11.5629 
  69   2.0000      -0.415688       -11.3115 
  70   2.0000      -0.412027       -11.2118 
  71   2.0000      -0.399901       -10.8819 
  72   2.0000      -0.394580       -10.7371 
  73   2.0000      -0.382210       -10.4005 
  74   2.0000      -0.379538       -10.3278 
  75   2.0000      -0.366793        -9.9810 
  76   2.0000      -0.365639        -9.9496 
  77   2.0000      -0.359841        -9.7918 
  78   2.0000      -0.351233        -9.5575 
  79   2.0000      -0.346104        -9.4180 
  80   2.0000      -0.344417        -9.3721 
  81   2.0000      -0.340870        -9.2755 
  82   2.0000      -0.336581        -9.1588 
  83   2.0000      -0.335216        -9.1217 
  84   2.0000      -0.332059        -9.0358 
  85   2.0000      -0.313148        -8.5212 
  86   2.0000      -0.308699        -8.4001 
  87   2.0000      -0.293880        -7.9969 
  88   2.0000      -0.291196        -7.9239 
  89   2.0000      -0.290651        -7.9090 
  90   2.0000      -0.277392        -7.5482 
  91   2.0000      -0.268955        -7.3186 
  92   2.0000      -0.261835        -7.1249 
  93   2.0000      -0.260587        -7.0909 
  94   2.0000      -0.256058        -6.9677 
  95   2.0000      -0.238771        -6.4973 
  96   2.0000      -0.223031        -6.0690 
  97   2.0000      -0.209808        -5.7092 
  98   2.0000      -0.200614        -5.4590 
  99   2.0000      -0.192926        -5.2498 
 100   2.0000      -0.182140        -4.9563 
 101   0.0000      -0.041099        -1.1183 
 102   0.0000      -0.030971        -0.8428 
 103   0.0000      -0.012302        -0.3348 
 104   0.0000       0.011354         0.3090 
 105   0.0000       0.023131         0.6294 
 106   0.0000       0.025331         0.6893 
 107   0.0000       0.032464         0.8834 
 108   0.0000       0.037551         1.0218 
 109   0.0000       0.044039         1.1984 
 110   0.0000       0.044823         1.2197 
 111   0.0000       0.052404         1.4260 
*Only the first 10 virtual orbitals were printed.

                    ********************************
                    * MULLIKEN POPULATION ANALYSIS *
                    ********************************

-----------------------
MULLIKEN ATOMIC CHARGES
-----------------------
   0 C :   -0.294795
   1 C :   -0.007642
   2 O :   -0.352611
   3 P :    0.614492
   4 S :   -0.315410
   5 O :   -0.377480
   6 C :   -0.005906
   7 C :   -0.307897
   8 S :   -0.114246
   9 C :   -0.346419
  10 S :   -0.111613
  11 P :    0.597437
  12 S :   -0.300710
  13 O :   -0.374487
  14 C :   -0.000953
  15 C :   -0.319865
  16 O :   -0.349362
  17 C :   -0.002733
  18 C :   -0.304534
  19 H :    0.107196
  20 H :    0.118655
  21 H :    0.108944
  22 H :    0.100882
  23 H :    0.122574
  24 H :    0.108919
  25 H :    0.107123
  26 H :    0.108546
  27 H :    0.125858
  28 H :    0.120825
  29 H :    0.212771
  30 H :    0.183615
  31 H :    0.113657
  32 H :    0.104122
  33 H :    0.130728
  34 H :    0.114492
  35 H :    0.115363
  36 H :    0.108190
  37 H :    0.114112
  38 H :    0.120482
  39 H :    0.111733
  40 H :    0.115949
Sum of atomic charges:    0.0000000

--------------------------------
MULLIKEN REDUCED ORBITAL CHARGES
--------------------------------
  0 C s       :     3.089790  s :     3.089790
      pz      :     1.072748  p :     3.176938
      px      :     1.036442
      py      :     1.067747
      dz2     :     0.003190  d :     0.028068
      dxz     :     0.007726
      dyz     :     0.005992
      dx2y2   :     0.008121
      dxy     :     0.003038

  1 C s       :     3.087209  s :     3.087209
      pz      :     0.895174  p :     2.859712
      px      :     1.011333
      py      :     0.953205
      dz2     :     0.009041  d :     0.060721
      dxz     :     0.016137
      dyz     :     0.013531
      dx2y2   :     0.013883
      dxy     :     0.008128

  2 O s       :     3.752432  s :     3.752432
      pz      :     1.280557  p :     4.586838
      px      :     1.687822
      py      :     1.618458
      dz2     :     0.003309  d :     0.013342
      dxz     :     0.003547
      dyz     :     0.002508
      dx2y2   :     0.001808
      dxy     :     0.002170

  3 P s       :     5.204033  s :     5.204033
      pz      :     2.863541  p :     8.592724
      px      :     2.862854
      py      :     2.866329
      dz2     :     0.135182  d :     0.588750
      dxz     :     0.106700
      dyz     :     0.107605
      dx2y2   :     0.102675
      dxy     :     0.136588

  4 S s       :     5.921920  s :     5.921920
      pz      :     3.595238  p :    10.350465
      px      :     3.591634
      py      :     3.163593
      dz2     :     0.005334  d :     0.043025
      dxz     :     0.002659
      dyz     :     0.012607
      dx2y2   :     0.012151
      dxy     :     0.010274

  5 O s       :     3.756592  s :     3.756592
      pz      :     1.566389  p :     4.608284
      px      :     1.546046
      py      :     1.495850
      dz2     :     0.003015  d :     0.012604
      dxz     :     0.002208
      dyz     :     0.002613
      dx2y2   :     0.002032
      dxy     :     0.002736

  6 C s       :     3.078012  s :     3.078012
      pz      :     0.884049  p :     2.867126
      px      :     1.017405
      py      :     0.965672
      dz2     :     0.011970  d :     0.060767
      dxz     :     0.013873
      dyz     :     0.015790
      dx2y2   :     0.005157
      dxy     :     0.013979

  7 C s       :     3.104682  s :     3.104682
      pz      :     1.036031  p :     3.175157
      px      :     1.084606
      py      :     1.054520
      dz2     :     0.003381  d :     0.028058
      dxz     :     0.006409
      dyz     :     0.007757
      dx2y2   :     0.001552
      dxy     :     0.008959

  8 S s       :     5.871768  s :     5.871768
      pz      :     3.555542  p :    10.169050
      px      :     3.318184
      py      :     3.295324
      dz2     :     0.008658  d :     0.073429
      dxz     :     0.011767
      dyz     :     0.015630
      dx2y2   :     0.014125
      dxy     :     0.023249

  9 C s       :     3.218066  s :     3.218066
      pz      :     1.099000  p :     3.088909
      px      :     0.923042
      py      :     1.066867
      dz2     :     0.011120  d :     0.039445
      dxz     :     0.004990
      dyz     :     0.004590
      dx2y2   :     0.007943
      dxy     :     0.010801

 10 S s       :     5.881166  s :     5.881166
      pz      :     3.250890  p :    10.154582
      px      :     3.160916
      py      :     3.742775
      dz2     :     0.022428  d :     0.075865
      dxz     :     0.014712
      dyz     :     0.010053
      dx2y2   :     0.019020
      dxy     :     0.009652

 11 P s       :     5.210406  s :     5.210406
      pz      :     2.879217  p :     8.599183
      px      :     2.829115
      py      :     2.890851
      dz2     :     0.114672  d :     0.592974
      dxz     :     0.092269
      dyz     :     0.125520
      dx2y2   :     0.141417
      dxy     :     0.119095

 12 S s       :     5.917410  s :     5.917410
      pz      :     3.653009  p :    10.339778
      px      :     3.391935
      py      :     3.294834
      dz2     :     0.006093  d :     0.043522
      dxz     :     0.004969
      dyz     :     0.005340
      dx2y2   :     0.009574
      dxy     :     0.017545

 13 O s       :     3.755915  s :     3.755915
      pz      :     1.727252  p :     4.605593
      px      :     1.426841
      py      :     1.451499
      dz2     :     0.001725  d :     0.012980
      dxz     :     0.002541
      dyz     :     0.002042
      dx2y2   :     0.004375
      dxy     :     0.002296

 14 C s       :     3.073992  s :     3.073992
      pz      :     1.058145  p :     2.866482
      px      :     1.011638
      py      :     0.796699
      dz2     :     0.009903  d :     0.060479
      dxz     :     0.011436
      dyz     :     0.012038
      dx2y2   :     0.012707
      dxy     :     0.014396

 15 C s       :     3.108244  s :     3.108244
      pz      :     1.021570  p :     3.183576
      px      :     1.091168
      py      :     1.070838
      dz2     :     0.006508  d :     0.028046
      dxz     :     0.007497
      dyz     :     0.003863
      dx2y2   :     0.003632
      dxy     :     0.006545

 16 O s       :     3.751853  s :     3.751853
      pz      :     1.636925  p :     4.584547
      px      :     1.700109
      py      :     1.247513
      dz2     :     0.002210  d :     0.012962
      dxz     :     0.001809
      dyz     :     0.003606
      dx2y2   :     0.002157
      dxy     :     0.003180

 17 C s       :     3.082512  s :     3.082512
      pz      :     1.093467  p :     2.860772
      px      :     1.006964
      py      :     0.760341
      dz2     :     0.009092  d :     0.059450
      dxz     :     0.008514
      dyz     :     0.012277
      dx2y2   :     0.014080
      dxy     :     0.015486

 18 C s       :     3.097205  s :     3.097205
      pz      :     1.093989  p :     3.179130
      px      :     1.019949
      py      :     1.065191
      dz2     :     0.005585  d :     0.028199
      dxz     :     0.006827
      dyz     :     0.004847
      dx2y2   :     0.006975
      dxy     :     0.003964

 19 H s       :     0.892804  s :     0.892804

 20 H s       :     0.881345  s :     0.881345

 21 H s       :     0.891056  s :     0.891056

 22 H s       :     0.899118  s :     0.899118

 23 H s       :     0.877426  s :     0.877426

 24 H s       :     0.891081  s :     0.891081

 25 H s       :     0.892877  s :     0.892877

 26 H s       :     0.891454  s :     0.891454

 27 H s       :     0.874142  s :     0.874142

 28 H s       :     0.879175  s :     0.879175

 29 H s       :     0.787229  s :     0.787229

 30 H s       :     0.816385  s :     0.816385

 31 H s       :     0.886343  s :     0.886343

 32 H s       :     0.895878  s :     0.895878

 33 H s       :     0.869272  s :     0.869272

 34 H s       :     0.885508  s :     0.885508

 35 H s       :     0.884637  s :     0.884637

 36 H s       :     0.891810  s :     0.891810

 37 H s       :     0.885888  s :     0.885888

 38 H s       :     0.879518  s :     0.879518

 39 H s       :     0.888267  s :     0.888267

 40 H s       :     0.884051  s :     0.884051


------------------------
MULLIKEN OVERLAP CHARGES
------------------------
B(  0-C ,  1-C ) :   0.8843 B(  0-C ,  2-O ) :  -0.0928 B(  0-C , 19-H ) :   0.6994 
B(  0-C , 20-H ) :   0.7214 B(  0-C , 21-H ) :   0.7183 B(  0-C , 22-H ) :  -0.0531 
B(  0-C , 23-H ) :  -0.0777 B(  1-C ,  2-O ) :   0.5623 B(  1-C ,  3-P ) :  -0.0885 
B(  1-C , 22-H ) :   0.7261 B(  1-C , 23-H ) :   0.7288 B(  2-O ,  3-P ) :   0.6701 
B(  2-O ,  4-S ) :  -0.0712 B(  2-O ,  5-O ) :  -0.0708 B(  2-O ,  8-S ) :  -0.0684 
B(  2-O , 22-H ) :  -0.0604 B(  2-O , 23-H ) :  -0.0649 B(  3-P ,  4-S ) :   0.9398 
B(  3-P ,  5-O ) :   0.6423 B(  3-P ,  6-C ) :  -0.0963 B(  3-P ,  8-S ) :   0.4773 
B(  3-P ,  9-C ) :  -0.0591 B(  4-S ,  5-O ) :  -0.0665 B(  4-S ,  8-S ) :  -0.0848 
B(  4-S , 23-H ) :   0.0542 B(  4-S , 29-H ) :   0.0867 B(  5-O ,  6-C ) :   0.5741 
B(  5-O ,  7-C ) :  -0.0978 B(  5-O ,  8-S ) :  -0.0690 B(  5-O , 24-H ) :  -0.0612 
B(  5-O , 25-H ) :  -0.0584 B(  6-C ,  7-C ) :   0.9169 B(  6-C , 24-H ) :   0.7469 
B(  6-C , 25-H ) :   0.7328 B(  7-C , 24-H ) :  -0.0767 B(  7-C , 26-H ) :   0.6824 
B(  7-C , 27-H ) :   0.7384 B(  7-C , 28-H ) :   0.7282 B(  8-S ,  9-C ) :   0.4746 
B(  8-S , 10-S ) :  -0.1616 B(  8-S , 29-H ) :  -0.0623 B(  8-S , 30-H ) :  -0.0644 
B(  9-C , 10-S ) :   0.4704 B(  9-C , 11-P ) :  -0.0647 B(  9-C , 29-H ) :   0.6060 
B(  9-C , 30-H ) :   0.7230 B( 10-S , 11-P ) :   0.5071 B( 10-S , 12-S ) :  -0.0918 
B( 10-S , 13-O ) :  -0.0686 B( 10-S , 16-O ) :  -0.0728 B( 10-S , 30-H ) :  -0.0664 
B( 11-P , 12-S ) :   0.9311 B( 11-P , 13-O ) :   0.6124 B( 11-P , 14-C ) :  -0.0827 
B( 11-P , 16-O ) :   0.6452 B( 11-P , 17-C ) :  -0.0752 B( 12-S , 13-O ) :  -0.0701 
B( 12-S , 16-O ) :  -0.0675 B( 12-S , 29-H ) :   0.0606 B( 12-S , 31-H ) :   0.0630 
B( 13-O , 14-C ) :   0.5587 B( 13-O , 15-C ) :  -0.0901 B( 13-O , 16-O ) :  -0.0566 
B( 13-O , 31-H ) :  -0.0678 B( 13-O , 32-H ) :  -0.0595 B( 14-C , 15-C ) :   0.9295 
B( 14-C , 31-H ) :   0.7174 B( 14-C , 32-H ) :   0.7259 B( 15-C , 31-H ) :  -0.0646 
B( 15-C , 32-H ) :  -0.0512 B( 15-C , 33-H ) :   0.7210 B( 15-C , 34-H ) :   0.6902 
B( 15-C , 35-H ) :   0.7306 B( 16-O , 17-C ) :   0.5559 B( 16-O , 18-C ) :  -0.0937 
B( 16-O , 36-H ) :  -0.0577 B( 16-O , 37-H ) :  -0.0663 B( 17-C , 18-C ) :   0.9187 
B( 17-C , 36-H ) :   0.7344 B( 17-C , 37-H ) :   0.7055 B( 18-C , 37-H ) :  -0.0736 
B( 18-C , 38-H ) :   0.7344 B( 18-C , 39-H ) :   0.6916 B( 18-C , 40-H ) :   0.7365 
B( 20-H , 21-H ) :  -0.0532 B( 22-H , 23-H ) :  -0.0632 B( 24-H , 25-H ) :  -0.0716 
B( 27-H , 28-H ) :  -0.0525 B( 31-H , 32-H ) :  -0.0645 B( 33-H , 35-H ) :  -0.0546 
B( 36-H , 37-H ) :  -0.0665 B( 38-H , 40-H ) :  -0.0579 


                     *******************************
                     * LOEWDIN POPULATION ANALYSIS *
                     *******************************

----------------------
LOEWDIN ATOMIC CHARGES
----------------------
   0 C :   -0.364522
   1 C :   -0.122167
   2 O :   -0.232710
   3 P :    0.570228
   4 S :   -0.307325
   5 O :   -0.246178
   6 C :   -0.114736
   7 C :   -0.370006
   8 S :    0.079742
   9 C :   -0.476663
  10 S :    0.075889
  11 P :    0.567827
  12 S :   -0.291367
  13 O :   -0.242229
  14 C :   -0.118416
  15 C :   -0.371272
  16 O :   -0.228969
  17 C :   -0.115509
  18 C :   -0.366558
  19 H :    0.128078
  20 H :    0.121001
  21 H :    0.122759
  22 H :    0.117357
  23 H :    0.107627
  24 H :    0.107338
  25 H :    0.120403
  26 H :    0.128437
  27 H :    0.129272
  28 H :    0.119608
  29 H :    0.128009
  30 H :    0.137571
  31 H :    0.112702
  32 H :    0.118286
  33 H :    0.122688
  34 H :    0.131936
  35 H :    0.122386
  36 H :    0.122454
  37 H :    0.101457
  38 H :    0.127777
  39 H :    0.130506
  40 H :    0.117290

-------------------------------
LOEWDIN REDUCED ORBITAL CHARGES
-------------------------------
  0 C s       :     2.952706  s :     2.952706
      pz      :     1.127083  p :     3.342202
      px      :     1.089804
      py      :     1.125315
      dz2     :     0.007954  d :     0.069614
      dxz     :     0.019183
      dyz     :     0.014480
      dx2y2   :     0.020753
      dxy     :     0.007244

  1 C s       :     2.928068  s :     2.928068
      pz      :     0.970297  p :     3.058881
      px      :     1.073657
      py      :     1.014928
      dz2     :     0.018759  d :     0.135217
      dxz     :     0.036585
      dyz     :     0.029513
      dx2y2   :     0.034082
      dxy     :     0.016278

  2 O s       :     3.497990  s :     3.497990
      pz      :     1.368531  p :     4.710462
      px      :     1.694752
      py      :     1.647178
      dz2     :     0.007267  d :     0.024258
      dxz     :     0.006742
      dyz     :     0.004794
      dx2y2   :     0.002414
      dxy     :     0.003040

  3 P s       :     5.056989  s :     5.056989
      pz      :     2.831801  p :     8.555739
      px      :     2.837854
      py      :     2.886084
      dz2     :     0.194574  d :     0.817044
      dxz     :     0.146120
      dyz     :     0.140609
      dx2y2   :     0.135828
      dxy     :     0.199913

  4 S s       :     5.769834  s :     5.769834
      pz      :     3.608832  p :    10.479717
      px      :     3.613128
      py      :     3.257757
      dz2     :     0.006821  d :     0.057774
      dxz     :     0.003320
      dyz     :     0.017257
      dx2y2   :     0.016885
      dxy     :     0.013491

  5 O s       :     3.495768  s :     3.495768
      pz      :     1.593202  p :     4.727090
      px      :     1.586635
      py      :     1.547253
      dz2     :     0.005304  d :     0.023320
      dxz     :     0.003735
      dyz     :     0.004884
      dx2y2   :     0.003360
      dxy     :     0.006037

  6 C s       :     2.924803  s :     2.924803
      pz      :     0.962681  p :     3.054225
      px      :     1.078344
      py      :     1.013200
      dz2     :     0.025011  d :     0.135707
      dxz     :     0.030749
      dyz     :     0.038094
      dx2y2   :     0.009493
      dxy     :     0.032360

  7 C s       :     2.953405  s :     2.953405
      pz      :     1.093485  p :     3.347236
      px      :     1.133795
      py      :     1.119955
      dz2     :     0.008032  d :     0.069364
      dxz     :     0.016014
      dyz     :     0.020331
      dx2y2   :     0.003298
      dxy     :     0.021689

  8 S s       :     5.636899  s :     5.636899
      pz      :     3.536067  p :    10.191031
      px      :     3.312241
      py      :     3.342724
      dz2     :     0.010431  d :     0.092328
      dxz     :     0.015771
      dyz     :     0.019022
      dx2y2   :     0.016164
      dxy     :     0.030940

  9 C s       :     3.064680  s :     3.064680
      pz      :     1.145578  p :     3.324920
      px      :     1.045903
      py      :     1.133440
      dz2     :     0.025684  d :     0.087064
      dxz     :     0.010380
      dyz     :     0.009296
      dx2y2   :     0.018024
      dxy     :     0.023680

 10 S s       :     5.640308  s :     5.640308
      pz      :     3.248310  p :    10.187812
      px      :     3.211736
      py      :     3.727766
      dz2     :     0.029110  d :     0.095991
      dxz     :     0.017663
      dyz     :     0.013264
      dx2y2   :     0.025176
      dxy     :     0.010778

 11 P s       :     5.054139  s :     5.054139
      pz      :     2.874008  p :     8.553827
      px      :     2.819967
      py      :     2.859853
      dz2     :     0.162114  d :     0.824207
      dxz     :     0.122242
      dyz     :     0.181099
      dx2y2   :     0.195980
      dxy     :     0.162773

 12 S s       :     5.764510  s :     5.764510
      pz      :     3.666457  p :    10.468241
      px      :     3.435598
      py      :     3.366186
      dz2     :     0.008988  d :     0.058616
      dxz     :     0.005792
      dyz     :     0.006092
      dx2y2   :     0.010624
      dxy     :     0.027121

 13 O s       :     3.497889  s :     3.497889
      pz      :     1.728253  p :     4.720465
      px      :     1.496752
      py      :     1.495459
      dz2     :     0.002714  d :     0.023876
      dxz     :     0.004324
      dyz     :     0.003293
      dx2y2   :     0.009093
      dxy     :     0.004451

 14 C s       :     2.926944  s :     2.926944
      pz      :     1.103872  p :     3.056148
      px      :     1.072704
      py      :     0.879571
      dz2     :     0.026005  d :     0.135324
      dxz     :     0.025152
      dyz     :     0.025031
      dx2y2   :     0.027646
      dxy     :     0.031489

 15 C s       :     2.954405  s :     2.954405
      pz      :     1.081059  p :     3.347652
      px      :     1.138093
      py      :     1.128500
      dz2     :     0.018272  d :     0.069215
      dxz     :     0.017274
      dyz     :     0.009188
      dx2y2   :     0.008565
      dxy     :     0.015916

 16 O s       :     3.495642  s :     3.495642
      pz      :     1.676398  p :     4.709690
      px      :     1.703663
      py      :     1.329628
      dz2     :     0.003275  d :     0.023638
      dxz     :     0.002154
      dyz     :     0.007667
      dx2y2   :     0.004477
      dxy     :     0.006064

 17 C s       :     2.929235  s :     2.929235
      pz      :     1.145562  p :     3.053917
      px      :     1.069211
      py      :     0.839144
      dz2     :     0.021097  d :     0.132357
      dxz     :     0.017103
      dyz     :     0.027515
      dx2y2   :     0.034637
      dxy     :     0.032005

 18 C s       :     2.951940  s :     2.951940
      pz      :     1.138082  p :     3.344895
      px      :     1.077553
      py      :     1.129260
      dz2     :     0.014267  d :     0.069723
      dxz     :     0.014848
      dyz     :     0.011870
      dx2y2   :     0.019154
      dxy     :     0.009584

 19 H s       :     0.871922  s :     0.871922

 20 H s       :     0.878999  s :     0.878999

 21 H s       :     0.877241  s :     0.877241

 22 H s       :     0.882643  s :     0.882643

 23 H s       :     0.892373  s :     0.892373

 24 H s       :     0.892662  s :     0.892662

 25 H s       :     0.879597  s :     0.879597

 26 H s       :     0.871563  s :     0.871563

 27 H s       :     0.870728  s :     0.870728

 28 H s       :     0.880392  s :     0.880392

 29 H s       :     0.871991  s :     0.871991

 30 H s       :     0.862429  s :     0.862429

 31 H s       :     0.887298  s :     0.887298

 32 H s       :     0.881714  s :     0.881714

 33 H s       :     0.877312  s :     0.877312

 34 H s       :     0.868064  s :     0.868064

 35 H s       :     0.877614  s :     0.877614

 36 H s       :     0.877546  s :     0.877546

 37 H s       :     0.898543  s :     0.898543

 38 H s       :     0.872223  s :     0.872223

 39 H s       :     0.869494  s :     0.869494

 40 H s       :     0.882710  s :     0.882710


---------------------------------
LOEWDIN BOND ORDERS (THRESH 0.050000)
---------------------------------
B(  0-C ,  1-C ) :   1.1568 B(  0-C ,  2-O ) :   0.0595 B(  0-C , 19-H ) :   0.9271 
B(  0-C , 20-H ) :   0.9291 B(  0-C , 21-H ) :   0.9366 B(  1-C ,  2-O ) :   1.0844 
B(  1-C ,  3-P ) :   0.0659 B(  1-C , 22-H ) :   0.9155 B(  1-C , 23-H ) :   0.9038 
B(  2-O ,  3-P ) :   1.2927 B(  2-O ,  4-S ) :   0.0976 B(  2-O ,  5-O ) :   0.0533 
B(  3-P ,  4-S ) :   1.7157 B(  3-P ,  5-O ) :   1.2660 B(  3-P ,  6-C ) :   0.0577 
B(  3-P ,  8-S ) :   1.0701 B(  4-S ,  5-O ) :   0.0850 B(  4-S ,  8-S ) :   0.1304 
B(  4-S , 29-H ) :   0.0532 B(  5-O ,  6-C ) :   1.0959 B(  5-O ,  7-C ) :   0.0570 
B(  5-O ,  8-S ) :   0.0640 B(  6-C ,  7-C ) :   1.1585 B(  6-C , 24-H ) :   0.9146 
B(  6-C , 25-H ) :   0.9169 B(  7-C , 26-H ) :   0.9240 B(  7-C , 27-H ) :   0.9333 
B(  7-C , 28-H ) :   0.9275 B(  8-S ,  9-C ) :   1.1515 B(  8-S , 10-S ) :   0.0895 
B(  9-C , 10-S ) :   1.1831 B(  9-C , 29-H ) :   0.8903 B(  9-C , 30-H ) :   0.9249 
B( 10-S , 11-P ) :   1.0245 B( 10-S , 12-S ) :   0.1259 B( 10-S , 13-O ) :   0.0570 
B( 10-S , 16-O ) :   0.0730 B( 11-P , 12-S ) :   1.7440 B( 11-P , 13-O ) :   1.2680 
B( 11-P , 14-C ) :   0.0647 B( 11-P , 16-O ) :   1.3189 B( 11-P , 17-C ) :   0.0608 
B( 12-S , 13-O ) :   0.0908 B( 12-S , 16-O ) :   0.0753 B( 13-O , 14-C ) :   1.0903 
B( 13-O , 15-C ) :   0.0590 B( 13-O , 16-O ) :   0.0503 B( 14-C , 15-C ) :   1.1575 
B( 14-C , 31-H ) :   0.9065 B( 14-C , 32-H ) :   0.9169 B( 15-C , 33-H ) :   0.9277 
B( 15-C , 34-H ) :   0.9247 B( 15-C , 35-H ) :   0.9357 B( 16-O , 17-C ) :   1.0737 
B( 16-O , 18-C ) :   0.0566 B( 17-C , 18-C ) :   1.1607 B( 17-C , 36-H ) :   0.9162 
B( 17-C , 37-H ) :   0.9056 B( 18-C , 38-H ) :   0.9345 B( 18-C , 39-H ) :   0.9238 
B( 18-C , 40-H ) :   0.9304 

------------------------------------------
LOEWDIN REDUCED ORBITAL POPULATIONS PER MO
-------------------------------------------
THRESHOLD FOR PRINTING IS 0.1%%
                      0         1         2         3         4         5   
                 -88.04695 -88.04467 -87.97957 -87.97924 -76.42448 -76.42112
                   2.00000   2.00000   2.00000   2.00000   2.00000   2.00000
                  --------  --------  --------  --------  --------  --------
 3 P  s               0.0       0.0       0.0       0.0       0.0     100.0
 4 S  s               0.0       0.0       0.0     100.0       0.0       0.0
 8 S  s               0.0     100.0       0.0       0.0       0.0       0.0
10 S  s             100.0       0.0       0.0       0.0       0.0       0.0
11 P  s               0.0       0.0       0.0       0.0     100.0       0.0
12 S  s               0.0       0.0     100.0       0.0       0.0       0.0

                      6         7         8         9        10        11   
                 -18.79367 -18.78845 -18.78796 -18.77572  -9.95716  -9.95469
                   2.00000   2.00000   2.00000   2.00000   2.00000   2.00000
                  --------  --------  --------  --------  --------  --------
 2 O  s               0.0       0.0       0.0      99.9       0.0       0.0
 5 O  s               0.0      99.9       0.0       0.0       0.0       0.0
 6 C  s               0.0       0.0       0.0       0.0       0.0      99.7
 9 C  s               0.0       0.0       0.0       0.0      99.8       0.0
13 O  s              99.9       0.0       0.0       0.0       0.0       0.0
16 O  s               0.0       0.0      99.9       0.0       0.0       0.0

                     12        13        14        15        16        17   
                  -9.95248  -9.95147  -9.93455  -9.88580  -9.88437  -9.88067
                   2.00000   2.00000   2.00000   2.00000   2.00000   2.00000
                  --------  --------  --------  --------  --------  --------
 1 C  s               0.0       0.0      99.7       0.0       0.0       0.0
 7 C  s               0.0       0.0       0.0       0.0       0.0      99.7
14 C  s              99.7       0.0       0.0       0.0       0.0       0.0
14 C  pz              0.0       0.0       0.0       0.0       0.1       0.0
15 C  s               0.0       0.0       0.0       0.0      99.7       0.0
15 C  pz              0.1       0.0       0.0       0.0       0.0       0.0
17 C  s               0.0      99.7       0.0       0.0       0.0       0.0
17 C  px              0.0       0.0       0.0       0.1       0.0       0.0
18 C  s               0.0       0.0       0.0      99.7       0.0       0.0
18 C  px              0.0       0.1       0.0       0.0       0.0       0.0

                     18        19        20        21        22        23   
                  -9.87255  -7.69184  -7.68969  -7.62446  -7.62416  -6.42180
                   2.00000   2.00000   2.00000   2.00000   2.00000   2.00000
                  --------  --------  --------  --------  --------  --------
 0 C  s              99.7       0.0       0.0       0.0       0.0       0.0
 4 S  s               0.0       0.0       0.0       0.0      99.8       0.0
 8 S  s               0.0       0.0      99.7       0.0       0.0       0.0
 9 C  px              0.0       0.2       0.0       0.0       0.0       0.0
10 S  s               0.0      99.7       0.0       0.0       0.0       0.0
11 P  s               0.0       0.0       0.0       0.0       0.0      99.3
12 S  s               0.0       0.0       0.0      99.8       0.0       0.0
13 O  px              0.0       0.0       0.0       0.0       0.0       0.2
16 O  py              0.0       0.0       0.0       0.0       0.0       0.1

                     24        25        26        27        28        29   
                  -6.41838  -5.71965  -5.71747  -5.71620  -5.71409  -5.70906
                   2.00000   2.00000   2.00000   2.00000   2.00000   2.00000
                  --------  --------  --------  --------  --------  --------
 2 O  pz              0.2       0.0       0.0       0.0       0.0       0.0
 3 P  s              99.3       0.0       0.0       0.0       0.0       0.0
 5 O  px              0.1       0.0       0.0       0.0       0.0       0.0
 5 O  py              0.1       0.0       0.0       0.0       0.0       0.0
 8 S  pz              0.0       0.0      34.5       0.0       0.2       0.0
 8 S  px              0.0       0.0      62.1       0.0       3.9       0.0
 8 S  py              0.0       0.0       3.4       0.0      95.9       0.0
10 S  pz              0.0      60.8       0.0      27.5       0.0      11.7
10 S  px              0.0      32.8       0.0      66.9       0.0       0.3
10 S  py              0.0       6.4       0.0       5.6       0.0      88.0

                     30        31        32        33        34        35   
                  -5.70683  -5.65343  -5.65311  -5.64505  -5.64499  -5.64461
                   2.00000   2.00000   2.00000   2.00000   2.00000   2.00000
                  --------  --------  --------  --------  --------  --------
 4 S  pz              0.0       0.0      11.2      53.8       0.0       0.0
 4 S  px              0.0       0.0      11.4      46.1       0.0       0.0
 4 S  py              0.0       0.0      77.3       0.0       0.0       0.0
 8 S  pz             65.4       0.0       0.0       0.0       0.0       0.0
 8 S  px             34.0       0.0       0.0       0.0       0.0       0.0
 8 S  py              0.7       0.0       0.0       0.0       0.0       0.0
12 S  pz              0.0       3.0       0.0       0.0      87.3       9.7
12 S  px              0.0      40.0       0.0       0.0      12.0      47.9
12 S  py              0.0      57.0       0.0       0.0       0.6      42.4

                     36        37        38        39        40        41   
                  -5.64403  -4.64458  -4.64367  -4.64199  -4.64078  -4.64024
                   2.00000   2.00000   2.00000   2.00000   2.00000   2.00000
                  --------  --------  --------  --------  --------  --------
 3 P  pz              0.0       0.0       0.0       0.0       3.3      94.5
 3 P  px              0.0       0.0       0.0       0.0      86.5       4.8
 3 P  py              0.0       0.0       0.0       0.0      10.1       0.7
 4 S  pz             34.9       0.0       0.0       0.0       0.0       0.0
 4 S  px             42.4       0.0       0.0       0.0       0.0       0.0
 4 S  py             22.6       0.0       0.0       0.0       0.0       0.0
11 P  pz              0.0      18.3      73.8       7.8       0.0       0.0
11 P  px              0.0      54.7      26.1      19.1       0.0       0.0
11 P  py              0.0      26.8       0.0      73.1       0.0       0.0

                     42        43        44        45        46        47   
                  -4.63897  -0.98548  -0.97877  -0.94373  -0.93534  -0.76395
                   2.00000   2.00000   2.00000   2.00000   2.00000   2.00000
                  --------  --------  --------  --------  --------  --------
 0 C  s               0.0       0.0       0.2       0.0       0.4       0.1
 0 C  pz              0.0       0.0       0.1       0.0       0.1       0.0
 0 C  px              0.0       0.0       0.2       0.0       0.5       0.0
 1 C  s               0.0       0.0       2.5       0.0       5.3       0.3
 1 C  pz              0.0       0.0       1.6       0.0       2.4       0.0
 1 C  px              0.0       0.0       0.2       0.0       0.5       0.0
 1 C  py              0.0       0.0       1.1       0.0       1.9       0.0
 1 C  dyz             0.0       0.0       0.1       0.0       0.3       0.0
 2 O  s               0.0       0.2      21.7       0.2      36.5       0.2
 2 O  pz              0.0       0.0       0.6       0.0       0.0       0.4
 2 O  px              0.0       0.0       0.8       0.0       0.6       0.0
 2 O  py              0.0       0.0       0.1       0.0       0.7       0.1
 3 P  s               0.0       0.1      13.9       0.0       0.2       2.1
 3 P  pz              2.1       0.0       2.4       0.0       4.2       0.9
 3 P  px              8.6       0.0       0.7       0.0       4.0       1.1
 3 P  py             89.2       0.0       1.9       0.0       2.1       0.1
 3 P  dz2             0.0       0.0       0.0       0.0       2.1       0.0
 3 P  dxz             0.0       0.0       0.1       0.0       0.5       0.1
 3 P  dxy             0.0       0.0       0.8       0.0       0.6       0.1
 4 S  s               0.0       0.0       0.3       0.0       0.0       0.4
 4 S  py              0.0       0.0       0.3       0.0       0.0       0.1
 5 O  s               0.0       0.1      35.1       0.3      23.7       0.2
 5 O  pz              0.0       0.0       0.8       0.0       1.1       0.0
 5 O  px              0.0       0.0       0.6       0.0       0.0       0.2
 5 O  py              0.0       0.0       0.3       0.0       0.1       0.1
 6 C  s               0.0       0.0       4.2       0.0       4.0       0.2
 6 C  pz              0.0       0.0       2.1       0.0       1.6       0.0
 6 C  px              0.0       0.0       0.8       0.0       0.6       0.0
 6 C  py              0.0       0.0       1.6       0.0       1.2       0.0
 6 C  dyz             0.0       0.0       0.2       0.0       0.2       0.0
 7 C  s               0.0       0.0       0.3       0.0       0.3       0.0
 7 C  pz              0.0       0.0       0.4       0.0       0.3       0.0
 7 C  px              0.0       0.0       0.1       0.0       0.1       0.0
 8 S  s               0.0       0.0       0.4       0.0       0.0      18.1
 8 S  pz              0.0       0.0       0.1       0.0       0.0       0.2
 8 S  px              0.0       0.0       0.2       0.0       0.0       0.3
 8 S  py              0.0       0.0       0.1       0.0       0.0       2.3
 9 C  s               0.0       0.0       0.0       0.0       0.0      27.1
 9 C  pz              0.0       0.0       0.0       0.0       0.0       1.2
 9 C  px              0.0       0.0       0.0       0.0       0.0       0.5
 9 C  py              0.0       0.0       0.0       0.0       0.0       0.8
10 S  s               0.0       0.3       0.0       0.0       0.0      20.3
10 S  pz              0.0       0.3       0.0       0.0       0.0       0.0
10 S  px              0.0       0.0       0.0       0.0       0.0       3.0
10 S  dx2y2           0.0       0.0       0.0       0.0       0.0       0.2
11 P  s               0.0      14.1       0.1       0.1       0.0       2.4
11 P  pz              0.0       1.9       0.0       0.5       0.0       2.2
11 P  px              0.0       2.2       0.0       5.0       0.0       0.1
11 P  py              0.0       0.7       0.0       5.4       0.0       0.0
11 P  dz2             0.0       0.2       0.0       0.1       0.0       0.1
11 P  dxz             0.0       0.1       0.0       0.5       0.0       0.0
11 P  dyz             0.0       0.3       0.0       1.1       0.0       0.1
[...]
 1 C  dz2             0.0       0.2       0.1       0.6
 1 C  dxz             0.0       0.9       0.1       0.9
 1 C  dyz             0.0       3.0       0.5       3.3
 1 C  dx2y2           0.0       0.4       0.1       0.6
 1 C  dxy             0.0       1.3       0.1       0.5
 2 O  s               0.0       2.8       0.1       0.1
 2 O  pz              0.0       0.7       0.4       4.0
 2 O  px              0.0       0.2       0.0       0.0
 2 O  py              0.0       0.4       0.1       0.9
 2 O  dz2             0.0       2.4       0.1       3.4
 2 O  dxz             0.0       2.5       2.1      21.6
 2 O  dyz             0.1      20.9       1.8      12.0
 2 O  dx2y2           0.0       1.1       0.4       2.9
 2 O  dxy             0.0       3.8       1.0       5.9
 3 P  s               0.0       0.3       0.0       0.1
 3 P  pz              0.0       0.0       0.1       1.3
 3 P  px              0.0       0.3       0.0       0.5
 3 P  py              0.0       0.1       0.0       0.2
 3 P  dz2             0.0       0.1       0.1       1.2
 3 P  dyz             0.0       0.3       0.0       0.0
 3 P  dxy             0.0       0.3       0.0       0.0
 5 O  s               0.0       0.7       0.0       0.2
 5 O  pz              0.0       0.8       0.0       0.4
 5 O  px              0.0       1.0       0.0       0.7
 5 O  py              0.0       1.6       0.0       1.0
 5 O  dz2             0.0       8.7       0.2       4.8
 5 O  dxz             0.0      11.8       0.4       5.5
 5 O  dyz             0.0      19.8       0.8      10.1
 5 O  dx2y2           0.0       0.3       0.0       0.1
 6 C  s               0.0       1.1       0.0       0.5
 6 C  pz              0.0       1.1       0.0       0.5
 6 C  px              0.0       0.4       0.0       0.2
 6 C  py              0.0       0.5       0.0       0.2
 6 C  dz2             0.0       0.2       0.0       0.1
 6 C  dxz             0.0       1.5       0.1       0.7
 6 C  dyz             0.0       3.7       0.1       1.6
 6 C  dx2y2           0.0       0.1       0.0       0.0
 6 C  dxy             0.0       1.0       0.0       0.5
11 P  s               0.3       0.0       0.0       0.0
11 P  pz              0.0       0.0       0.1       0.0
11 P  px              0.4       0.0       1.5       0.2
11 P  py              0.1       0.0       1.3       0.1
11 P  dz2             0.2       0.0       0.1       0.0
11 P  dxz             0.5       0.0       0.1       0.0
11 P  dyz             0.0       0.0       0.7       0.1
11 P  dx2y2           0.0       0.0       0.7       0.1
11 P  dxy             0.0       0.0       0.2       0.0
13 O  s               0.6       0.0       0.2       0.0
13 O  px              0.2       0.0       2.8       0.3
13 O  py              0.0       0.0       2.5       0.2
13 O  dz2             1.5       0.0       1.9       0.1
13 O  dxz             0.4       0.0       7.1       0.8
13 O  dyz             0.1       0.0       4.8       0.5
13 O  dx2y2           1.3       0.1      31.9       3.3
13 O  dxy             1.7       0.0       5.9       0.4
14 C  s               0.0       0.0       1.3       0.1
14 C  px              0.0       0.0       0.5       0.0
14 C  py              0.0       0.0       1.6       0.1
14 C  dz2             0.0       0.0       1.7       0.1
14 C  dyz             0.1       0.0       0.1       0.0
14 C  dx2y2           0.1       0.0       1.4       0.1
14 C  dxy             0.0       0.0       3.4       0.3
16 O  s               4.3       0.0       1.0       0.2
16 O  pz              0.0       0.0       0.3       0.0
16 O  px              0.3       0.0       0.0       0.0
16 O  py              2.6       0.0       1.2       0.1
16 O  dz2            14.2       0.0       0.1       0.0
16 O  dxz             0.1       0.0       1.0       0.1
16 O  dyz             0.1       0.0       8.6       1.0
16 O  dx2y2          27.4       0.0       1.5       0.4
16 O  dxy            24.9       0.0       4.1       0.2
17 C  s               1.7       0.0       0.0       0.0
17 C  px              0.6       0.0       0.0       0.0
17 C  py              2.6       0.0       0.1       0.0
17 C  dz2             2.5       0.0       0.0       0.0
17 C  dyz             0.2       0.0       0.0       0.0
17 C  dx2y2           5.1       0.0       0.2       0.0
17 C  dxy             4.7       0.0       0.0       0.0
18 C  dx2y2           0.2       0.0       0.0       0.0
18 C  dxy             0.2       0.0       0.0       0.0
36 H  s               0.1       0.0       0.0       0.0


                      *****************************
                      * MAYER POPULATION ANALYSIS *
                      *****************************

  NA   - Mulliken gross atomic population
  ZA   - Total nuclear charge
  QA   - Mulliken gross atomic charge
  VA   - Mayer's total valence
  BVA  - Mayer's bonded valence
  FA   - Mayer's free valence

  ATOM       NA         ZA         QA         VA         BVA        FA
  0 C      6.2948     6.0000    -0.2948     3.9874     3.9874     0.0000
  1 C      6.0076     6.0000    -0.0076     3.9903     3.9903    -0.0000
  2 O      8.3526     8.0000    -0.3526     2.1997     2.1997     0.0000
  3 P     14.3855    15.0000     0.6145     4.9752     4.9752    -0.0000
  4 S     16.3154    16.0000    -0.3154     2.0660     2.0660     0.0000
  5 O      8.3775     8.0000    -0.3775     2.1795     2.1795    -0.0000
  6 C      6.0059     6.0000    -0.0059     4.0230     4.0230     0.0000
  7 C      6.3079     6.0000    -0.3079     3.9897     3.9897     0.0000
  8 S     16.1142    16.0000    -0.1142     2.2658     2.2658     0.0000
  9 C      6.3464     6.0000    -0.3464     3.8087     3.8087     0.0000
 10 S     16.1116    16.0000    -0.1116     2.2675     2.2675    -0.0000
 11 P     14.4026    15.0000     0.5974     4.9658     4.9658     0.0000
 12 S     16.3007    16.0000    -0.3007     2.0695     2.0695    -0.0000
 13 O      8.3745     8.0000    -0.3745     2.1756     2.1756    -0.0000
 14 C      6.0010     6.0000    -0.0010     4.0019     4.0019     0.0000
 15 C      6.3199     6.0000    -0.3199     3.9887     3.9887     0.0000
 16 O      8.3494     8.0000    -0.3494     2.1976     2.1976    -0.0000
 17 C      6.0027     6.0000    -0.0027     4.0009     4.0009    -0.0000
 18 C      6.3045     6.0000    -0.3045     4.0051     4.0051    -0.0000
 19 H      0.8928     1.0000     0.1072     0.9547     0.9547     0.0000
 20 H      0.8813     1.0000     0.1187     0.9805     0.9805     0.0000
 21 H      0.8911     1.0000     0.1089     0.9604     0.9604    -0.0000
 22 H      0.8991     1.0000     0.1009     0.9592     0.9592    -0.0000
 23 H      0.8774     1.0000     0.1226     0.9814     0.9814    -0.0000
 24 H      0.8911     1.0000     0.1089     0.9552     0.9552     0.0000
 25 H      0.8929     1.0000     0.1071     0.9478     0.9478     0.0000
 26 H      0.8915     1.0000     0.1085     0.9526     0.9526     0.0000
 27 H      0.8741     1.0000     0.1259     0.9686     0.9686     0.0000
 28 H      0.8792     1.0000     0.1208     0.9867     0.9867     0.0000
 29 H      0.7872     1.0000     0.2128     1.0008     1.0008     0.0000
 30 H      0.8164     1.0000     0.1836     0.9323     0.9323    -0.0000
 31 H      0.8863     1.0000     0.1137     0.9837     0.9837     0.0000
 32 H      0.8959     1.0000     0.1041     0.9492     0.9492    -0.0000
 33 H      0.8693     1.0000     0.1307     0.9816     0.9816    -0.0000
 34 H      0.8855     1.0000     0.1145     0.9550     0.9550    -0.0000
 35 H      0.8846     1.0000     0.1154     0.9610     0.9610    -0.0000
 36 H      0.8918     1.0000     0.1082     0.9512     0.9512    -0.0000
 37 H      0.8859     1.0000     0.1141     0.9758     0.9758     0.0000
 38 H      0.8795     1.0000     0.1205     0.9620     0.9620     0.0000
 39 H      0.8883     1.0000     0.1117     0.9530     0.9530    -0.0000
 40 H      0.8841     1.0000     0.1159     0.9754     0.9754     0.0000

  Mayer bond orders larger than 0.100000
B(  0-C ,  1-C ) :   1.1573 B(  0-C , 19-H ) :   0.9402 B(  0-C , 20-H ) :   0.9367 
B(  0-C , 21-H ) :   0.9457 B(  1-C ,  2-O ) :   0.9034 B(  1-C , 22-H ) :   0.9349 
B(  1-C , 23-H ) :   0.9101 B(  2-O ,  3-P ) :   1.1459 B(  3-P ,  4-S ) :   1.6083 
B(  3-P ,  5-O ) :   1.0959 B(  3-P ,  8-S ) :   0.9488 B(  4-S ,  8-S ) :   0.1142 
B(  5-O ,  6-C ) :   0.9174 B(  6-C ,  7-C ) :   1.1644 B(  6-C , 24-H ) :   0.9277 
B(  6-C , 25-H ) :   0.9344 B(  7-C , 26-H ) :   0.9346 B(  7-C , 27-H ) :   0.9429 
B(  7-C , 28-H ) :   0.9342 B(  8-S ,  9-C ) :   0.9900 B(  9-C , 10-S ) :   1.0092 
B(  9-C , 29-H ) :   0.8443 B(  9-C , 30-H ) :   0.9112 B( 10-S , 11-P ) :   0.9311 
B( 10-S , 12-S ) :   0.1046 B( 11-P , 12-S ) :   1.6367 B( 11-P , 13-O ) :   1.0893 
B( 11-P , 16-O ) :   1.1524 B( 13-O , 14-C ) :   0.9058 B( 14-C , 15-C ) :   1.1659 
B( 14-C , 31-H ) :   0.9144 B( 14-C , 32-H ) :   0.9338 B( 15-C , 33-H ) :   0.9343 
B( 15-C , 34-H ) :   0.9376 B( 15-C , 35-H ) :   0.9449 B( 16-O , 17-C ) :   0.8983 
B( 17-C , 18-C ) :   1.1693 B( 17-C , 36-H ) :   0.9351 B( 17-C , 37-H ) :   0.9087 
B( 18-C , 38-H ) :   0.9435 B( 18-C , 39-H ) :   0.9361 B( 18-C , 40-H ) :   0.9385 


-------
TIMINGS
-------

Total SCF time: 0 days 0 hours 0 min 17 sec 

Total time                  ....      17.081 sec
Sum of individual times     ....      16.552 sec  ( 96.9%)

SCF preparation             ....       0.222 sec  (  1.3%)
Fock matrix formation       ....      15.181 sec  ( 88.9%)
  Startup                   ....       0.058 sec  (  0.4% of F)
  Split-RI-J                ....       9.047 sec  ( 59.6% of F)
  XC integration            ....       5.563 sec  ( 36.6% of F)
    Basis function eval.    ....       2.126 sec  ( 38.2% of XC)
    Density eval.           ....       1.088 sec  ( 19.6% of XC)
    XC-Functional eval.     ....       0.408 sec  (  7.3% of XC)
    XC-Potential eval.      ....       1.240 sec  ( 22.3% of XC)
Diagonalization             ....       0.000 sec  (  0.0%)
Density matrix formation    ....       0.221 sec  (  1.3%)
Total Energy calculation    ....       0.031 sec  (  0.2%)
Population analysis         ....       0.210 sec  (  1.2%)
Orbital Transformation      ....       0.109 sec  (  0.6%)
Orbital Orthonormalization  ....       0.000 sec  (  0.0%)
DIIS solution               ....       0.445 sec  (  2.6%)
  MO trafo                  ....       0.000 sec  (  0.0 % of DIIS)
  Orb grad                  ....       0.000 sec  (  0.0 % of DIIS)
  Energy W gradient         ....       0.000 sec  (  0.0 % of DIIS)
  DIIS error                ....       0.021 sec  (  4.7 % of DIIS)
  DIIS work                 ....       0.364 sec  ( 81.8 % of DIIS)
  Form Q                    ....       0.000 sec  (  0.0 % of DIIS)
  Form QpQm                 ....       0.000 sec  (  0.0 % of DIIS)
  Exp/Cayley                ....       0.000 sec  (  0.0 % of DIIS)
  Orb update                ....       0.000 sec  (  0.0 % of DIIS)
  Wake-sleep                ....       0.013 sec  (  3.0 % of DIIS)
SOSCF solution              ....       0.134 sec  (  0.8%)
  MO trafo                  ....       0.079 sec  ( 59.1 % of SOSCF)
  Orb grad                  ....       0.002 sec  (  1.2 % of SOSCF)
  Rot update                ....       0.016 sec  ( 12.2 % of SOSCF)
  Step                      ....       0.037 sec  ( 27.4 % of SOSCF)
Finished LeanSCF after  17.2 sec

Maximum memory used throughout the entire LEANSCF-calculation: 35.0 MB


-------------------------------------------------------------------------------
                          DFT DISPERSION CORRECTION                            
                                                                               
                                DFTD4 V3.4.0                                   
-------------------------------------------------------------------------------
The PBE functional is recognized
Active option DFTDOPT                   ...         5   

-------------------------   ----------------
Dispersion correction           -0.068513393
-------------------------   ----------------

------------------   -----------------
gCP correction             0.186337144
------------------   -----------------

-------------------------   --------------------
FINAL SINGLE POINT ENERGY     -2929.516870442046
-------------------------   --------------------


------------------------------------------------------------------------------
                              ORCA PROPERTY CALCULATIONS
------------------------------------------------------------------------------

GBWName                                 ... sp.gbw
Number of atoms                         ...     41
Number of basis functions               ...    334
Max core memory                         ...   1024 MB

Electric properties:
Dipole moment                           ... YES
Quadrupole moment                       ...  NO
Static polarizability (Dipole/Dipole)   ...  NO
Static polarizability (Dipole/Quad.)    ...  NO
Static polarizability (Quad./Quad.)     ...  NO
Static polarizability (Velocity)        ...  NO

Atomic electric properties:
Dipole moment                           ...  NO
Quadrupole moment                       ...  NO
Static polarizability                   ...  NO

Choice of electric origin               ... Center of mass
Position of electric origin             ...    -0.000000     0.000001     0.000004

General magnetic properties:
Magnetizability                         ...  NO

EPR properties:
g-Tensor (aka g-matrix)                 ...  NO
Zero-Field splitting spin-orbit         ...  NO
Zero-field splitting spin-spin          ...  NO
Hyperfine couplings                     ...  NO (   0 nuclei)
Quadrupole couplings                    ...  NO (   0 nuclei)
Contact density                         ...  NO (   0 nuclei)

NMR properties:
Chemical shifts                         ...  NO (   0 nuclei)
Spin-rotation constants                 ...  NO (   0 nuclei)
Spin-spin couplings                     ...  NO (   0 nuclei,    0 pairs)

Choice of magnetic origin               ... GIAO
Position of magnetic origin             ...     0.000000     0.000000     0.000000

Properties with geometric perturbations:
SCF Hessian                             ...  NO
IR spectrum                             ...  NO
VCD spectrum                            ...  NO
X-ray spectroscopy properties:
SCF XES/XAS/RIXS spectra                ...  NO


-------------
DIPOLE MOMENT
-------------

Method             : SCF
Type of density    : Electron Density
Multiplicity       :   1
Irrep              :   0
Energy             : -2929.6346941932142727 Eh
Relativity type    : 
Basis              : AO
                                X                 Y                 Z
Electronic contribution:      0.733666089       3.868680829       4.163705940
Nuclear contribution   :     -1.515326290      -5.073841895      -4.164934983
                        -----------------------------------------
Total Dipole Moment    :     -0.781660202      -1.205161066      -0.001229043
                        -----------------------------------------
Magnitude (a.u.)       :      1.436456535
Magnitude (Debye)      :      3.651182348



--------------------
Rotational spectrum 
--------------------
 
Rotational constants in cm-1:             0.013112             0.005234             0.005059 
Rotational constants in MHz :           393.073677           156.908662           151.653784 

Dipole components along the rotational axes: 
x,y,z [a.u.] :     0.432203     1.031760    -0.901155 
x,y,z [Debye]:     1.098572     2.622525    -2.290553 

 

Dipole moment calculation done in   0.0 sec 

Maximum memory used throughout the entire PROP-calculation: 24.2 MB

--------------------------------
SUGGESTED CITATIONS FOR THIS RUN
--------------------------------

Below you find a list of papers that are relevant to this ORCA run
We neither can nor want to force you to cite these papers, but we appreciate if you do
You receive ORCA, which is the product of decades of hard work by many enthusiastic individuals, for free
The only thing we kindly ask in return is that you cite our papers,
We deeply appreciate it, if you show your appreciation for ORCA by not just citing the generic ORCA reference.

Please note that relegating all ORCA citations to the supporting information does *not* help us.
SI sections are not indexed - citations you put there will not count into any citation statistics
But we need these citations in order to attract the funding resources that allow us to do what we are doing

Therefore, if you are a happy ORCA user, please consider citing a few of the papers listed below in the main body of your paper

In addition to the list printed below, the program has created the file sp.bibtex that contains the list in bibtex format
You can import this file easily into all common literature databanks and citation aid programs


List of essential papers. We consider these as the minimum necessary citations

  1. Neese,F.
     Software update: the ORCA program system, version 5.0
     WIRES Comput. Molec. Sci., 2022 12(1)e1606
     doi.org/10.1002/wcms.1606

List of papers to cite with high priority. The work reported in these papers was absolutely
necessary for this run to complete.
Our perspective: the developers of density functionals and basis sets usually get cited in chemistry papers
Good! But without the algorithms to do something with them, the functionals or basis sets would not do anything.
Hence, in our opinion, the algorithm design and method developments papers are equally worthy of getting cited

  1. Neese,F.
     An improvement of the resolution of the identity approximation for the formation of the Coulomb matrix
     J. Comp. Chem., 2003 24(14)1740-1747
     doi.org/10.1002/jcc.10318
  2. Neese,F.
     The SHARK Integral Generation and Digestion System
     J. Comp. Chem., 2022  1-16
     doi.org/10.1002/jcc.26942
  3. Caldeweyher,E.; Bannwarth,C.; Grimme,S.
     Extension of the D3 dispersion coefficient model
     J. Chem. Phys., 2017 147 034112-XXXX
     doi.org/10.1063/1.4993215
  4. Caldeweyher,E.; Ehlert,S.; Hansen,A.; Neugebauer,H.; Spicher,S.; Bannwarth,C.; Grimme,S.
     A generally applicable atomic-charge dependent London dispersion correction
     J. Chem. Phys., 2019 150 154122-XXXX
     doi.org/10.1063/1.5090222
  5. Caldeweyher,E.; Mewes,J.; Ehlert,S.; Grimme,S.
     Extension and evaluation of the D4 London-dispersion model for periodic systems
     Phys. Chem. Chem. Phys., 2020 22(16)8499-8512
     doi.org/10.1039/D0CP00502A

List of suggested additional citations. These are papers that are important in the 'surrounding' of 
of this run, or papers that preceded the highly important papers. If you like your results we are grateful for a citation.

  1. Neese,F.
     The ORCA program system
     WIRES Comput. Molec. Sci., 2012 2(1)73-78
     doi.org/10.1002/wcms.81
  2. Neese,F.
     Software update: the ORCA program system, version 4.0
     WIRES Comput. Molec. Sci., 2018 8(1)1-6
     doi.org/10.1002/wcms.1327
  3. Neese,F.; Wennmohs,F.; Becker,U.; Riplinger,C.
     The ORCA quantum chemistry program package
     J. Chem. Phys., 2020 152 Art. No. L224108
     doi.org/10.1063/5.0004608

List of optional additional citations

  1. Neese,F.
     Approximate second-order SCF convergence for spin unrestricted wavefunctions
     Chem. Phys. Lett., 2000 325(1-3)93-98
     doi.org/10.1016/s0009-2614(00)00662-x

Timings for individual modules:

Sum of individual times          ...       20.894 sec (=   0.348 min)
Startup calculation              ...        1.623 sec (=   0.027 min)   7.8 %
SCF iterations                   ...       19.134 sec (=   0.319 min)  91.6 %
Property calculations            ...        0.137 sec (=   0.002 min)   0.7 %
                             ****ORCA TERMINATED NORMALLY****
TOTAL RUN TIME: 0 days 0 hours 0 minutes 22 seconds 91 msec
