
                                 *****************
                                 * O   R   C   A *
                                 *****************

                                            #,                                       
                                            ###                                      
                                            ####                                     
                                            #####                                    
                                            ######                                   
                                           ########,                                 
                                     ,,################,,,,,                         
                               ,,#################################,,                 
                          ,,##########################################,,             
                       ,#########################################, ''#####,          
                    ,#############################################,,   '####,        
                  ,##################################################,,,,####,       
                ,###########''''           ''''###############################       
              ,#####''   ,,,,##########,,,,          '''####'''          '####       
            ,##' ,,,,###########################,,,                        '##       
           ' ,,###''''                  '''############,,,                           
         ,,##''                                '''############,,,,        ,,,,,,###''
      ,#''                                            '''#######################'''  
     '                                                          ''''####''''         
             ,#######,   #######,   ,#######,      ##                                
            ,#'     '#,  ##    ##  ,#'     '#,    #''#        ,####,   ,####,        
            ##       ##  ##   ,#'  ##            #'  '#       #'       #'  '#        
            ##       ##  #######   ##           ,######,      #####,   #    #        
            '#,     ,#'  ##    ##  '#,     ,#' ,#      #,     #,   #   #,  ,#        
             '#######'   ##     ##  '#######'  #'      '#     '####' # '####'        



                #########################################################
                #                        -***-                          #
                #          Department of theory and spectroscopy        #
                #                                                       #
                #                      Frank Neese                      #
                #                                                       #
                #     Directorship, Architecture, Infrastructure        #
                #                    SHARK, DRIVERS                     #
                #        Core code/Algorithms in most modules           #
                #                                                       #
                #        Max Planck Institute fuer Kohlenforschung      #
                #                Kaiser Wilhelm Platz 1                 #
                #                 D-45470 Muelheim/Ruhr                 #
                #                      Germany                          #
                #                                                       #
                #                  All rights reserved                  #
                #                        -***-                          #
                #########################################################


                         Program Version 6.0.0  -   RELEASE  -


 With contributions from (in alphabetic order):
   Daniel Aravena         : Magnetic Suceptibility
   Michael Atanasov       : Ab Initio Ligand Field Theory (pilot matlab implementation)
   Alexander A. Auer      : GIAO ZORA, VPT2 properties, NMR spectrum
   Ute Becker             : All parallelization in ORCA, NUMFREQ, NUMCALC
   Giovanni Bistoni       : ED, misc. LED, open-shell LED, HFLD
   Martin Brehm           : Molecular dynamics
   Dmytro Bykov           : pre 5.0 version of the SCF Hessian
   Marcos Casanova-Páez   : Triplet and SCS-CIS(D). UHF-(DLPNO)-IP/EA/STEOM-CCSD. UHF-CVS-IP/STEOM-CCSD
   Vijay G. Chilkuri      : MRCI spin determinant printing, contributions to CSF-ICE
   Pauline Colinet        : FMM embedding
   Dipayan Datta          : RHF DLPNO-CCSD density
   Achintya Kumar Dutta   : EOM-CC, STEOM-CC
   Nicolas Foglia         : Exact transition moments, OPA infrastructure, MCD improvements
   Dmitry Ganyushin       : Spin-Orbit,Spin-Spin,Magnetic field MRCI
   Miquel Garcia          : C-PCM and meta-GGA Hessian, CCSD/C-PCM, Gaussian charge scheme
   Tiago L. C. Gouveia    : GS-ROHF, GS-ROCIS
   Yang Guo               : DLPNO-NEVPT2, F12-NEVPT2, CIM, IAO-localization
   Andreas Hansen         : Spin unrestricted coupled pair/coupled cluster methods
   Ingolf Harden          : AUTO-CI MPn and infrastructure 
   Benjamin Helmich-Paris : MC-RPA, TRAH-(SCF,CASSCF), AVAS, COSX integrals, SCF dyn. polar.
   Lee Huntington         : MR-EOM, pCC
   Robert Izsak           : Overlap fitted RIJCOSX, COSX-SCS-MP3, EOM
   Riya Kayal             : Wick's Theorem for AUTO-CI, AUTO-CI UHF-CCSDT
   Emily Kempfer          : AUTO-CI, RHF CISDT and CCSDT
   Christian Kollmar      : KDIIS, OOCD, Brueckner-CCSD(T), CCSD density, CASPT2, CASPT2-K, improved NEVPT2
   Axel Koslowski         : Symmetry handling
   Simone Kossmann        : Meta GGA functionals, TD-DFT gradient, OOMP2, (MP2 Hessian; deprecated post 5.0)
   Lucas Lang             : DCDCAS
   Marvin Lechner         : AUTO-CI (C++ implementation), FIC-MRCC
   Spencer Leger          : CASSCF response
   Dagmar Lenk            : GEPOL surface, SMD, ORCA-2-JSON
   Dimitrios Liakos       : Extrapolation schemes; Compound Job, initial MDCI parallelization
   Dimitrios Manganas     : Further ROCIS development; embedding schemes. LFT, Crystal Embedding
   Dimitrios Pantazis     : SARC Basis sets
   Anastasios Papadopoulos: AUTO-CI, single reference methods and gradients
   Taras Petrenko         : pre 6.0 DFT Hessian and TD-DFT gradient, (ASA, deprecated), ECA, 1-Electron XAS/XES, NRVS
   Peter Pinski           : DLPNO-MP2, DLPNO-MP2 Gradient
   Christoph Reimann      : Effective Core Potentials
   Marius Retegan         : Local ZFS, SOC
   Christoph Riplinger    : Optimizer, TS searches, QM/MM, DLPNO-CCSD(T), (RO)-DLPNO pert. Triples
   Michael Roemelt        : Original ROCIS implementation
   Masaaki Saitow         : Open-shell DLPNO-CCSD energy and density
   Barbara Sandhoefer     : DKH picture change effects
   Kantharuban Sivalingam : CASSCF convergence/infrastructure, NEVPT2 and variants, FIC-MRCI
   Bernardo de Souza      : ESD, SOC TD-DFT
   Georgi Stoychev        : AutoAux, RI-MP2 NMR, DLPNO-MP2 response, X2C
   Van Anh Tran           : RI-MP2 g-tensors
   Willem Van den Heuvel  : Paramagnetic NMR
   Zikuan Wang            : NOTCH, Electric field optimization 
   Frank Wennmohs         : Technical directorship and infrastructure
   Hang Xu                : AUTO-CI-Response properties 


 We gratefully acknowledge several colleagues who have allowed us to
 interface, adapt or use parts of their codes:
   Stefan Grimme, W. Hujo, H. Kruse, P. Pracht,  : VdW corrections, initial TS optimization,
                  C. Bannwarth, S. Ehlert,         DFT functionals, gCP, sTDA/sTD-DF
                  L. Wittmann, M. Mueller
   Ed Valeev, F. Pavosevic, A. Kumar             : LibInt (2-el integral package), F12 methods
   Garnet Chan, S. Sharma, J. Yang, R. Olivares  : DMRG
   Ulf Ekstrom                                   : XCFun DFT Library
   Mihaly Kallay                                 : mrcc  (arbitrary order and MRCC methods)
   Frank Weinhold                                : gennbo (NPA and NBO analysis)
   Simon Mueller                                 : openCOSMO-RS
   Christopher J. Cramer and Donald G. Truhlar   : smd solvation model
   Lars Goerigk                                  : TD-DFT with DH, B97 family of functionals
   V. Asgeirsson, H. Jonsson                     : NEB implementation
   FAccTs GmbH                                   : IRC, NEB, NEB-TS, DLPNO-Multilevel, CI-OPT
                                                   MM, QMMM, 2- and 3-layer-ONIOM, Crystal-QMMM,
                                                   LR-CPCM, SF, NACMEs, symmetry and pop. for TD-DFT,
                                                   nearIR, NL-DFT gradient (VV10), updates on ESD,
                                                   ML-optimized integration grids, MBIS, APM,
                                                   GOAT, DOCKER, SOLVATOR, interface openCOSMO-RS
   S Lehtola, MJT Oliveira, MAL Marques          : LibXC Library
   Liviu Ungur et al                             : ANISO software


 Your calculation uses the libint2 library for the computation of 2-el integrals
 For citations please refer to: http://libint.valeyev.net

 Your ORCA version has been built with support for libXC version: 6.2.2
 For citations please refer to: https://libxc.gitlab.io

 This ORCA versions uses:
   CBLAS   interface :  Fast vector & matrix operations
   LAPACKE interface :  Fast linear algebra routines
   SCALAPACK package :  Parallel linear algebra routines
   Shared memory     :  Shared parallel matrices
   BLAS/LAPACK       :  OpenBLAS 0.3.27  USE64BITINT DYNAMIC_ARCH NO_AFFINITY SkylakeX SINGLE_THREADED
        Core in use  :  SkylakeX
   Copyright (c) 2011-2014, The OpenBLAS Project


Your calculation utilizes the geometrical counterpoise correction gCP
Please cite in your paper:
H.Kruse, S. Grimme J.Chem.Phys., 136, (2012), 154101 
   

Your calculation utilizes the DFT-NL dispersion correction.
Cite in your paper:
Vydrov, O. A.; Van Voorhis, T. J. Chem. Phys. 2010, 133, 244103
Hujo, W.; Grimme, S. J. Chem. Theory Comput. 2011, 7, 3866 
   

================================================================================

----- Orbital basis set information -----
Your calculation utilizes the basis: def2-TZVP
   F. Weigend and R. Ahlrichs, Phys. Chem. Chem. Phys. 7, 3297 (2005).

----- AuxJ basis set information -----
Your calculation utilizes the auxiliary basis: def2/J
   F. Weigend, Phys. Chem. Chem. Phys. 8, 1057 (2006).

================================================================================
                                        WARNINGS
                       Please study these warnings very carefully!
================================================================================


================================================================================
                                       INPUT FILE
================================================================================
NAME = sp_gas.inp
|  1> ! wb97x-v def2-tzvp def2/J RIJCOSX DEFGRID2 scfconv7 GCP(DFT/TZ) printgap
|  2> %output
|  3>     printlevel normal
|  4> end
|  5> * xyz 0 1
|  6> C -0.7331347380038419 -1.2015327180844868 -0.23016714185540138
|  7> C 0.7175164397369702 -1.1795878029178495 0.2183999988402554
|  8> O 1.3891941365135265 0.001452420730599277 -0.2568613716205684
|  9> C 0.715073613670245 1.1810906737243596 0.21841217534032598
| 10> C -0.7356279771499421 1.2000162386686317 -0.23014725663937788
| 11> N -1.4830575512549495 -0.0015417881620460351 0.192761710532016
| 12> H -1.221447390383491 -2.0964211754782873 0.17057866505212985
| 13> H -0.7729232560954694 -1.2647432589198582 -1.3248606278561403
| 14> H 0.7741308077338461 -1.2109656678499674 1.3194179178494043
| 15> H 1.2696599690509986 -2.03387999932593 -0.18644227815602724
| 16> H 0.7716383063397307 1.2125919092254076 1.3194290876654775
| 17> H 1.2654286601415012 2.036533784264578 -0.18643594051037124
| 18> H -1.2258089693814813 2.0938768808010444 0.17061046089144252
| 19> H -0.7755496060090409 1.2631542173621602 -1.3248398699975432
| 20> H -1.4806599795878106 -0.0015481603972116375 1.212392087575316
| 21> *
| 22> 
| 23>                          ****END OF INPUT****
================================================================================

                       ****************************
                       * Single Point Calculation *
                       ****************************

---------------------------------
CARTESIAN COORDINATES (ANGSTROEM)
---------------------------------
  C     -0.733135   -1.201533   -0.230167
  C      0.717516   -1.179588    0.218400
  O      1.389194    0.001452   -0.256861
  C      0.715074    1.181091    0.218412
  C     -0.735628    1.200016   -0.230147
  N     -1.483058   -0.001542    0.192762
  H     -1.221447   -2.096421    0.170579
  H     -0.772923   -1.264743   -1.324861
  H      0.774131   -1.210966    1.319418
  H      1.269660   -2.033880   -0.186442
  H      0.771638    1.212592    1.319429
  H      1.265429    2.036534   -0.186436
  H     -1.225809    2.093877    0.170610
  H     -0.775550    1.263154   -1.324840
  H     -1.480660   -0.001548    1.212392

----------------------------
CARTESIAN COORDINATES (A.U.)
----------------------------
  NO LB      ZA    FRAG     MASS         X           Y           Z
   0 C     6.0000    0    12.011   -1.385424   -2.270568   -0.434953
   1 C     6.0000    0    12.011    1.355910   -2.229098    0.412716
   2 O     8.0000    0    15.999    2.625196    0.002745   -0.485398
   3 C     6.0000    0    12.011    1.351293    2.231938    0.412739
   4 C     6.0000    0    12.011   -1.390135    2.267702   -0.434915
   5 N     7.0000    0    14.007   -2.802573   -0.002914    0.364267
   6 H     1.0000    0     1.008   -2.308201   -3.961662    0.322347
   7 H     1.0000    0     1.008   -1.460613   -2.390018   -2.503624
   8 H     1.0000    0     1.008    1.462895   -2.288393    2.493339
   9 H     1.0000    0     1.008    2.399310   -3.843476   -0.352325
  10 H     1.0000    0     1.008    1.458185    2.291467    2.493360
  11 H     1.0000    0     1.008    2.391314    3.848491   -0.352313
  12 H     1.0000    0     1.008   -2.316443    3.956854    0.322407
  13 H     1.0000    0     1.008   -1.465576    2.387016   -2.503585
  14 H     1.0000    0     1.008   -2.798042   -0.002926    2.291089

--------------------------------
INTERNAL COORDINATES (ANGSTROEM)
--------------------------------
 C      0   0   0     0.000000000000     0.00000000     0.00000000
 C      1   0   0     1.518579236818     0.00000000     0.00000000
 O      2   1   0     1.439402761035   111.10571031     0.00000000
 C      3   2   1     1.439399121747   110.17391312    58.14245100
 C      4   3   2     1.518584487816   111.10522244   301.85828114
 N      1   2   3     1.476899208447   112.87526544   303.55870426
 H      1   2   3     1.095386598149   109.24381318   181.57262275
 H      1   2   3     1.097238591619   109.27932147    64.13843169
 H      2   1   3     1.102918952168   110.09032231   121.10995166
 H      2   1   3     1.094794456988   111.17815117   241.66279861
 H      4   3   2     1.102918915207   109.20855039    63.48544214
 H      4   3   2     1.094794770473   106.42908537   180.69138210
 H      5   4   3     1.095386233645   109.24416417   178.42676103
 H      5   4   3     1.097238378177   109.27903938   295.86118003
 H      6   1   2     1.019633195899   106.56858410   297.55212481

---------------------------
INTERNAL COORDINATES (A.U.)
---------------------------
 C      0   0   0     0.000000000000     0.00000000     0.00000000
 C      1   0   0     2.869698870245     0.00000000     0.00000000
 O      2   1   0     2.720077014766   111.10571031     0.00000000
 C      3   2   1     2.720070137508   110.17391312    58.14245100
 C      4   3   2     2.869708793193   111.10522244   301.85828114
 N      1   2   3     2.790935031371   112.87526544   303.55870426
 H      1   2   3     2.069980681269   109.24381318   181.57262275
 H      1   2   3     2.073480441729   109.27932147    64.13843169
 H      2   1   3     2.084214767508   110.09032231   121.10995166
 H      2   1   3     2.068861696641   111.17815117   241.66279861
 H      4   3   2     2.084214697662   109.20855039    63.48544214
 H      4   3   2     2.068862289043   106.42908537   180.69138210
 H      5   4   3     2.069979992457   109.24416417   178.42676103
 H      5   4   3     2.073480038383   109.27903938   295.86118003
 H      6   1   2     1.926827497305   106.56858410   297.55212481

---------------------
BASIS SET INFORMATION
---------------------
There are 4 groups of distinct atoms

 Group   1 Type C   : 11s6p2d1f contracted to 5s3p2d1f pattern {62111/411/11/1}
 Group   2 Type O   : 11s6p2d1f contracted to 5s3p2d1f pattern {62111/411/11/1}
 Group   3 Type N   : 11s6p2d1f contracted to 5s3p2d1f pattern {62111/411/11/1}
 Group   4 Type H   : 5s1p contracted to 3s1p pattern {311/1}

Atom   0C    basis set group =>   1
Atom   1C    basis set group =>   1
Atom   2O    basis set group =>   2
Atom   3C    basis set group =>   1
Atom   4C    basis set group =>   1
Atom   5N    basis set group =>   3
Atom   6H    basis set group =>   4
Atom   7H    basis set group =>   4
Atom   8H    basis set group =>   4
Atom   9H    basis set group =>   4
Atom  10H    basis set group =>   4
Atom  11H    basis set group =>   4
Atom  12H    basis set group =>   4
Atom  13H    basis set group =>   4
Atom  14H    basis set group =>   4
---------------------------------
AUXILIARY/J BASIS SET INFORMATION
---------------------------------
There are 4 groups of distinct atoms

 Group   1 Type C   : 12s5p4d2f1g contracted to 6s4p3d1f1g pattern {711111/2111/211/2/1}
 Group   2 Type O   : 12s5p4d2f1g contracted to 6s4p3d1f1g pattern {711111/2111/211/2/1}
 Group   3 Type N   : 12s5p4d2f1g contracted to 6s4p3d1f1g pattern {711111/2111/211/2/1}
 Group   4 Type H   : 5s2p1d contracted to 3s1p1d pattern {311/2/1}

Atom   0C    basis set group =>   1
Atom   1C    basis set group =>   1
Atom   2O    basis set group =>   2
Atom   3C    basis set group =>   1
Atom   4C    basis set group =>   1
Atom   5N    basis set group =>   3
Atom   6H    basis set group =>   4
Atom   7H    basis set group =>   4
Atom   8H    basis set group =>   4
Atom   9H    basis set group =>   4
Atom  10H    basis set group =>   4
Atom  11H    basis set group =>   4
Atom  12H    basis set group =>   4
Atom  13H    basis set group =>   4
Atom  14H    basis set group =>   4

Checking for AutoStart:
The File: sp_gas.gbw exists
Trying to determine its content:
     ... Fine, the file contains calculation information
     ... Fine, the calculation information was read
     ... Fine, the file contains a basis set
     ... Fine, the basis set was read
     ... Fine, the file contains a geometry
     ... Fine, the geometry was read
     ... Fine, the file contains a set of orbitals
     ... Fine, the orbitals can be read
     => possible old guess file was deleted
     => GBW file was renamed to GES file
     => GES file is set as startup file
     => Guess is set to MORead
     ... now leaving AutoStart

------------------------------------------------------------------------------
                             ORCA STARTUP CALCULATIONS
                           -- RI-GTO INTEGRALS CHOSEN --
------------------------------------------------------------------------------
------------------------------------------------------------------------------
                   ___                                                        
                  /   \      - P O W E R E D   B Y -                         
                 /     \                                                     
                 |  |  |   _    _      __       _____    __    __             
                 |  |  |  | |  | |    /  \     |  _  \  |  |  /  |          
                  \  \/   | |  | |   /    \    | | | |  |  | /  /          
                 / \  \   | |__| |  /  /\  \   | |_| |  |  |/  /          
                |  |  |   |  __  | /  /__\  \  |    /   |      \           
                |  |  |   | |  | | |   __   |  |    \   |  |\   \          
                \     /   | |  | | |  |  |  |  | |\  \  |  | \   \       
                 \___/    |_|  |_| |__|  |__|  |_| \__\ |__|  \__/        
                                                                              
                      - O R C A' S   B I G   F R I E N D -                    
                                      &                                       
                       - I N T E G R A L  F E E D E R -                       
                                                                              
 v1 FN, 2020, v2 2021, v3 2022-2024                                           
------------------------------------------------------------------------------


----------------------
SHARK INTEGRAL PACKAGE
----------------------

Number of atoms                             ...     15
Number of basis functions                   ...    240
Number of shells                            ...    102
Maximum angular momentum                    ...      3
Integral batch strategy                     ... SHARK/LIBINT Hybrid
RI-J (if used) integral strategy            ... SPLIT-RIJ (Revised 2003 algorithm where possible)
Printlevel                                  ...      1
Contraction scheme used                     ... SEGMENTED contraction
Prescreening option                         ... SCHWARTZ
   Thresh                                   ... 3.000e-11
   Tcut                                     ... 1.000e-12
   Tpresel                                  ... 1.000e-12 
Coulomb Range Separation                    ... NOT USED
Exchange Range Separation                   ... Long Range
   Mu parameter                             ... 3.000e-01
   Scaling (regular/separated)              ... 1.670e-01 8.330e-01
Multipole approximations                    ... NOT USED
Finite Nucleus Model                        ... NOT USED
CABS basis                                  ... NOT available
Auxiliary Coulomb fitting basis             ... AVAILABLE
   # of basis functions in Aux-J            ...    393
   # of shells in Aux-J                     ...    135
   Maximum angular momentum in Aux-J        ...      4
Auxiliary J/K fitting basis                 ... NOT available
Auxiliary Correlation fitting basis         ... NOT available
Auxiliary 'external' fitting basis          ... NOT available

Checking pre-screening integrals            ... done (  0.0 sec) Dimension = 102
Check shell pair data                       ... done (  0.0 sec)
Shell pair information
Shell pair cut-off parameter TPreSel        ...   1.0e-12
Total number of shell pairs                 ...      5253
Shell pairs after pre-screening             ...      5106
Total number of primitive shell pairs       ...     15384
Primitive shell pairs kept                  ...     11867
          la=0 lb=0:   1550 shell pairs
          la=1 lb=0:   1508 shell pairs
          la=1 lb=1:    376 shell pairs
          la=2 lb=0:    674 shell pairs
          la=2 lb=1:    324 shell pairs
          la=2 lb=2:     78 shell pairs
          la=3 lb=0:    341 shell pairs
          la=3 lb=1:    162 shell pairs
          la=3 lb=2:     72 shell pairs
          la=3 lb=3:     21 shell pairs

Calculating one electron integrals          ... done (  0.0 sec)
Calculating RI/J V-Matrix + Cholesky decomp.... done (  0.1 sec)
Calculating Nuclear repulsion               ... done (  0.0 sec) ENN=    262.290843603696 Eh

Diagonalization of the overlap matrix:
Smallest eigenvalue                        ... 1.257e-04
Time for diagonalization                   ...    0.006 sec
Threshold for overlap eigenvalues          ... 1.000e-07
Number of eigenvalues below threshold      ... 0
Time for construction of square roots      ...    0.015 sec
Total time needed                          ...    0.029 sec

-------------------
DFT GRID GENERATION
-------------------

General Integration Accuracy     IntAcc      ... 4.388
Radial Grid Type                 RadialGrid  ... OptM3 with GC (2021)
Angular Grid (max. ang.)         AngularGrid ... 4 (Lebedev-302)
Angular grid pruning method      GridPruning ... 4 (adaptive)
Weight generation scheme         WeightScheme... mBecke (2022)
Basis function cutoff            BFCut       ... 1.0000e-11
Integration weight cutoff        WCut        ... 1.0000e-14
Partially contracted basis set               ... off
Rotationally invariant grid construction     ... off
Angular grids for H and He will be reduced by one unit

Total number of grid points                  ...    64934
Total number of batches                      ...     1022
Average number of points per batch           ...       63
Average number of grid points per atom       ...     4329

--------------------
COSX GRID GENERATION
--------------------

GRIDX 1
-------
General Integration Accuracy     IntAcc      ... 3.816
Radial Grid Type                 RadialGrid  ... OptM3 with GC (2021)
Angular Grid (max. ang.)         AngularGrid ... 1 (Lebedev-50)
Angular grid pruning method      GridPruning ... 4 (adaptive)
Weight generation scheme         WeightScheme... mBecke (2022)
Basis function cutoff            BFCut       ... 1.0000e-11
Integration weight cutoff        WCut        ... 1.0000e-14
Partially contracted basis set               ... on
Rotationally invariant grid construction     ... off
Angular grids for H and He will be reduced by one unit

Total number of grid points                  ...     8322
Total number of batches                      ...       78
Average number of points per batch           ...      106
Average number of grid points per atom       ...      555
UseSFitting                                  ... on

GRIDX 2
-------
General Integration Accuracy     IntAcc      ... 4.020
Radial Grid Type                 RadialGrid  ... OptM3 with GC (2021)
Angular Grid (max. ang.)         AngularGrid ... 2 (Lebedev-110)
Angular grid pruning method      GridPruning ... 4 (adaptive)
Weight generation scheme         WeightScheme... mBecke (2022)
Basis function cutoff            BFCut       ... 1.0000e-11
Integration weight cutoff        WCut        ... 1.0000e-14
Partially contracted basis set               ... on
Rotationally invariant grid construction     ... off
Angular grids for H and He will be reduced by one unit

Total number of grid points                  ...    17581
Total number of batches                      ...      146
Average number of points per batch           ...      120
Average number of grid points per atom       ...     1172
UseSFitting                                  ... on

GRIDX 3
-------
General Integration Accuracy     IntAcc      ... 4.338
Radial Grid Type                 RadialGrid  ... OptM3 with GC (2021)
Angular Grid (max. ang.)         AngularGrid ... 3 (Lebedev-194)
Angular grid pruning method      GridPruning ... 4 (adaptive)
Weight generation scheme         WeightScheme... mBecke (2022)
Basis function cutoff            BFCut       ... 1.0000e-11
Integration weight cutoff        WCut        ... 1.0000e-14
Partially contracted basis set               ... on
Rotationally invariant grid construction     ... off
Angular grids for H and He will be reduced by one unit

Total number of grid points                  ...    38505
Total number of batches                      ...      311
Average number of points per batch           ...      123
Average number of grid points per atom       ...     2567
UseSFitting                                  ... on
Initializing property integral containers    ... done (  0.0 sec)

SHARK setup successfully completed in   1.8 seconds

Maximum memory used throughout the entire STARTUP-calculation: 36.0 MB
-------------------------------------------------------------------------------
                                 ORCA GUESS
                   Start orbitals & Density for SCF / CASSCF
-------------------------------------------------------------------------------

------------
SCF SETTINGS
------------
Hamiltonian:
 Density Functional     Method          .... DFT(GTOs)
 Exchange Functional    Exchange        .... WB97X-V
 Correlation Functional Correlation     .... WB97X-V
 Gradients option       PostSCFGGA      .... off
 Hybrid DFT is turned on
   Fraction HF Exchange ScalHFX         ....  0.167000
   Scaling of DF-GGA-X  ScalDFX         ....  0.000000
   Scaling of DF-GGA-C  ScalDFC         ....  1.000000
   Scaling of DF-LDA-C  ScalLDAC        ....  1.000000
   Perturbative correction              ....  0.000000
 Long-range corrected/Screened/Range-Separated Hybrid DFT is turned on
   Amount of maximum screened exact exchange              ....  0.833000
   Range separation parameter mu (erf(mu*r12)/r12)        ....  0.300000
   NL short-range parameter             ....  6.000000
   NL long-range parameter              ....  0.010000
 RI-approximation to the Coulomb term is turned on
   Number of AuxJ basis functions       .... 393
   RIJ-COSX (HFX calculated with COS-X)).... on


General Settings:
 Integral files         IntName         .... sp_gas
 Hartree-Fock type      HFTyp           .... RHF
 Total Charge           Charge          ....    0
 Multiplicity           Mult            ....    1
 Number of Electrons    NEL             ....   48
 Basis Dimension        Dim             ....  240
 Nuclear Repulsion      ENuc            ....    262.2908436037 Eh

Convergence Acceleration:
 AO-DIIS                CNVDIIS         .... on
   Start iteration      DIISMaxIt       ....    12
   Startup error        DIISStart       ....  0.200000
   # of expansion vecs  DIISMaxEq       ....     5
   Bias factor          DIISBfac        ....   1.050
   Max. coefficient     DIISMaxC        ....  10.000
 MO-DIIS                CNVKDIIS        .... off
 Trust-Rad. Augm. Hess. CNVTRAH         .... auto
   Auto Start mean grad. ratio tolernc. ....  1.125000
   Auto Start start iteration           ....     1
   Auto Start num. interpolation iter.  ....    10
   Max. Number of Micro iterations      ....    24
   Max. Number of Macro iterations      .... Maxiter - #DIIS iter
   Number of Davidson start vectors     ....     2
   Converg. threshold    (grad. norm)   ....   1.000e-04
   Grad. Scal. Fac. for Micro threshold ....   0.100
   Minimum threshold for Micro iter.    ....   1.000e-02
   NR start threshold (gradient norm)   ....   1.000e-04
   Initial trust radius                 ....   0.400
   Minimum AH scaling param. (alpha)    ....   1.000
   Maximum AH scaling param. (alpha)    .... 1000.000
   Quad. conv. algorithm                .... NR
   White noise on init. David. guess    .... on
   Maximum white noise                  ....   0.010
   Pseudo random numbers                .... off
   Inactive MOs                         .... canonical
   Orbital update algorithm             .... Taylor
   Preconditioner                       .... Diag
   Full preconditioner red. dimension   ....   250
 SOSCF                  CNVSOSCF        .... on
   Start iteration      SOSCFMaxIt      ....   150
   Startup grad/error   SOSCFStart      ....  0.003300
   Hessian update       SOSCFHessUp     .... L-BFGS
 Level Shifting         CNVShift        .... on
   Level shift para.    LevelShift      ....    0.2500
   Turn off err/grad.   ShiftErr        ....    0.0010
 Zerner damping         CNVZerner       .... off
 Static damping         CNVDamp         .... on
   Fraction old density DampFac         ....    0.7000
   Max. Damping (<1)    DampMax         ....    0.9800
   Min. Damping (>=0)   DampMin         ....    0.0000
   Turn off err/grad.   DampErr         ....    0.1000

SCF Procedure:
 Maximum # iterations   MaxIter         ....   125
 SCF integral mode      SCFMode         .... Direct
   Integral package                     .... SHARK and LIBINT hybrid scheme
 Reset frequency        DirectResetFreq ....    20
 Integral Threshold     Thresh          ....  3.000e-11 Eh
 Primitive CutOff       TCut            ....  1.000e-12 Eh

Convergence Tolerance:
 Convergence Check Mode ConvCheckMode   .... Total+1el-Energy
 Convergence forced     ConvForced      .... 0
 Energy Change          TolE            ....  1.000e-07 Eh
 1-El. energy change                    ....  1.000e-04 Eh
 Orbital Gradient       TolG            ....  1.000e-04
 Orbital Rotation angle TolX            ....  1.000e-04
 DIIS Error             TolErr          ....  1.000e-07

---------------------
INITIAL GUESS: MOREAD
---------------------
Guess MOs are being read from file: sp_gas.ges
Input Geometry matches current geometry (good)
Atom 0: N(Shells)= 11 and 9 - projection required
Input basis set needs projection
NBasis(read)= 169
NBasis(calc)= 240
Basis set overlap was calculated
Using GuessMode=FMatrix for the initial guess
C*T matrix was formed
Effective Fockian was calculated
Effective Fockian was diagonalized
Initial density was built
                      ------------------
                      INITIAL GUESS DONE (   0.0 sec)
                      ------------------
             **** ENERGY FILE WAS UPDATED (sp_gas.en.tmp) ****
Finished Guess after   0.3 sec
Maximum memory used throughout the entire GUESS-calculation: 20.1 MB

-------------------------------------------------------------------------------------------
                                      ORCA LEAN-SCF
                              memory conserving SCF solver
-------------------------------------------------------------------------------------------

----------------------------------------D-I-I-S--------------------------------------------
Iteration    Energy (Eh)           Delta-E    RMSDP     MaxDP     DIISErr   Damp  Time(sec)
-------------------------------------------------------------------------------------------
               ***  Starting incremental Fock matrix formation  ***
    1    -287.9881351523586659     0.00e+00  1.04e-03  2.38e-02  4.82e-02  0.700  12.1
    2    -287.9928728996675886    -4.74e-03  9.16e-04  2.16e-02  3.40e-02  0.700   6.4
                               ***Turning on AO-DIIS***
    3    -287.9963838588232079    -3.51e-03  7.62e-04  1.77e-02  2.38e-02  0.700   6.0
    4    -287.9989338662726936    -2.55e-03  1.94e-03  4.43e-02  1.61e-02  0.000   5.8
                              *** Initializing SOSCF ***
---------------------------------------S-O-S-C-F--------------------------------------
Iteration    Energy (Eh)           Delta-E    RMSDP     MaxDP     MaxGrad    Time(sec)
--------------------------------------------------------------------------------------
    5    -288.0054414743668190    -6.51e-03  1.27e-04  2.43e-03  1.24e-03     6.1
               *** Restarting incremental Fock matrix formation ***
    6    -288.0054639696604113    -2.25e-05  7.53e-05  1.74e-03  2.76e-04    11.7
    7    -288.0054675778773685    -3.61e-06  4.11e-05  8.83e-04  2.02e-04     9.2
    8    -288.0054692153416340    -1.64e-06  1.01e-05  2.39e-04  3.24e-05     8.6
    9    -288.0054692829946248    -6.77e-08  2.38e-06  5.04e-05  1.31e-05     7.9
                 **** Energy Check signals convergence ****

               *****************************************************
               *                     SUCCESS                       *
               *           SCF CONVERGED AFTER   9 CYCLES          *
               *****************************************************


------------------
NL GRID GENERATION
------------------

General Integration Accuracy     IntAcc      ... 4.004
Radial Grid Type                 RadialGrid  ... OptM3 with GC (2021)
Angular Grid (max. ang.)         AngularGrid ... 2 (Lebedev-110)
Angular grid pruning method      GridPruning ... 4 (adaptive)
Weight generation scheme         WeightScheme... mBecke (2022)
Basis function cutoff            BFCut       ... 1.0000e-10
Integration weight cutoff        WCut        ... 1.0000e-14
Partially contracted basis set               ... off
Rotationally invariant grid construction     ... off
Angular grids for H and He will be reduced by one unit

Total number of grid points                  ...    19716
Total number of batches                      ...      316
Average number of points per batch           ...       62
Average number of grid points per atom       ...     1314
Final grid set up in    0.2 sec

-------------------------------------------------------------------------------
                    post-SCF DFT-NL dispersion correction                      
-------------------------------------------------------------------------------

SCF Energy:     -288.005469283 
NL    Energy:      0.182665885 
SC+NL Energy:   -287.822803398 
NL done in  :              1.6 sec
-------------------------------------------------------------------------------
Recomputing exchange energy using gridx3       ... done (   20.363 sec)
Old exchange energy                            :    -12.751021149 Eh
New exchange energy                            :    -12.751009900 Eh
Exchange energy change after final integration :      0.000011249 Eh
Total energy after final integration           :   -287.822792150 Eh
             **** ENERGY FILE WAS UPDATED (sp_gas.en.tmp) ****

----------------
TOTAL SCF ENERGY
----------------

Total Energy       :       -287.82279214958049 Eh           -7832.05635 eV

Components:
Nuclear Repulsion  :        262.29084360369603 Eh            7137.29671 eV
Electronic Energy  :       -550.29631288669066 Eh          -14974.32395 eV
One Electron Energy:       -909.43839484353009 Eh          -24747.07684 eV
Two Electron Energy:        359.14208195683949 Eh            9772.75289 eV

Virial components:
Potential Energy   :       -574.41519607345936 Eh          -15630.63213 eV
Kinetic Energy     :        286.59240392387892 Eh            7798.57578 eV
Virial Ratio       :          2.00429316412039

DFT components:
N(Alpha)           :       24.000037688184 electrons
N(Beta)            :       24.000037688184 electrons
N(Total)           :       48.000075376367 electrons
E(X)               :      -26.024891990964 Eh       
E(C)               :       -1.978403100952 Eh       
NL Energy, E(C,NL) :        0.182665884607 Eh       
E(XC)              :      -27.820629207308 Eh       

---------------
SCF CONVERGENCE
---------------

  Last Energy change         ...    6.7653e-08  Tolerance :   1.0000e-07
  Last MAX-Density change    ...    5.0398e-05  Tolerance :   1.0000e-05
  Last RMS-Density change    ...    2.3779e-06  Tolerance :   1.0000e-06
  Last DIIS Error            ...    1.2408e-03  Tolerance :   1.0000e-07
  Last Orbital Gradient      ...    1.3056e-05  Tolerance :   1.0000e-04
  Last Orbital Rotation      ...    1.7290e-05  Tolerance :   1.0000e-04


----------------
ORBITAL ENERGIES
----------------

  NO   OCC          E(Eh)            E(eV) 
   0   2.0000     -21.673028      -589.7531 
   1   2.0000     -16.517756      -449.4710 
   2   2.0000     -12.091282      -329.0205 
   3   2.0000     -12.091145      -329.0168 
   4   2.0000     -12.069428      -328.4258 
   5   2.0000     -12.069263      -328.4213 
   6   2.0000      -1.675225       -45.5852 
   7   2.0000      -1.471248       -40.0347 
   8   2.0000      -1.294048       -35.2128 
   9   2.0000      -1.208910       -32.8961 
  10   2.0000      -1.169581       -31.8259 
  11   2.0000      -1.072978       -29.1972 
  12   2.0000      -0.985062       -26.8049 
  13   2.0000      -0.982206       -26.7272 
  14   2.0000      -0.959516       -26.1098 
  15   2.0000      -0.928238       -25.2586 
  16   2.0000      -0.915707       -24.9176 
  17   2.0000      -0.875525       -23.8243 
  18   2.0000      -0.842881       -22.9360 
  19   2.0000      -0.821965       -22.3668 
  20   2.0000      -0.815319       -22.1860 
  21   2.0000      -0.796930       -21.6856 
  22   2.0000      -0.773301       -21.0426 
  23   2.0000      -0.721911       -19.6442 
  24   0.0000      -0.175337        -4.7712 
  25   0.0000      -0.113949        -3.1007 
  26   0.0000      -0.075932        -2.0662 
  27   0.0000      -0.054670        -1.4876 
  28   0.0000      -0.042309        -1.1513 
  29   0.0000      -0.003437        -0.0935 
  30   0.0000       0.009685         0.2635 
  31   0.0000       0.015687         0.4269 
  32   0.0000       0.026633         0.7247 
  33   0.0000       0.030118         0.8196 
  34   0.0000       0.040084         1.0907 
*Only the first 10 virtual orbitals were printed.

                    ********************************
                    * MULLIKEN POPULATION ANALYSIS *
                    ********************************

-----------------------
MULLIKEN ATOMIC CHARGES
-----------------------
   0 C :   -0.123531
   1 C :   -0.059309
   2 O :   -0.300327
   3 C :   -0.059318
   4 C :   -0.123516
   5 N :   -0.290252
   6 H :    0.109253
   7 H :    0.094776
   8 H :    0.079182
   9 H :    0.106425
  10 H :    0.079184
  11 H :    0.106422
  12 H :    0.109255
  13 H :    0.094768
  14 H :    0.176988
Sum of atomic charges:    0.0000000

--------------------------------
MULLIKEN REDUCED ORBITAL CHARGES
--------------------------------
  0 C s       :     3.174683  s :     3.174683
      pz      :     1.027215  p :     2.828423
      px      :     0.900222
      py      :     0.900986
      dz2     :     0.026185  d :     0.112938
      dxz     :     0.015234
      dyz     :     0.013719
      dx2y2   :     0.025838
      dxy     :     0.031961
      f0      :     0.001084  f :     0.007487
      f+1     :     0.000784
      f-1     :     0.000687
      f+2     :     0.000908
      f-2     :     0.000674
      f+3     :     0.001453
      f-3     :     0.001897

  1 C s       :     3.185938  s :     3.185938
      pz      :     0.982332  p :     2.733756
      px      :     0.915770
      py      :     0.835655
      dz2     :     0.031343  d :     0.130050
      dxz     :     0.015541
      dyz     :     0.020992
      dx2y2   :     0.024333
      dxy     :     0.037840
      f0      :     0.001343  f :     0.009565
      f+1     :     0.000934
      f-1     :     0.001191
      f+2     :     0.001194
      f-2     :     0.001038
      f+3     :     0.001611
      f-3     :     0.002254

  2 O s       :     3.759747  s :     3.759747
      pz      :     1.712869  p :     4.501103
      px      :     1.621393
      py      :     1.166842
      dz2     :     0.004549  d :     0.037680
      dxz     :     0.004703
      dyz     :     0.008860
      dx2y2   :     0.006391
      dxy     :     0.013178
      f0      :     0.000233  f :     0.001797
      f+1     :     0.000112
      f-1     :     0.000313
      f+2     :     0.000140
      f-2     :     0.000341
      f+3     :     0.000346
      f-3     :     0.000313

  3 C s       :     3.185970  s :     3.185970
      pz      :     0.982330  p :     2.733734
      px      :     0.915163
      py      :     0.836241
      dz2     :     0.031343  d :     0.130048
      dxz     :     0.015576
      dyz     :     0.020958
      dx2y2   :     0.024396
      dxy     :     0.037775
      f0      :     0.001343  f :     0.009565
      f+1     :     0.000937
      f-1     :     0.001188
      f+2     :     0.001192
      f-2     :     0.001041
      f+3     :     0.001610
      f-3     :     0.002255

  4 C s       :     3.174664  s :     3.174664
      pz      :     1.027213  p :     2.828428
      px      :     0.900578
      py      :     0.900637
      dz2     :     0.026185  d :     0.112938
      dxz     :     0.015212
      dyz     :     0.013741
      dx2y2   :     0.025747
      dxy     :     0.032052
      f0      :     0.001084  f :     0.007487
      f+1     :     0.000782
      f-1     :     0.000689
      f+2     :     0.000910
      f-2     :     0.000672
      f+3     :     0.001454
      f-3     :     0.001896

  5 N s       :     3.475489  s :     3.475489
      pz      :     1.127024  p :     3.749579
      px      :     1.579963
      py      :     1.042592
      dz2     :     0.018205  d :     0.062229
      dxz     :     0.004398
      dyz     :     0.008460
      dx2y2   :     0.011360
      dxy     :     0.019805
      f0      :     0.000623  f :     0.002954
      f+1     :     0.000139
      f-1     :     0.000282
      f+2     :     0.000149
      f-2     :     0.000505
      f+3     :     0.000642
      f-3     :     0.000615

  6 H s       :     0.870062  s :     0.870062
      pz      :     0.004821  p :     0.020684
      px      :     0.005919
      py      :     0.009944

  7 H s       :     0.884403  s :     0.884403
      pz      :     0.013435  p :     0.020820
      px      :     0.003782
      py      :     0.003604

  8 H s       :     0.900969  s :     0.900969
      pz      :     0.013165  p :     0.019849
      px      :     0.003747
      py      :     0.002937

  9 H s       :     0.873134  s :     0.873134
      pz      :     0.004842  p :     0.020441
      px      :     0.006464
      py      :     0.009136

 10 H s       :     0.900967  s :     0.900967
      pz      :     0.013165  p :     0.019849
      px      :     0.003745
      py      :     0.002939

 11 H s       :     0.873137  s :     0.873137
      pz      :     0.004842  p :     0.020441
      px      :     0.006445
      py      :     0.009155

 12 H s       :     0.870060  s :     0.870060
      pz      :     0.004821  p :     0.020685
      px      :     0.005936
      py      :     0.009928

 13 H s       :     0.884412  s :     0.884412
      pz      :     0.013435  p :     0.020820
      px      :     0.003783
      py      :     0.003603

 14 H s       :     0.786219  s :     0.786219
      pz      :     0.019236  p :     0.036794
      px      :     0.011585
      py      :     0.005972


------------------------
MULLIKEN OVERLAP CHARGES
------------------------
B(  0-C ,  1-C ) :   0.7433 B(  0-C ,  2-O ) :  -0.1185 B(  0-C ,  5-N ) :   0.6466 
B(  0-C ,  6-H ) :   0.7993 B(  0-C ,  7-H ) :   0.7894 B(  0-C ,  8-H ) :  -0.1624 
B(  0-C ,  9-H ) :  -0.0645 B(  0-C , 14-H ) :  -0.0962 B(  1-C ,  2-O ) :   0.5775 
B(  1-C ,  3-C ) :  -0.0733 B(  1-C ,  5-N ) :  -0.1415 B(  1-C ,  6-H ) :  -0.1016 
B(  1-C ,  7-H ) :  -0.0950 B(  1-C ,  8-H ) :   0.8441 B(  1-C ,  9-H ) :   0.7616 
B(  2-O ,  3-C ) :   0.5775 B(  2-O ,  4-C ) :  -0.1185 B(  2-O ,  8-H ) :  -0.0999 
B(  2-O ,  9-H ) :  -0.0659 B(  2-O , 10-H ) :  -0.0999 B(  2-O , 11-H ) :  -0.0659 
B(  3-C ,  4-C ) :   0.7433 B(  3-C ,  5-N ) :  -0.1415 B(  3-C , 10-H ) :   0.8441 
B(  3-C , 11-H ) :   0.7616 B(  3-C , 12-H ) :  -0.1016 B(  3-C , 13-H ) :  -0.0950 
B(  4-C ,  5-N ) :   0.6466 B(  4-C , 10-H ) :  -0.1624 B(  4-C , 11-H ) :  -0.0645 
B(  4-C , 12-H ) :   0.7993 B(  4-C , 13-H ) :   0.7894 B(  4-C , 14-H ) :  -0.0962 
B(  5-N ,  6-H ) :  -0.0651 B(  5-N ,  7-H ) :  -0.0739 B(  5-N , 12-H ) :  -0.0651 
B(  5-N , 13-H ) :  -0.0739 B(  5-N , 14-H ) :   0.7223 


                     *******************************
                     * LOEWDIN POPULATION ANALYSIS *
                     *******************************

----------------------
LOEWDIN ATOMIC CHARGES
----------------------
   0 C :   -0.313303
   1 C :   -0.317400
   2 O :    0.124995
   3 C :   -0.317403
   4 C :   -0.313299
   5 N :   -0.027006
   6 H :    0.129380
   7 H :    0.131510
   8 H :    0.113791
   9 H :    0.126272
  10 H :    0.113790
  11 H :    0.126272
  12 H :    0.129380
  13 H :    0.131509
  14 H :    0.161513

-------------------------------
LOEWDIN REDUCED ORBITAL CHARGES
-------------------------------
  0 C s       :     2.791211  s :     2.791211
      pz      :     1.037580  p :     3.002774
      px      :     1.020145
      py      :     0.945049
      dz2     :     0.113931  d :     0.467483
      dxz     :     0.061381
      dyz     :     0.050643
      dx2y2   :     0.115106
      dxy     :     0.126423
      f0      :     0.005798  f :     0.051835
      f+1     :     0.005150
      f-1     :     0.004117
      f+2     :     0.008833
      f-2     :     0.007523
      f+3     :     0.008710
      f-3     :     0.011705

  1 C s       :     2.807569  s :     2.807569
      pz      :     1.022147  p :     2.922003
      px      :     1.018231
      py      :     0.881625
      dz2     :     0.127719  d :     0.520775
      dxz     :     0.069046
      dyz     :     0.074595
      dx2y2   :     0.105789
      dxy     :     0.143627
      f0      :     0.007385  f :     0.067052
      f+1     :     0.005773
      f-1     :     0.006724
      f+2     :     0.010586
      f-2     :     0.011599
      f+3     :     0.011558
      f-3     :     0.013426

  2 O s       :     3.303730  s :     3.303730
      pz      :     1.652147  p :     4.467005
      px      :     1.576559
      py      :     1.238299
      dz2     :     0.012986  d :     0.098266
      dxz     :     0.007136
      dyz     :     0.023379
      dx2y2   :     0.024443
      dxy     :     0.030321
      f0      :     0.000389  f :     0.006004
      f+1     :     0.000351
      f-1     :     0.000963
      f+2     :     0.000559
      f-2     :     0.001308
      f+3     :     0.001008
      f-3     :     0.001426

  3 C s       :     2.807570  s :     2.807570
      pz      :     1.022147  p :     2.922004
      px      :     1.017893
      py      :     0.881965
      dz2     :     0.127719  d :     0.520775
      dxz     :     0.069173
      dyz     :     0.074469
      dx2y2   :     0.105984
      dxy     :     0.143430
      f0      :     0.007385  f :     0.067053
      f+1     :     0.005789
      f-1     :     0.006709
      f+2     :     0.010565
      f-2     :     0.011621
      f+3     :     0.011546
      f-3     :     0.013438

  4 C s       :     2.791213  s :     2.791213
      pz      :     1.037582  p :     3.002773
      px      :     1.020314
      py      :     0.944877
      dz2     :     0.113928  d :     0.467479
      dxz     :     0.061316
      dyz     :     0.050707
      dx2y2   :     0.114813
      dxy     :     0.126716
      f0      :     0.005798  f :     0.051834
      f+1     :     0.005139
      f-1     :     0.004127
      f+2     :     0.008841
      f-2     :     0.007514
      f+3     :     0.008717
      f-3     :     0.011697

  5 N s       :     3.040368  s :     3.040368
      pz      :     1.159818  p :     3.766612
      px      :     1.481636
      py      :     1.125159
      dz2     :     0.061557  d :     0.205066
      dxz     :     0.011622
      dyz     :     0.035349
      dx2y2   :     0.043838
      dxy     :     0.052699
      f0      :     0.002961  f :     0.014961
      f+1     :     0.000799
      f-1     :     0.001739
      f+2     :     0.000904
      f-2     :     0.002802
      f+3     :     0.002373
      f-3     :     0.003383

  6 H s       :     0.813144  s :     0.813144
      pz      :     0.015502  p :     0.057476
      px      :     0.016108
      py      :     0.025866

  7 H s       :     0.811121  s :     0.811121
      pz      :     0.034957  p :     0.057370
      px      :     0.011614
      py      :     0.010799

  8 H s       :     0.829292  s :     0.829292
      pz      :     0.035762  p :     0.056917
      px      :     0.011595
      py      :     0.009560

  9 H s       :     0.816748  s :     0.816748
      pz      :     0.015272  p :     0.056980
      px      :     0.017555
      py      :     0.024152

 10 H s       :     0.829293  s :     0.829293
      pz      :     0.035762  p :     0.056917
      px      :     0.011589
      py      :     0.009567

 11 H s       :     0.816749  s :     0.816749
      pz      :     0.015273  p :     0.056980
      px      :     0.017510
      py      :     0.024198

 12 H s       :     0.813144  s :     0.813144
      pz      :     0.015502  p :     0.057476
      px      :     0.016147
      py      :     0.025827

 13 H s       :     0.811121  s :     0.811121
      pz      :     0.034957  p :     0.057370
      px      :     0.011619
      py      :     0.010794

 14 H s       :     0.732996  s :     0.732996
      pz      :     0.053574  p :     0.105491
      px      :     0.033779
      py      :     0.018138


---------------------------------
LOEWDIN BOND ORDERS (THRESH 0.050000)
---------------------------------
B(  0-C ,  1-C ) :   1.2542 B(  0-C ,  2-O ) :   0.1082 B(  0-C ,  4-C ) :   0.1718 
B(  0-C ,  5-N ) :   1.3345 B(  0-C ,  6-H ) :   0.8646 B(  0-C ,  7-H ) :   0.8608 
B(  0-C ,  8-H ) :   0.0772 B(  0-C ,  9-H ) :   0.0793 B(  0-C , 14-H ) :   0.0859 
B(  1-C ,  2-O ) :   1.4394 B(  1-C ,  3-C ) :   0.1804 B(  1-C ,  5-N ) :   0.1211 
B(  1-C ,  6-H ) :   0.0830 B(  1-C ,  7-H ) :   0.0776 B(  1-C ,  8-H ) :   0.8726 
B(  1-C ,  9-H ) :   0.8783 B(  2-O ,  3-C ) :   1.4394 B(  2-O ,  4-C ) :   0.1082 
B(  3-C ,  4-C ) :   1.2542 B(  3-C ,  5-N ) :   0.1211 B(  3-C , 10-H ) :   0.8726 
B(  3-C , 11-H ) :   0.8783 B(  3-C , 12-H ) :   0.0830 B(  3-C , 13-H ) :   0.0776 
B(  4-C ,  5-N ) :   1.3345 B(  4-C , 10-H ) :   0.0772 B(  4-C , 11-H ) :   0.0793 
B(  4-C , 12-H ) :   0.8646 B(  4-C , 13-H ) :   0.8608 B(  4-C , 14-H ) :   0.0859 
B(  5-N ,  6-H ) :   0.0547 B(  5-N ,  7-H ) :   0.0517 B(  5-N , 12-H ) :   0.0547 
B(  5-N , 13-H ) :   0.0517 B(  5-N , 14-H ) :   0.8924 

------------------------------------------
LOEWDIN REDUCED ORBITAL POPULATIONS PER MO
-------------------------------------------
THRESHOLD FOR PRINTING IS 0.1%%
                      0         1         2         3         4         5   
                 -21.67303 -16.51776 -12.09128 -12.09115 -12.06943 -12.06926
                   2.00000   2.00000   2.00000   2.00000   2.00000   2.00000
                  --------  --------  --------  --------  --------  --------
 0 C  s               0.0       0.0       0.1       0.0      49.5      49.9
 1 C  s               0.0       0.0      49.6      49.8       0.1       0.0
 2 O  s              99.8       0.0       0.0       0.0       0.0       0.0
 2 O  py              0.0       0.0       0.1       0.0       0.0       0.0
 3 C  s               0.0       0.0      49.8      49.6       0.1       0.0
 4 C  s               0.0       0.0       0.1       0.0      49.8      49.6
 5 N  s               0.0      99.7       0.0       0.0       0.0       0.0

                      6         7         8         9        10        11   
                  -1.67522  -1.47125  -1.29405  -1.20891  -1.16958  -1.07298
                   2.00000   2.00000   2.00000   2.00000   2.00000   2.00000
                  --------  --------  --------  --------  --------  --------
 0 C  s               0.4       8.3       9.5       5.7       8.9       4.3
 0 C  pz              0.0       0.8       0.2       0.0       0.0       4.1
 0 C  px              0.8       1.4       1.8       5.9       2.2       0.9
 0 C  py              0.3       5.5       0.3       1.5       0.3       0.2
 0 C  dz2             0.1       0.3       0.0       0.0       0.1       0.0
 0 C  dxz             0.0       0.1       0.1       0.5       0.1       0.0
 0 C  dyz             0.0       0.4       0.0       0.2       0.0       0.3
 0 C  dx2y2           0.1       0.4       0.7       0.4       0.0       0.3
 0 C  dxy             0.1       1.0       0.0       0.2       0.0       0.1
 0 C  f+3             0.0       0.2       0.1       0.0       0.0       0.0
 1 C  s               5.5       0.5      13.8       9.2       3.4       3.8
 1 C  pz              1.0       0.0       0.3       0.0       0.0       4.1
 1 C  px              1.6       2.1       0.7       3.7       6.4       0.9
 1 C  py              6.7       0.1       0.5       1.0       0.5       0.1
 1 C  dz2             0.5       0.1       0.0       0.0       0.1       0.0
 1 C  dxz             0.2       0.0       0.0       0.4       0.3       0.0
 1 C  dyz             0.8       0.0       0.0       0.2       0.0       0.3
 1 C  dx2y2           0.6       0.3       0.6       0.1       0.1       0.3
 1 C  dxy             1.5       0.2       0.0       0.2       0.0       0.3
 1 C  f-2             0.1       0.0       0.0       0.0       0.0       0.0
 1 C  f+3             0.3       0.0       0.1       0.0       0.0       0.0
 2 O  s              54.2       0.7       0.0       4.1       0.0       2.2
 2 O  pz              0.4       0.0       0.0       1.2       0.0       8.6
 2 O  px              0.8       0.2       0.0       4.3       0.0       1.9
 2 O  py              0.0       0.0      15.0       0.0      20.2       0.0
 2 O  dyz             0.0       0.0       0.2       0.0       0.3       0.0
 2 O  dx2y2           0.0       0.0       0.0       0.0       0.0       0.1
 2 O  dxy             0.0       0.0       0.6       0.0       0.2       0.0
 3 C  s               5.5       0.5      13.8       9.2       3.4       3.8
 3 C  pz              1.0       0.0       0.3       0.0       0.0       4.1
 3 C  px              1.6       2.1       0.7       3.7       6.4       0.9
 3 C  py              6.7       0.1       0.5       1.0       0.5       0.1
 3 C  dz2             0.5       0.1       0.0       0.0       0.1       0.0
 3 C  dxz             0.2       0.0       0.0       0.4       0.3       0.0
 3 C  dyz             0.7       0.0       0.0       0.2       0.0       0.3
 3 C  dx2y2           0.6       0.3       0.6       0.1       0.1       0.3
 3 C  dxy             1.5       0.2       0.0       0.2       0.1       0.2
 3 C  f-2             0.1       0.0       0.0       0.0       0.0       0.0
 3 C  f+3             0.3       0.0       0.1       0.0       0.0       0.0
 4 C  s               0.4       8.3       9.5       5.7       8.9       4.3
 4 C  pz              0.0       0.8       0.2       0.0       0.0       4.1
 4 C  px              0.8       1.4       1.8       5.9       2.2       0.9
 4 C  py              0.3       5.5       0.3       1.5       0.3       0.2
 4 C  dz2             0.1       0.3       0.0       0.0       0.1       0.0
 4 C  dxz             0.0       0.1       0.1       0.5       0.1       0.0
 4 C  dyz             0.0       0.4       0.0       0.2       0.0       0.3
 4 C  dx2y2           0.1       0.4       0.7       0.4       0.0       0.3
 4 C  dxy             0.1       1.0       0.0       0.2       0.0       0.1
 4 C  f+3             0.0       0.2       0.1       0.0       0.0       0.0
 5 N  s               0.1      38.5       0.0       5.7       0.0       1.0
 5 N  pz              0.0       0.0       0.0       1.7       0.0      12.1
 5 N  px              0.1       2.0       0.0       2.0       0.0       1.2
 5 N  py              0.0       0.0       6.1       0.0      14.9       0.0
 5 N  dz2             0.0       0.0       0.0       0.3       0.0       0.3
 5 N  dxz             0.0       0.1       0.0       0.0       0.0       0.1
 5 N  dyz             0.0       0.0       0.1       0.0       0.3       0.0
 5 N  dx2y2           0.0       0.1       0.0       0.0       0.0       0.2
 5 N  dxy             0.0       0.0       0.7       0.0       0.7       0.0
 6 H  s               0.1       1.0       1.9       1.5       3.2       1.7
 6 H  px              0.0       0.0       0.1       0.1       0.0       0.0
 6 H  py              0.0       0.1       0.1       0.0       0.3       0.1
 7 H  s               0.1       0.9       1.7       1.6       2.5       4.3
 7 H  pz              0.0       0.1       0.2       0.2       0.3       0.4
 8 H  s               0.5       0.1       2.3       2.5       0.8       3.9
 8 H  pz              0.0       0.0       0.3       0.3       0.1       0.4
 9 H  s               0.6       0.1       2.7       2.3       1.4       1.6
 9 H  px              0.0       0.0       0.1       0.2       0.0       0.0
 9 H  py              0.1       0.0       0.2       0.1       0.2       0.1
10 H  s               0.5       0.1       2.3       2.5       0.8       3.9
10 H  pz              0.0       0.0       0.3       0.3       0.1       0.4
11 H  s               0.6       0.1       2.7       2.3       1.4       1.6
11 H  px              0.0       0.0       0.1       0.2       0.0       0.0
11 H  py              0.1       0.0       0.2       0.1       0.2       0.1
12 H  s               0.1       1.0       1.9       1.5       3.2       1.7
12 H  px              0.0       0.0       0.1       0.1       0.0       0.0
12 H  py              0.0       0.1       0.1       0.0       0.3       0.1
13 H  s               0.1       0.9       1.7       1.6       2.5       4.3
13 H  pz              0.0       0.1       0.2       0.2       0.3       0.4
14 H  s               0.0       8.3       0.0       3.4       0.0       6.3
14 H  pz              0.0       1.5       0.0       0.4       0.0       0.4
14 H  py              0.0       0.0       0.0       0.0       0.1       0.0

                     12        13        14        15        16        17   
                  -0.98506  -0.98221  -0.95952  -0.92824  -0.91571  -0.87553
                   2.00000   2.00000   2.00000   2.00000   2.00000   2.00000
                  --------  --------  --------  --------  --------  --------
 0 C  s               0.4       0.1       0.1       1.0       0.4       0.3
 0 C  pz              0.3       0.6       0.6       0.7      10.0       6.4
 0 C  px              0.0       6.8       3.4       0.9       3.8       2.8
 0 C  py              5.8       1.4       0.2       8.2       3.6       1.5
 0 C  dz2             0.1       0.0       0.0       0.3       0.1       0.0
 0 C  dxz             0.1       0.6       0.2       0.0       0.0       0.2
 0 C  dx2y2           0.1       0.0       0.3       0.0       0.0       0.4
 0 C  dxy             0.2       0.1       0.2       1.3       0.2       0.1
 1 C  s               0.6       1.7       0.0       1.0       0.2       0.2
 1 C  pz              0.1       3.1       5.9       0.9       9.2       2.2
 1 C  px              0.7       4.3       3.4       1.7       0.6       5.5
 1 C  py              8.7       7.7       0.0       4.2       0.0       0.9
 1 C  dz2             0.0       0.1       0.1       0.3       0.1       0.0
 1 C  dxz             0.2       0.2       0.1       0.1       0.3       0.1
 1 C  dyz             0.0       0.2       0.7       0.1       0.0       0.0
 1 C  dx2y2           0.7       0.1       0.1       0.0       0.0       1.1
 1 C  dxy             0.4       0.2       0.3       1.4       0.2       0.1
 1 C  f-3             0.1       0.1       0.1       0.1       0.0       0.2
 2 O  s               2.6       0.0       0.0       0.2       0.0       1.2
 2 O  pz              5.9       0.0      28.1      12.4       0.0       1.6
 2 O  px             29.4       0.0      15.7       0.5       0.0      15.8
 2 O  py              0.0      22.8       0.0       0.0       0.3       0.0
 2 O  dyz             0.0       0.0       0.0       0.0       0.2       0.0
 2 O  dx2y2           0.0       0.0       0.0       0.1       0.0       0.5
 2 O  dxy             0.0       0.1       0.0       0.0       0.0       0.0
 3 C  s               0.6       1.7       0.0       1.0       0.2       0.2
 3 C  pz              0.1       3.1       5.9       0.9       9.2       2.2
 3 C  px              0.7       4.3       3.4       1.7       0.6       5.5
 3 C  py              8.7       7.7       0.0       4.3       0.0       1.0
 3 C  dz2             0.0       0.1       0.1       0.3       0.1       0.0
 3 C  dxz             0.2       0.2       0.1       0.1       0.3       0.1
 3 C  dyz             0.0       0.2       0.7       0.1       0.0       0.0
 3 C  dx2y2           0.7       0.1       0.1       0.0       0.0       1.1
 3 C  dxy             0.4       0.2       0.3       1.4       0.2       0.1
 3 C  f-3             0.1       0.1       0.1       0.1       0.0       0.2
 4 C  s               0.4       0.1       0.1       1.0       0.4       0.3
 4 C  pz              0.3       0.6       0.6       0.7      10.0       6.4
 4 C  px              0.1       6.8       3.4       0.9       3.7       2.8
 4 C  py              5.8       1.4       0.2       8.2       3.6       1.4
 4 C  dz2             0.1       0.0       0.0       0.3       0.1       0.0
 4 C  dxz             0.1       0.6       0.2       0.0       0.0       0.2
 4 C  dx2y2           0.1       0.0       0.3       0.0       0.0       0.4
 4 C  dxy             0.2       0.1       0.2       1.3       0.2       0.1
 5 N  s               0.1       0.0       0.1       0.8       0.0       1.7
 5 N  pz              5.5       0.0      12.8      10.4       0.0       0.3
 5 N  px              2.8       0.0       0.1       1.0       0.0      18.5
 5 N  py              0.0       9.2       0.0       0.0      17.6       0.0
 5 N  dz2             0.1       0.0       0.2       0.1       0.0       0.4
 5 N  dyz             0.0       0.3       0.0       0.0       0.1       0.0
 5 N  dx2y2           0.1       0.0       0.2       0.2       0.0       0.0
 5 N  dxy             0.0       0.1       0.0       0.0       0.3       0.0
 6 H  s               2.4       0.0       0.1       6.5       0.1       0.3
 6 H  pz              0.0       0.0       0.0       0.1       0.1       0.1
 6 H  py              0.1       0.0       0.0       0.1       0.1       0.0
 7 H  s               0.1       0.3       0.4       0.2       5.8       2.8
 7 H  pz              0.0       0.0       0.0       0.0       0.2       0.1
 7 H  py              0.1       0.0       0.0       0.1       0.0       0.0
 8 H  s               0.2       3.5       1.9       0.1       4.8       0.5
 8 H  pz              0.0       0.2       0.1       0.0       0.2       0.0
 8 H  px              0.0       0.1       0.0       0.0       0.0       0.1
 8 H  py              0.1       0.1       0.0       0.1       0.0       0.0
 9 H  s               3.4       1.4       0.0       5.3       0.0       3.2
 9 H  px              0.1       0.2       0.0       0.1       0.0       0.0
 9 H  py              0.1       0.0       0.0       0.1       0.0       0.1
10 H  s               0.2       3.5       1.9       0.1       4.8       0.5
10 H  pz              0.0       0.2       0.1       0.0       0.2       0.0
10 H  px              0.0       0.1       0.0       0.0       0.0       0.1
10 H  py              0.1       0.1       0.0       0.1       0.0       0.0
11 H  s               3.4       1.4       0.0       5.3       0.0       3.2
11 H  px              0.1       0.2       0.0       0.1       0.0       0.0
11 H  py              0.1       0.0       0.0       0.1       0.0       0.1
12 H  s               2.4       0.0       0.1       6.5       0.1       0.3
12 H  pz              0.0       0.0       0.0       0.1       0.1       0.1
12 H  py              0.1       0.0       0.0       0.1       0.1       0.0
13 H  s               0.1       0.3       0.4       0.2       5.8       2.8
13 H  pz              0.0       0.0       0.0       0.0       0.2       0.1
13 H  py              0.1       0.0       0.0       0.1       0.0       0.0
14 H  s               2.9       0.0       4.8       3.4       0.0       0.6
14 H  pz              0.1       0.0       0.1       0.0       0.0       0.0
14 H  px              0.0       0.0       0.0       0.0       0.0       0.4
14 H  py              0.0       0.1       0.0       0.0       0.4       0.0

                     18        19        20        21        22        23   
                  -0.84288  -0.82196  -0.81532  -0.79693  -0.77330  -0.72191
                   2.00000   2.00000   2.00000   2.00000   2.00000   2.00000
                  --------  --------  --------  --------  --------  --------
 0 C  s               0.2       0.0       0.1       0.1       0.2       0.0
 0 C  pz              1.6       5.8       2.7      10.7       6.1       1.0
 0 C  px              8.7       6.0       0.8       0.3       0.3       4.0
 0 C  py              3.6       1.2      12.5       0.5       0.6       0.2
 0 C  dz2             0.0       0.7       0.1       1.4       1.1       1.2
 0 C  dxz             0.1       0.0       0.0       0.5       0.3       0.1
 0 C  dyz             0.0       0.5       0.3       0.1       0.0       0.3
 0 C  dx2y2           0.4       0.0       0.9       0.0       0.2       1.6
 0 C  dxy             0.0       0.0       1.6       0.0       0.0       1.0
 0 C  f+2             0.0       0.0       0.0       0.0       0.1       0.2
 0 C  f-2             0.0       0.0       0.1       0.0       0.0       0.0
 0 C  f-3             0.1       0.0       0.0       0.0       0.1       0.2
 1 C  s               0.3       0.0       0.1       0.0       0.1       0.3
 1 C  pz              0.1       3.2       2.5      10.4       7.3       0.8
 1 C  px             11.8       0.2       0.3       0.3       0.9       5.7
 1 C  py              7.8       0.0       2.7       1.8       1.1       0.0
 1 C  dz2             0.0       0.5       0.0       1.6       2.7       0.2
 1 C  dxz             0.1       0.6       0.1       0.6       0.1       0.0
 1 C  dyz             0.1       0.6       0.1       0.1       0.3       0.0
 1 C  dx2y2           0.7       0.2       0.1       0.0       0.0       0.1
 1 C  dxy             0.2       0.0       1.7       0.0       0.0       0.5
 1 C  f+2             0.0       0.1       0.0       0.0       0.0       0.0
 2 O  s               0.0       0.0       0.0       0.0       0.2       0.1
 2 O  pz              0.0      13.4       0.0       0.0       9.3       1.6
 2 O  px              0.0       7.9       0.0       0.0       0.2       2.3
 2 O  py              0.7       0.0       2.8       0.0       0.0       0.0
 2 O  dz2             0.0       0.1       0.0       0.0       0.2       0.0
 2 O  dyz             0.0       0.0       0.1       0.4       0.0       0.0
 2 O  dx2y2           0.0       0.0       0.0       0.0       0.2       0.2
 2 O  dxy             0.5       0.0       0.0       0.0       0.0       0.0
 3 C  s               0.3       0.0       0.1       0.0       0.1       0.3
 3 C  pz              0.1       3.2       2.5      10.4       7.3       0.8
 3 C  px             11.7       0.2       0.3       0.3       0.8       5.7
 3 C  py              7.9       0.0       2.7       1.8       1.1       0.0
 3 C  dz2             0.0       0.5       0.0       1.6       2.7       0.2
 3 C  dxz             0.1       0.6       0.1       0.6       0.1       0.0
 3 C  dyz             0.1       0.6       0.1       0.1       0.3       0.0
 3 C  dx2y2           0.7       0.2       0.1       0.0       0.0       0.1
 3 C  dxy             0.2       0.0       1.6       0.0       0.0       0.5
 3 C  f+2             0.0       0.1       0.0       0.0       0.0       0.0
 4 C  s               0.2       0.0       0.1       0.1       0.2       0.0
 4 C  pz              1.6       5.8       2.7      10.7       6.1       1.0
 4 C  px              8.7       6.0       0.8       0.3       0.3       4.0
 4 C  py              3.6       1.2      12.5       0.5       0.6       0.2
 4 C  dz2             0.0       0.7       0.1       1.4       1.1       1.2
 4 C  dxz             0.1       0.0       0.0       0.5       0.3       0.1
 4 C  dyz             0.0       0.5       0.3       0.1       0.0       0.3
 4 C  dx2y2           0.4       0.0       0.8       0.0       0.2       1.6
 4 C  dxy             0.0       0.0       1.6       0.0       0.0       1.0
 4 C  f+2             0.0       0.0       0.0       0.0       0.1       0.2
 4 C  f-2             0.0       0.0       0.1       0.0       0.0       0.0
 4 C  f-3             0.0       0.0       0.0       0.0       0.1       0.2
 5 N  s               0.0       0.3       0.0       0.0       0.2       3.9
 5 N  pz              0.0       7.6       0.0       0.0       0.4       7.1
 5 N  px              0.0       1.5       0.0       0.0       7.7      37.1
 5 N  py              0.1       0.0       7.9       0.5       0.0       0.0
 5 N  dz2             0.0       0.8       0.0       0.0       0.6       0.3
 5 N  dxz             0.0       0.2       0.0       0.0       0.1       0.0
 5 N  dyz             0.1       0.0       0.4       0.6       0.0       0.0
 5 N  dx2y2           0.0       0.6       0.0       0.0       0.2       0.5
 5 N  dxy             0.6       0.0       0.3       0.0       0.0       0.0
 5 N  f-3             0.1       0.0       0.1       0.0       0.0       0.0
 6 H  s               2.8       4.7      11.2       1.2       1.6       0.4
 6 H  pz              0.1       0.0       0.0       0.1       0.0       0.0
 6 H  py              0.0       0.1       0.1       0.0       0.1       0.0
 7 H  s               0.9       3.5       0.8       8.1       4.8       1.9
 7 H  pz              0.0       0.1       0.0       0.1       0.0       0.0
 7 H  px              0.1       0.1       0.0       0.0       0.0       0.1
 7 H  py              0.0       0.0       0.2       0.0       0.0       0.0
 8 H  s               0.2       2.7       0.6       7.9       7.8       1.1
 8 H  pz              0.0       0.0       0.0       0.1       0.0       0.0
 8 H  px              0.2       0.0       0.0       0.0       0.0       0.1
 8 H  py              0.1       0.0       0.0       0.0       0.0       0.0
 9 H  s               8.3       0.1       4.0       2.6       3.2       0.8
 9 H  pz              0.1       0.0       0.0       0.1       0.0       0.0
10 H  s               0.2       2.7       0.6       7.9       7.8       1.1
10 H  pz              0.0       0.0       0.0       0.1       0.0       0.0
10 H  px              0.2       0.0       0.0       0.0       0.0       0.1
10 H  py              0.1       0.0       0.0       0.0       0.0       0.0
11 H  s               8.3       0.1       4.0       2.6       3.2       0.8
11 H  pz              0.1       0.0       0.0       0.1       0.0       0.0
12 H  s               2.8       4.7      11.2       1.2       1.6       0.4
12 H  pz              0.1       0.0       0.0       0.1       0.0       0.0
12 H  py              0.0       0.1       0.1       0.0       0.1       0.0
13 H  s               0.9       3.5       0.8       8.1       4.8       1.9
13 H  pz              0.0       0.1       0.0       0.1       0.0       0.0
13 H  px              0.1       0.1       0.0       0.0       0.0       0.1
13 H  py              0.0       0.0       0.2       0.0       0.0       0.0
14 H  s               0.0       3.9       0.0       0.0       1.5       1.6
14 H  px              0.0       0.0       0.0       0.0       0.2       1.0
14 H  py              0.0       0.0       0.1       0.0       0.0       0.0

                     24        25        26        27        28        29   
                  -0.17534  -0.11395  -0.07593  -0.05467  -0.04231  -0.00344
                   0.00000   0.00000   0.00000   0.00000   0.00000   0.00000
                  --------  --------  --------  --------  --------  --------
 0 C  s               0.1       0.0       1.5       6.2       2.8       6.3
 0 C  pz              0.1       0.0       2.0       1.9       0.6       1.7
 0 C  px              0.6       0.8       3.3       0.1       0.8       1.6
 0 C  py              1.1       0.6       8.1       5.3       0.3       0.5
 0 C  dz2             0.0       0.4       2.5       1.6       0.2       0.1
 0 C  dxz             0.1       0.0       0.4       0.2       0.3       1.9
 0 C  dyz             0.0       0.0       1.6       1.0       0.9       0.6
 0 C  dx2y2           0.7       0.3       1.9       0.7       0.6       0.2
 0 C  dxy             2.9       2.6       1.0       1.0       0.1       0.0
 0 C  f0              0.0       0.0       0.1       0.2       0.0       0.4
 0 C  f+2             0.0       0.0       0.2       0.0       0.0       0.0
 0 C  f-2             0.1       0.2       0.0       0.1       0.1       0.0
 0 C  f+3             0.0       0.0       0.6       0.4       0.1       0.2
 0 C  f-3             0.1       0.0       0.0       0.1       0.0       0.0
 1 C  s               2.3       3.9       0.6       2.4       2.5       1.4
 1 C  pz              1.8       1.0       0.3       1.3       3.5       2.3
 1 C  px              2.9       2.0       0.9       1.4       0.4       4.4
 1 C  py             11.9       9.2       1.5       0.3       0.2       0.8
 1 C  dz2             0.4       0.1       1.0       1.9       0.8       0.2
 1 C  dxz             0.0       0.5       0.6       0.0       0.1       3.1
 1 C  dyz             1.1       1.2       0.4       0.2       0.2       1.0
 1 C  dx2y2           1.7       0.2       0.1       1.4       0.2       2.3
 1 C  dxy             2.4       2.8       0.4       0.6       0.0       0.3
 1 C  f0              0.2       0.2       0.0       0.0       0.0       0.2
 1 C  f+2             0.1       0.0       0.1       0.0       0.0       0.0
 1 C  f-2             0.1       0.4       0.0       0.0       0.0       0.0
 1 C  f+3             0.5       0.2       0.3       0.4       0.0       0.2
 2 O  s              10.3       0.0       1.4       0.0       0.1       0.0
 2 O  pz              4.2       0.0       1.3       0.0       2.0       0.1
 2 O  px             10.0       0.0       0.4       0.0       0.3       1.7
 2 O  py              0.0      29.9       0.0       1.6       0.0       0.0
 2 O  dz2             0.9       0.0       0.1       0.0       0.0       0.0
 2 O  dxz             0.5       0.0       0.1       0.0       0.1       0.6
 2 O  dyz             0.0       2.1       0.0       0.0       0.0       0.0
 2 O  dx2y2           1.0       0.0       0.4       0.0       0.1       0.2
 2 O  dxy             0.0       4.2       0.0       1.2       0.0       0.0
 2 O  f-2             0.0       0.1       0.0       0.0       0.0       0.0
 2 O  f+3             0.2       0.0       0.0       0.0       0.0       0.0
 3 C  s               2.3       3.9       0.6       2.4       2.5       1.4
 3 C  pz              1.8       1.0       0.3       1.3       3.5       2.3
 3 C  px              2.9       2.0       0.9       1.4       0.4       4.4
 3 C  py             11.9       9.2       1.5       0.3       0.2       0.8
 3 C  dz2             0.4       0.1       1.0       1.9       0.8       0.2
 3 C  dxz             0.0       0.5       0.6       0.0       0.1       3.1
 3 C  dyz             1.1       1.2       0.4       0.2       0.2       1.0
 3 C  dx2y2           1.7       0.2       0.1       1.4       0.2       2.3
 3 C  dxy             2.5       2.8       0.4       0.6       0.0       0.3
 3 C  f0              0.2       0.2       0.0       0.0       0.0       0.2
 3 C  f+2             0.1       0.0       0.1       0.0       0.0       0.0
 3 C  f-2             0.1       0.4       0.0       0.0       0.0       0.0
 3 C  f+3             0.5       0.2       0.3       0.4       0.0       0.2
 4 C  s               0.1       0.0       1.5       6.2       2.8       6.3
 4 C  pz              0.1       0.0       2.0       1.9       0.6       1.7
 4 C  px              0.6       0.8       3.3       0.1       0.8       1.6
 4 C  py              1.1       0.6       8.1       5.3       0.3       0.5
 4 C  dz2             0.0       0.4       2.5       1.6       0.2       0.1
 4 C  dxz             0.1       0.0       0.4       0.2       0.3       1.9
 4 C  dyz             0.0       0.0       1.6       1.0       0.9       0.6
 4 C  dx2y2           0.7       0.3       1.9       0.7       0.6       0.2
 4 C  dxy             2.9       2.6       1.0       1.1       0.1       0.0
 4 C  f0              0.0       0.0       0.1       0.2       0.0       0.4
 4 C  f+2             0.0       0.0       0.2       0.0       0.0       0.0
 4 C  f-2             0.1       0.2       0.0       0.1       0.1       0.0
 4 C  f+3             0.0       0.0       0.6       0.4       0.1       0.2
 4 C  f-3             0.1       0.0       0.0       0.1       0.0       0.0
 5 N  s               1.9       0.0      13.7       0.0       0.6       0.4
 5 N  pz              0.3       0.0       0.7       0.0      10.8       0.2
 5 N  px              2.5       0.0       5.7       0.0       0.1       1.2
 5 N  py              0.0       2.9       0.0      21.3       0.0       0.0
[...]
 5 N  s               2.2       0.0       2.1       0.0      19.0       0.0
 5 N  pz              2.6       0.0       0.3       0.0       1.0       0.0
 5 N  px              1.2       0.0       0.2       0.0       1.3       0.0
 5 N  dz2            14.2       0.0       0.2       0.0       1.3       0.0
 5 N  dxz             1.2       0.0       0.3       0.0       0.2       0.0
 5 N  dyz             0.0       0.1       0.0       0.1       0.0       0.0
 5 N  dx2y2          16.0       0.0       0.1       0.0       1.3       0.1
 5 N  dxy             0.0       0.2       0.0       1.0       0.0       0.0
 5 N  f0             12.8       0.0       5.2       0.0      29.7       0.0
 5 N  f+1             3.3       0.0       0.0       0.0       0.0       0.0
 5 N  f-1             0.0       0.3       0.0       0.1       0.0       0.0
 5 N  f+2             1.2       0.0       0.0       0.0       2.1       0.1
 5 N  f-2             0.0       0.0       0.0       0.2       0.0       0.0
 5 N  f+3            21.2       0.0       0.9       0.0       8.0       0.1
 5 N  f-3             0.0       0.0       0.0       1.7       0.0       0.0
 8 H  s               0.0       0.2       0.2       0.2       0.1       0.0
 9 H  py              0.0       0.0       0.0       0.0       0.0       0.2
10 H  s               0.0       0.2       0.2       0.2       0.1       0.0
11 H  py              0.0       0.0       0.0       0.0       0.0       0.2
14 H  s               6.9       0.0       1.3       0.0       8.0       0.0
14 H  pz              0.4       0.0       0.3       0.0       1.7       0.0

                    228       229       230       231       232       233   
                   5.77753   6.26201   6.29798   6.43600   6.76201   6.80634
                   0.00000   0.00000   0.00000   0.00000   0.00000   0.00000
                  --------  --------  --------  --------  --------  --------
 0 C  s               0.0       0.1       0.0       0.0       0.1       0.0
 1 C  s               0.3       0.2       0.1       0.0       0.5       1.1
 1 C  pz              0.0       0.1       0.2       0.2       0.2       0.1
 1 C  px              0.0       0.1       0.1       0.2       0.9       0.2
 1 C  py              0.1       0.3       0.2       0.0       0.4       1.6
 1 C  dz2             0.6       0.1       0.0       0.4       0.0       0.1
 1 C  dxz             0.0       0.0       0.0       0.0       0.3       0.1
 1 C  dyz             0.0       0.2       0.3       0.5       0.2       0.2
 1 C  dx2y2           1.5       0.2       0.1       0.1       0.2       0.5
 1 C  dxy             0.1       0.1       0.3       0.1       0.5       0.5
 1 C  f0              0.0       0.0       0.1       0.2       0.0       0.1
 1 C  f+1             0.1       0.0       0.0       0.1       0.0       0.0
 1 C  f-1             0.4       0.1       0.0       0.2       0.0       0.0
 1 C  f+2             1.0       0.0       0.1       0.1       0.0       0.0
 1 C  f-2             0.6       0.0       0.0       0.1       0.1       0.2
 1 C  f+3             0.9       0.0       0.1       0.1       0.1       0.0
 1 C  f-3             2.5       0.1       0.1       0.2       0.1       0.1
 2 O  s               0.0       0.8       0.6       0.0       3.8       0.0
 2 O  pz              0.0       1.3       0.2       0.0       0.1       0.0
 2 O  px              0.0       0.3       1.7       0.0       0.1       0.0
 2 O  py              0.9       0.0       0.0       0.0       0.0       3.5
 2 O  dz2             0.0       3.4      59.6       0.0      18.7       0.0
 2 O  dxz             0.0      85.4       2.1       0.0       0.0       0.0
 2 O  dyz             3.0       0.0       0.0      61.6       0.0      18.4
 2 O  dx2y2           0.0       0.0      25.0       0.0      60.4       0.0
 2 O  dxy             8.6       0.0       0.0      19.0       0.0      57.4
 2 O  f0              0.0       2.5       0.6       0.0       0.8       0.0
 2 O  f+1             0.0       1.5       3.2       0.0       0.3       0.0
 2 O  f-1             8.5       0.0       0.0       7.4       0.0       0.1
 2 O  f+2             0.0       0.1       1.4       0.0       2.4       0.0
 2 O  f-2            16.2       0.0       0.0       2.3       0.0       6.4
 2 O  f+3             0.0       0.5       1.1       0.0       5.7       0.0
 2 O  f-3            43.7       0.0       0.0       4.0       0.0       3.4
 3 C  s               0.3       0.2       0.1       0.0       0.5       1.1
 3 C  pz              0.0       0.1       0.2       0.2       0.2       0.1
 3 C  px              0.0       0.1       0.1       0.2       0.9       0.2
 3 C  py              0.1       0.3       0.2       0.0       0.4       1.6
 3 C  dz2             0.6       0.1       0.0       0.4       0.0       0.1
 3 C  dxz             0.0       0.0       0.0       0.0       0.3       0.1
 3 C  dyz             0.0       0.2       0.3       0.5       0.2       0.2
 3 C  dx2y2           1.5       0.2       0.2       0.1       0.2       0.5
 3 C  dxy             0.1       0.1       0.3       0.1       0.5       0.5
 3 C  f0              0.0       0.0       0.1       0.2       0.0       0.1
 3 C  f+1             0.1       0.0       0.0       0.1       0.0       0.0
 3 C  f-1             0.4       0.1       0.0       0.2       0.0       0.0
 3 C  f+2             1.0       0.0       0.1       0.1       0.0       0.0
 3 C  f-2             0.6       0.0       0.0       0.1       0.1       0.2
 3 C  f+3             0.9       0.0       0.1       0.1       0.1       0.0
 3 C  f-3             2.5       0.1       0.1       0.2       0.1       0.1
 4 C  s               0.0       0.1       0.0       0.0       0.1       0.0
 9 H  s               0.6       0.0       0.0       0.0       0.0       0.0
11 H  s               0.6       0.0       0.0       0.0       0.0       0.0

                    234       235       236       237       238       239   
                  20.73466  20.85360  20.88192  20.95307  30.25745  41.68822
                   0.00000   0.00000   0.00000   0.00000   0.00000   0.00000
                  --------  --------  --------  --------  --------  --------
 0 C  s               7.7      41.4      16.1      33.0       0.0       0.0
 1 C  s              41.3       7.8      32.8      16.3       0.0       0.0
 2 O  s               0.4       0.0       0.0       0.0       0.0      99.8
 2 O  py              0.0       0.0       0.3       0.1       0.0       0.0
 2 O  dxy             0.0       0.0       0.1       0.0       0.0       0.0
 3 C  s              41.3       7.8      32.8      16.3       0.0       0.0
 4 C  s               7.7      41.4      16.1      33.0       0.0       0.0
 5 N  s               0.1       0.3       0.0       0.0      99.6       0.0
 5 N  py              0.0       0.0       0.1       0.2       0.0       0.0
 6 H  s               0.0       0.1       0.0       0.0       0.0       0.0
 8 H  s               0.1       0.0       0.1       0.0       0.0       0.0
 9 H  s               0.1       0.0       0.1       0.0       0.0       0.0
10 H  s               0.1       0.0       0.1       0.0       0.0       0.0
11 H  s               0.1       0.0       0.1       0.0       0.0       0.0
12 H  s               0.0       0.1       0.0       0.0       0.0       0.0



                      *****************************
                      * MAYER POPULATION ANALYSIS *
                      *****************************

  NA   - Mulliken gross atomic population
  ZA   - Total nuclear charge
  QA   - Mulliken gross atomic charge
  VA   - Mayer's total valence
  BVA  - Mayer's bonded valence
  FA   - Mayer's free valence

  ATOM       NA         ZA         QA         VA         BVA        FA
  0 C      6.1235     6.0000    -0.1235     3.9773     3.9773    -0.0000
  1 C      6.0593     6.0000    -0.0593     3.9468     3.9468     0.0000
  2 O      8.3003     8.0000    -0.3003     1.9843     1.9843     0.0000
  3 C      6.0593     6.0000    -0.0593     3.9468     3.9468    -0.0000
  4 C      6.1235     6.0000    -0.1235     3.9773     3.9773     0.0000
  5 N      7.2903     7.0000    -0.2903     2.9511     2.9511    -0.0000
  6 H      0.8907     1.0000     0.1093     0.9717     0.9717    -0.0000
  7 H      0.9052     1.0000     0.0948     0.9828     0.9828    -0.0000
  8 H      0.9208     1.0000     0.0792     0.9799     0.9799     0.0000
  9 H      0.8936     1.0000     0.1064     0.9717     0.9717    -0.0000
 10 H      0.9208     1.0000     0.0792     0.9799     0.9799    -0.0000
 11 H      0.8936     1.0000     0.1064     0.9717     0.9717    -0.0000
 12 H      0.8907     1.0000     0.1093     0.9717     0.9717     0.0000
 13 H      0.9052     1.0000     0.0948     0.9828     0.9828     0.0000
 14 H      0.8230     1.0000     0.1770     0.9654     0.9654    -0.0000

  Mayer bond orders larger than 0.100000
B(  0-C ,  1-C ) :   0.9924 B(  0-C ,  5-N ) :   1.0150 B(  0-C ,  6-H ) :   0.9727 
B(  0-C ,  7-H ) :   0.9688 B(  1-C ,  2-O ) :   0.9993 B(  1-C ,  8-H ) :   0.9767 
B(  1-C ,  9-H ) :   0.9637 B(  2-O ,  3-C ) :   0.9993 B(  3-C ,  4-C ) :   0.9924 
B(  3-C , 10-H ) :   0.9767 B(  3-C , 11-H ) :   0.9637 B(  4-C ,  5-N ) :   1.0150 
B(  4-C , 12-H ) :   0.9727 B(  4-C , 13-H ) :   0.9688 B(  5-N , 14-H ) :   0.9374 


-------
TIMINGS
-------

Total SCF time: 0 days 0 hours 1 min 36 sec 

Total time                  ....      96.597 sec
Sum of individual times     ....      94.291 sec  ( 97.6%)

SCF preparation             ....       0.213 sec  (  0.2%)
Fock matrix formation       ....      92.975 sec  ( 96.3%)
  Startup                   ....       0.051 sec  (  0.1% of F)
  Split-RI-J                ....       3.570 sec  (  3.8% of F)
  Chain of spheres X        ....      77.753 sec  ( 83.6% of F)
  XC integration            ....      12.742 sec  ( 13.7% of F)
    Basis function eval.    ....       2.842 sec  ( 22.3% of XC)
    Density eval.           ....       2.490 sec  ( 19.5% of XC)
    XC-Functional eval.     ....       2.500 sec  ( 19.6% of XC)
    XC-Potential eval.      ....       3.862 sec  ( 30.3% of XC)
Diagonalization             ....       0.000 sec  (  0.0%)
Density matrix formation    ....       0.216 sec  (  0.2%)
Total Energy calculation    ....       0.040 sec  (  0.0%)
Population analysis         ....       0.137 sec  (  0.1%)
Orbital Transformation      ....       0.063 sec  (  0.1%)
Orbital Orthonormalization  ....       0.000 sec  (  0.0%)
DIIS solution               ....       0.299 sec  (  0.3%)
  MO trafo                  ....       0.000 sec  (  0.0 % of DIIS)
  Orb grad                  ....       0.000 sec  (  0.0 % of DIIS)
  Energy W gradient         ....       0.000 sec  (  0.0 % of DIIS)
  DIIS error                ....       0.008 sec  (  2.8 % of DIIS)
  DIIS work                 ....       0.248 sec  ( 83.0 % of DIIS)
  Form Q                    ....       0.000 sec  (  0.0 % of DIIS)
  Form QpQm                 ....       0.000 sec  (  0.0 % of DIIS)
  Exp/Cayley                ....       0.000 sec  (  0.0 % of DIIS)
  Orb update                ....       0.000 sec  (  0.0 % of DIIS)
  Wake-sleep                ....       0.011 sec  (  3.8 % of DIIS)
SOSCF solution              ....       0.183 sec  (  0.2%)
  MO trafo                  ....       0.072 sec  ( 39.5 % of SOSCF)
  Orb grad                  ....       0.003 sec  (  1.4 % of SOSCF)
  Rot update                ....       0.058 sec  ( 31.7 % of SOSCF)
  Step                      ....       0.050 sec  ( 27.3 % of SOSCF)
Grid generation             ....       0.165 sec  (  0.2%)
Finished LeanSCF after  96.7 sec

Maximum memory used throughout the entire LEANSCF-calculation: 29.6 MB
------------------   -----------------
gCP correction             0.010704799
------------------   -----------------

-------------------------   --------------------
FINAL SINGLE POINT ENERGY      -287.812087350481
-------------------------   --------------------


------------------------------------------------------------------------------
                              ORCA PROPERTY CALCULATIONS
------------------------------------------------------------------------------

GBWName                                 ... sp_gas.gbw
Number of atoms                         ...     15
Number of basis functions               ...    240
Max core memory                         ...   1024 MB

Electric properties:
Dipole moment                           ... YES
Quadrupole moment                       ...  NO
Static polarizability (Dipole/Dipole)   ...  NO
Static polarizability (Dipole/Quad.)    ...  NO
Static polarizability (Quad./Quad.)     ...  NO
Static polarizability (Velocity)        ...  NO

Atomic electric properties:
Dipole moment                           ...  NO
Quadrupole moment                       ...  NO
Static polarizability                   ...  NO

Choice of electric origin               ... Center of mass
Position of electric origin             ...    -0.008430     0.000001    -0.011118

General magnetic properties:
Magnetizability                         ...  NO

EPR properties:
g-Tensor (aka g-matrix)                 ...  NO
Zero-Field splitting spin-orbit         ...  NO
Zero-field splitting spin-spin          ...  NO
Hyperfine couplings                     ...  NO (   0 nuclei)
Quadrupole couplings                    ...  NO (   0 nuclei)
Contact density                         ...  NO (   0 nuclei)

NMR properties:
Chemical shifts                         ...  NO (   0 nuclei)
Spin-rotation constants                 ...  NO (   0 nuclei)
Spin-spin couplings                     ...  NO (   0 nuclei,    0 pairs)

Choice of magnetic origin               ... GIAO
Position of magnetic origin             ...     0.000000     0.000000     0.000000

Properties with geometric perturbations:
SCF Hessian                             ...  NO
IR spectrum                             ...  NO
VCD spectrum                            ...  NO
X-ray spectroscopy properties:
SCF XES/XAS/RIXS spectra                ...  NO


-------------
DIPOLE MOMENT
-------------

Method             : SCF
Type of density    : Electron Density
Multiplicity       :   1
Irrep              :   0
Energy             :  -287.8227921495804935 Eh
Relativity type    : 
Basis              : AO
                                X                 Y                 Z
Electronic contribution:      1.202407575       0.001245305      -0.675694073
Nuclear contribution   :     -1.259120307      -0.001308182       1.144585772
                        -----------------------------------------
Total Dipole Moment    :     -0.056712733      -0.000062876       0.468891698
                        -----------------------------------------
Magnitude (a.u.)       :      0.472308969
Magnitude (Debye)      :      1.200513994



--------------------
Rotational spectrum 
--------------------
 
Rotational constants in cm-1:             0.161887             0.152568             0.089038 
Rotational constants in MHz :          4853.253412          4573.869098          2669.299416 

Dipole components along the rotational axes: 
x,y,z [a.u.] :     0.059354     0.000004     0.468565 
x,y,z [Debye]:     0.150867     0.000010     1.190997 

 

Dipole moment calculation done in   0.0 sec 

Maximum memory used throughout the entire PROP-calculation: 17.7 MB

--------------------------------
SUGGESTED CITATIONS FOR THIS RUN
--------------------------------

Below you find a list of papers that are relevant to this ORCA run
We neither can nor want to force you to cite these papers, but we appreciate if you do
You receive ORCA, which is the product of decades of hard work by many enthusiastic individuals, for free
The only thing we kindly ask in return is that you cite our papers,
We deeply appreciate it, if you show your appreciation for ORCA by not just citing the generic ORCA reference.

Please note that relegating all ORCA citations to the supporting information does *not* help us.
SI sections are not indexed - citations you put there will not count into any citation statistics
But we need these citations in order to attract the funding resources that allow us to do what we are doing

Therefore, if you are a happy ORCA user, please consider citing a few of the papers listed below in the main body of your paper

In addition to the list printed below, the program has created the file sp_gas.bibtex that contains the list in bibtex format
You can import this file easily into all common literature databanks and citation aid programs


List of essential papers. We consider these as the minimum necessary citations

  1. Neese,F.
     Software update: the ORCA program system, version 5.0
     WIRES Comput. Molec. Sci., 2022 12(1)e1606
     doi.org/10.1002/wcms.1606

List of papers to cite with high priority. The work reported in these papers was absolutely
necessary for this run to complete.
Our perspective: the developers of density functionals and basis sets usually get cited in chemistry papers
Good! But without the algorithms to do something with them, the functionals or basis sets would not do anything.
Hence, in our opinion, the algorithm design and method developments papers are equally worthy of getting cited

  1. Neese,F.
     An improvement of the resolution of the identity approximation for the formation of the Coulomb matrix
     J. Comp. Chem., 2003 24(14)1740-1747
     doi.org/10.1002/jcc.10318
  2. Neese,F.; Wennmohs,F.; Hansen,A.; Becker,U.
     Efficient, approximate and parallel Hartree-Fock and hybrid DFT calculations. A 'chain-of-spheres' algorithm for the Hartree-Fock exchange
     Chem. Phys., 2009 356(1-3)98-109
     doi.org/10.1016/j.chemphys.2008.10.036
  3. Helmich-Paris,B.; de Souza,B.; Neese,F.; Izsák,R.
     An improved chain of spheres for exchange algorithm
     J. Chem. Phys., 2021 155 104109
     doi.org/doi: 10.1063/5.0058766.
  4. Neese,F.
     The SHARK Integral Generation and Digestion System
     J. Comp. Chem., 2022  1-16
     doi.org/10.1002/jcc.26942

List of suggested additional citations. These are papers that are important in the 'surrounding' of 
of this run, or papers that preceded the highly important papers. If you like your results we are grateful for a citation.

  1. Izsak,R.; Neese,F.
     An overlap fitted chain of spheres exchange method
     J. Chem. Phys., 2011 135 144105
     doi.org/10.1063/1.3646921
  2. Izsak,R.; Hansen,A.; Neese,F.
     The resolution of identity and chain of spheres approximations for the LPNO-CCSD singles Fock term
     Molec. Phys., 2012 110 2413-2417
     doi.org/10.1080/00268976.2012.687466
  3. Neese,F.
     The ORCA program system
     WIRES Comput. Molec. Sci., 2012 2(1)73-78
     doi.org/10.1002/wcms.81
  4. Izsak,R.; Neese,F.; Klopper,W.
     Robust fitting techniques in the chain of spheres approximation to the Fock exchange: The role of the complementary space
     J. Chem. Phys., 2013 139 
     doi.org/10.1063/1.4819264
  5. Neese,F.
     Software update: the ORCA program system, version 4.0
     WIRES Comput. Molec. Sci., 2018 8(1)1-6
     doi.org/10.1002/wcms.1327
  6. Neese,F.; Wennmohs,F.; Becker,U.; Riplinger,C.
     The ORCA quantum chemistry program package
     J. Chem. Phys., 2020 152 Art. No. L224108
     doi.org/10.1063/5.0004608

List of optional additional citations

  1. Neese,F.
     Approximate second-order SCF convergence for spin unrestricted wavefunctions
     Chem. Phys. Lett., 2000 325(1-3)93-98
     doi.org/10.1016/s0009-2614(00)00662-x

Timings for individual modules:

Sum of individual times          ...       98.960 sec (=   1.649 min)
Startup calculation              ...        1.870 sec (=   0.031 min)   1.9 %
SCF iterations                   ...       96.980 sec (=   1.616 min)  98.0 %
Property calculations            ...        0.110 sec (=   0.002 min)   0.1 %
                             ****ORCA TERMINATED NORMALLY****
TOTAL RUN TIME: 0 days 0 hours 1 minutes 39 seconds 767 msec
