      -----------------------------------------------------------      
     |                   =====================                   |     
     |                           x T B                           |     
     |                   =====================                   |     
     |                         S. Grimme                         |     
     |          Mulliken Center for Theoretical Chemistry        |     
     |                    University of Bonn                     |     
      -----------------------------------------------------------      

   * xtb version 6.7.1 (edcfbbe) compiled by 'albert@albert-system' on 2024-07-22

   xtb is free software: you can redistribute it and/or modify it under
   the terms of the GNU Lesser General Public License as published by
   the Free Software Foundation, either version 3 of the License, or
   (at your option) any later version.
   
   xtb is distributed in the hope that it will be useful,
   but WITHOUT ANY WARRANTY; without even the implied warranty of
   MERCHANTABILITY or FITNESS FOR A PARTICULAR PURPOSE.  See the
   GNU Lesser General Public License for more details.
   
   Cite this work as:
   * C. Bannwarth, E. Caldeweyher, S. Ehlert, A. Hansen, P. Pracht,
     J. Seibert, S. Spicher, S. Grimme, WIREs Comput. Mol. Sci., 2020, 11,
     e01493. DOI: 10.1002/wcms.1493
   
   for GFN2-xTB:
   * C. Bannwarth, S. Ehlert and S. Grimme., J. Chem. Theory Comput., 2019,
     15, 1652-1671. DOI: 10.1021/acs.jctc.8b01176
   for GFN1-xTB:
   * S. Grimme, C. Bannwarth, P. Shushkov, J. Chem. Theory Comput., 2017,
     13, 1989-2009. DOI: 10.1021/acs.jctc.7b00118
   for GFN0-xTB:
   * P. Pracht, E. Caldeweyher, S. Ehlert, S. Grimme, ChemRxiv, 2019, preprint.
     DOI: 10.26434/chemrxiv.8326202.v1
   for GFN-FF:
   * S. Spicher and S. Grimme, Angew. Chem. Int. Ed., 2020, 59, 15665-15673.
     DOI: 10.1002/anie.202004239
   
   for ALPB and GBSA implicit solvation:
   * S. Ehlert, M. Stahn, S. Spicher, S. Grimme, J. Chem. Theory Comput.,
     2021, 17, 4250-4261. DOI: 10.1021/acs.jctc.1c00471
   
   for ddCOSMO and CPCM-X implicit solvation:
   * M. Stahn, S. Ehlert, S. Grimme, J. Phys. Chem. A,
     2023, XX, XXXX-XXXX. DOI: 10.1021/acs.jpca.3c04382
   
   for DFT-D4:
   * E. Caldeweyher, C. Bannwarth and S. Grimme, J. Chem. Phys., 2017,
     147, 034112. DOI: 10.1063/1.4993215
   * E. Caldeweyher, S. Ehlert, A. Hansen, H. Neugebauer, S. Spicher,
     C. Bannwarth and S. Grimme, J. Chem. Phys., 2019, 150, 154122.
     DOI: 10.1063/1.5090222
   * E. Caldeweyher, J.-M. Mewes, S. Ehlert and S. Grimme, Phys. Chem. Chem. Phys.
     2020, 22, 8499-8512. DOI: 10.1039/D0CP00502A
   
   for sTDA-xTB:
   * S. Grimme and C. Bannwarth, J. Chem. Phys., 2016, 145, 054103.
     DOI: 10.1063/1.4959605
   
   in the mass-spec context:
   * V. Asgeirsson, C. Bauer and S. Grimme, Chem. Sci., 2017, 8, 4879.
     DOI: 10.1039/c7sc00601b
   * J. Koopman and S. Grimme, ACS Omega 2019, 4, 12, 15120-15133.
     DOI: 10.1021/acsomega.9b02011
   
   for metadynamics refer to:
   * S. Grimme, J. Chem. Theory Comput., 2019, 155, 2847-2862
     DOI: 10.1021/acs.jctc.9b00143
   
   for SPH calculations refer to:
   * S. Spicher and S. Grimme, J. Chem. Theory Comput., 2021, 17, 1701-1714
     DOI: 10.1021/acs.jctc.0c01306
   
   for ONIOM refer to:
   * C. Plett, A. Katbashev, S. Ehlert, S. Grimme, M. Bursch,
     Phys. Chem. Chem. Phys., 2023, 25, 17860-17868. DOI: 10.1039/D3CP02178E
   
   for DIPRO refer to:
   * J. Kohn, N. Gildemeister, S. Grimme, D. Fazzi, A. Hansen,
     J. Chem. Phys., 2023, just accepted.
   
   for PTB refer to:
   * S. Grimme, M. Mueller, A. Hansen, J. Chem. Phys., 2023, 158, 124111.
     DOI: 10.1063/5.0137838
   
   with help from (in alphabetical order)
   P. Atkinson, C. Bannwarth, F. Bohle, G. Brandenburg, E. Caldeweyher
   M. Checinski, S. Dohm, S. Ehlert, S. Ehrlich, I. Gerasimov, C. Hölzer
   A. Katbashev, J. Kohn, J. Koopman, C. Lavigne, S. Lehtola, F. März, M. Müller,
   F. Musil, H. Neugebauer, J. Pisarek, C. Plett, P. Pracht, F. Pultar,
   J. Seibert, P. Shushkov, S. Spicher, M. Stahn, M. Steiner, T. Strunk,
   J. Stückrath, T. Rose, and J. Unsleber
   
 * started run on 2025/04/09 at 05:21:30.605     
   ID    Z sym.   atoms
    1    6 C      1, 2, 7, 8, 10, 15, 16, 18, 19
    2    8 O      3, 6, 14, 17
    3   15 P      4, 12
    4   16 S      5, 9, 11, 13
    5    1 H      20-41

           -------------------------------------------------
          |                Calculation Setup                |
           -------------------------------------------------

          program call               : /srv/scratch/z5358697/.xtb/bin/xtb gas.coord --gfn2 --sp --chrg 0 --norestart --parallel 1
          hostname                   : k163
          coordinate file            : gas.coord
          omp threads                :                     1


           -------------------------------------------------
          |                 G F N 2 - x T B                 |
           -------------------------------------------------

        Reference                      10.1021/acs.jctc.8b01176
      * Hamiltonian:
        H0-scaling (s, p, d)           1.850000    2.230000    2.230000
        zeta-weighting                 0.500000
      * Dispersion:
        s8                             2.700000
        a1                             0.520000
        a2                             5.000000
        s9                             5.000000
      * Repulsion:
        kExp                           1.500000    1.000000
        rExp                           1.000000
      * Coulomb:
        alpha                          2.000000
        third order                    shell-resolved
        anisotropic                    true
        a3                             3.000000
        a5                             4.000000
        cn-shift                       1.200000
        cn-exp                         4.000000
        max-rad                        5.000000


          ...................................................
          :                      SETUP                      :
          :.................................................:
          :  # basis functions                 134          :
          :  # atomic orbitals                 128          :
          :  # shells                           66          :
          :  # electrons                       116          :
          :  max. iterations                   250          :
          :  Hamiltonian                  GFN2-xTB          :
          :  restarted?                      false          :
          :  GBSA solvation                  false          :
          :  PC potential                    false          :
          :  electronic temp.          300.0000000     K    :
          :  accuracy                    1.0000000          :
          :  -> integral cutoff          0.2500000E+02      :
          :  -> integral neglect         0.1000000E-07      :
          :  -> SCF convergence          0.1000000E-05 Eh   :
          :  -> wf. convergence          0.1000000E-03 e    :
          :  Broyden damping             0.4000000          :
          :  net charge                          0          :
          :  unpaired electrons                  0          :
          ...................................................

 iter      E             dE          RMSdq      gap      omega  full diag
   1    -65.3718118 -0.653718E+02  0.644E+00    4.31       0.0  T
   2    -65.5442446 -0.172433E+00  0.412E+00    3.10       1.0  T
   3    -65.5634622 -0.192176E-01  0.136E+00    2.95       1.0  T
   4    -65.5658499 -0.238768E-02  0.536E-01    2.72       1.0  T
   5    -65.5665309 -0.681018E-03  0.250E-01    2.84       1.0  T
   6    -65.5667342 -0.203241E-03  0.121E-01    2.81       1.0  T
   7    -65.5667830 -0.488142E-04  0.464E-02    2.82       1.0  T
   8    -65.5667920 -0.904719E-05  0.215E-02    2.82       1.0  T
   9    -65.5667933 -0.124503E-05  0.589E-03    2.82       2.7  T
  10    -65.5667934 -0.110876E-06  0.270E-03    2.82       5.8  T
  11    -65.5667934 -0.829506E-08  0.595E-04    2.82      26.3  T
  12    -65.5667934 -0.701178E-09  0.263E-04    2.82      59.4  T

   *** convergence criteria satisfied after 12 iterations ***

         #    Occupation            Energy/Eh            Energy/eV
      -------------------------------------------------------------
         1        2.0000           -0.7536328             -20.5074
       ...           ...                  ...                  ...
        52        2.0000           -0.4339163             -11.8075
        53        2.0000           -0.4090563             -11.1310
        54        2.0000           -0.3994216             -10.8688
        55        2.0000           -0.3724636             -10.1352
        56        2.0000           -0.3687358             -10.0338
        57        2.0000           -0.3646571              -9.9228
        58        2.0000           -0.3594172              -9.7802 (HOMO)
        59                         -0.2556411              -6.9563 (LUMO)
        60                         -0.2433244              -6.6212
        61                         -0.2059598              -5.6045
        62                         -0.1755699              -4.7775
        63                         -0.1613597              -4.3908
       ...                                ...                  ...
       128                          1.3099255              35.6449
      -------------------------------------------------------------
                  HL-Gap            0.1037761 Eh            2.8239 eV
             Fermi-level           -0.3075291 Eh           -8.3683 eV

 SCC (total)                   0 d,  0 h,  0 min,  0.061 sec
 SCC setup                      ...        0 min,  0.000 sec (  0.436%)
 Dispersion                     ...        0 min,  0.000 sec (  0.499%)
 classical contributions        ...        0 min,  0.000 sec (  0.106%)
 integral evaluation            ...        0 min,  0.013 sec ( 21.482%)
 iterations                     ...        0 min,  0.025 sec ( 40.663%)
 molecular gradient             ...        0 min,  0.022 sec ( 36.437%)
 printout                       ...        0 min,  0.000 sec (  0.351%)

         :::::::::::::::::::::::::::::::::::::::::::::::::::::
         ::                     SUMMARY                     ::
         :::::::::::::::::::::::::::::::::::::::::::::::::::::
         :: total energy             -65.006725613338 Eh    ::
         :: gradient norm              0.033393300002 Eh/a0 ::
         :: HOMO-LUMO gap              2.823892437113 eV    ::
         ::.................................................::
         :: SCC energy               -65.565705637813 Eh    ::
         :: -> isotropic ES            0.108848005828 Eh    ::
         :: -> anisotropic ES         -0.010541522472 Eh    ::
         :: -> anisotropic XC          0.030668930544 Eh    ::
         :: -> dispersion             -0.055419465243 Eh    ::
         :: repulsion energy           0.558980024475 Eh    ::
         :: add. restraining           0.000000000000 Eh    ::
         :: total charge              -0.000000000000 e     ::
         :::::::::::::::::::::::::::::::::::::::::::::::::::::

           -------------------------------------------------
          |                Property Printout                |
           -------------------------------------------------

    * Orbital Energies and Occupations

         #    Occupation            Energy/Eh            Energy/eV
      -------------------------------------------------------------
         1        2.0000           -0.7536328             -20.5074
       ...           ...                  ...                  ...
        46        2.0000           -0.4651375             -12.6570
        47        2.0000           -0.4622512             -12.5785
        48        2.0000           -0.4603919             -12.5279
        49        2.0000           -0.4526509             -12.3173
        50        2.0000           -0.4462812             -12.1439
        51        2.0000           -0.4380320             -11.9195
        52        2.0000           -0.4339163             -11.8075
        53        2.0000           -0.4090563             -11.1310
        54        2.0000           -0.3994216             -10.8688
        55        2.0000           -0.3724636             -10.1352
        56        2.0000           -0.3687358             -10.0338
        57        2.0000           -0.3646571              -9.9228
        58        2.0000           -0.3594172              -9.7802 (HOMO)
        59                         -0.2556411              -6.9563 (LUMO)
        60                         -0.2433244              -6.6212
        61                         -0.2059598              -5.6045
        62                         -0.1755699              -4.7775
        63                         -0.1613597              -4.3908
        64                         -0.1584530              -4.3117
        65                         -0.1568185              -4.2672
        66                         -0.1420463              -3.8653
        67                         -0.1147874              -3.1235
        68                         -0.1074662              -2.9243
        69                         -0.0364102              -0.9908
       ...                                ...                  ...
       128                          1.3099255              35.6449
      -------------------------------------------------------------
                  HL-Gap            0.1037761 Eh            2.8239 eV
             Fermi-level           -0.3075291 Eh           -8.3683 eV

     #   Z          covCN         q      C6AA      α(0)
     1   6 C        3.752    -0.117    22.798     6.809
     2   6 C        3.814     0.082    19.212     6.239
     3   8 O        1.655    -0.258    18.293     5.774
     4  15 P        3.814     0.382   144.356    21.583
     5  16 S        0.927    -0.413   157.244    21.210
     6   8 O        1.655    -0.246    18.084     5.741
     7   6 C        3.864     0.093    19.014     6.201
     8   6 C        3.752    -0.114    22.737     6.800
     9  16 S        2.007    -0.121   146.140    20.346
    10   6 C        3.806     0.037    19.947     6.358
    11  16 S        2.010    -0.140   146.961    20.404
    12  15 P        3.836     0.383   144.331    21.581
    13  16 S        0.927    -0.396   156.455    21.156
    14   8 O        1.654    -0.242    18.033     5.733
    15   6 C        3.843     0.087    19.110     6.219
    16   6 C        3.751    -0.115    22.759     6.803
    17   8 O        1.655    -0.260    18.327     5.779
    18   6 C        3.864     0.087    19.108     6.216
    19   6 C        3.751    -0.117    22.796     6.809
    20   1 H        0.925     0.063     2.159     2.298
    21   1 H        0.925     0.071     2.075     2.253
    22   1 H        0.925     0.058     2.222     2.331
    23   1 H        0.924     0.067     2.119     2.276
    24   1 H        0.924     0.055     2.258     2.350
    25   1 H        0.924     0.049     2.337     2.391
    26   1 H        0.924     0.056     2.249     2.345
    27   1 H        0.925     0.064     2.152     2.294
    28   1 H        0.925     0.054     2.268     2.355
    29   1 H        0.925     0.066     2.126     2.280
    30   1 H        0.925     0.086     1.921     2.168
    31   1 H        0.924     0.094     1.838     2.120
    32   1 H        0.924     0.052     2.294     2.368
    33   1 H        0.924     0.063     2.170     2.303
    34   1 H        0.925     0.063     2.159     2.298
    35   1 H        0.925     0.054     2.276     2.359
    36   1 H        0.925     0.076     2.020     2.222
    37   1 H        0.924     0.053     2.288     2.366
    38   1 H        0.924     0.059     2.210     2.325
    39   1 H        0.925     0.058     2.217     2.328
    40   1 H        0.925     0.057     2.239     2.340
    41   1 H        0.925     0.071     2.078     2.254

 Mol. C6AA /au·bohr⁶  :      26565.923164
 Mol. C8AA /au·bohr⁸  :     863303.390968
 Mol. α(0) /au        :        258.383974


Wiberg/Mayer (AO) data.
largest (>0.10) Wiberg bond orders for each atom

 ---------------------------------------------------------------------------
     #   Z sym  total        # sym  WBO       # sym  WBO       # sym  WBO
 ---------------------------------------------------------------------------
     1   6 C    3.989 --     2 C    1.022    21 H    0.982    22 H    0.980
                            20 H    0.974
     2   6 C    3.911 --     1 C    1.022    24 H    0.972    23 H    0.969
                             3 O    0.903
     3   8 O    2.398 --     4 P    1.302     2 C    0.903
     4  15 P    5.263 --     5 S    1.519     6 O    1.308     3 O    1.302
                             9 S    1.007
     5  16 S    1.867 --     4 P    1.519     9 S    0.143
     6   8 O    2.396 --     4 P    1.308     7 C    0.894
     7   6 C    3.912 --     8 C    1.020    25 H    0.974    26 H    0.964
                             6 O    0.894
     8   6 C    3.989 --     7 C    1.020    27 H    0.984    29 H    0.982
                            28 H    0.980
     9  16 S    2.307 --     4 P    1.007    10 C    0.988     5 S    0.143
    10   6 C    3.955 --     9 S    0.988    11 S    0.987    30 H    0.967
                            31 H    0.939
    11  16 S    2.296 --    12 P    0.999    10 C    0.987    13 S    0.150
    12  15 P    5.268 --    13 S    1.528    14 O    1.307    17 O    1.294
                            11 S    0.999
    13  16 S    1.895 --    12 P    1.528    11 S    0.150
    14   8 O    2.399 --    12 P    1.307    15 C    0.890
    15   6 C    3.910 --    16 C    1.022    32 H    0.972    33 H    0.969
                            14 O    0.890
    16   6 C    3.988 --    15 C    1.022    36 H    0.980    35 H    0.980
                            34 H    0.976
    17   8 O    2.394 --    12 P    1.294    18 C    0.907
    18   6 C    3.913 --    19 C    1.020    38 H    0.972    37 H    0.970
                            17 O    0.907
    19   6 C    3.989 --    18 C    1.020    40 H    0.985    39 H    0.981
                            41 H    0.980
    20   1 H    0.996 --     1 C    0.974
    21   1 H    0.995 --     1 C    0.982
    22   1 H    0.996 --     1 C    0.980
    23   1 H    0.995 --     2 C    0.969
    24   1 H    0.997 --     2 C    0.972
    25   1 H    0.998 --     7 C    0.974
    26   1 H    0.997 --     7 C    0.964
    27   1 H    0.996 --     8 C    0.984
    28   1 H    0.996 --     8 C    0.980
    29   1 H    0.996 --     8 C    0.982
    30   1 H    0.992 --    10 C    0.967
    31   1 H    0.991 --    10 C    0.939
    32   1 H    0.997 --    15 C    0.972
    33   1 H    0.996 --    15 C    0.969
    34   1 H    0.996 --    16 C    0.976
    35   1 H    0.996 --    16 C    0.980
    36   1 H    0.994 --    16 C    0.980
    37   1 H    0.997 --    18 C    0.970
    38   1 H    0.996 --    18 C    0.972
    39   1 H    0.996 --    19 C    0.981
    40   1 H    0.997 --    19 C    0.985
    41   1 H    0.995 --    19 C    0.980
 ---------------------------------------------------------------------------

Topologies differ in total number of bonds
Writing topology from bond orders to xtbtopo.mol

molecular dipole:
                 x           y           z       tot (Debye)
 q only:       -0.107      -0.390       1.158
   full:        0.015      -0.333       1.754       4.538
molecular quadrupole (traceless):
                xx          xy          yy          xz          yz          zz
 q only:       19.247       4.298     -14.338     -11.302      11.729      -4.909
  q+dip:       22.029       7.364     -16.236     -10.241      12.287      -5.793
   full:       22.762       7.009     -16.685     -11.332      13.756      -6.076


           -------------------------------------------------
          | TOTAL ENERGY              -65.006725613338 Eh   |
          | GRADIENT NORM               0.033393300002 Eh/α |
          | HOMO-LUMO GAP               2.823892437113 eV   |
           -------------------------------------------------

------------------------------------------------------------------------
 * finished run on 2025/04/09 at 05:21:30.716     
------------------------------------------------------------------------
 total:
 * wall-time:     0 d,  0 h,  0 min,  0.110 sec
 *  cpu-time:     0 d,  0 h,  0 min,  0.070 sec
 * ratio c/w:     0.633 speedup
 SCF:
 * wall-time:     0 d,  0 h,  0 min,  0.062 sec
 *  cpu-time:     0 d,  0 h,  0 min,  0.056 sec
 * ratio c/w:     0.914 speedup

