      -----------------------------------------------------------      
     |                   =====================                   |     
     |                           x T B                           |     
     |                   =====================                   |     
     |                         S. Grimme                         |     
     |          Mulliken Center for Theoretical Chemistry        |     
     |                    University of Bonn                     |     
      -----------------------------------------------------------      

   * xtb version 6.7.1 (edcfbbe) compiled by 'albert@albert-system' on 2024-07-22

   xtb is free software: you can redistribute it and/or modify it under
   the terms of the GNU Lesser General Public License as published by
   the Free Software Foundation, either version 3 of the License, or
   (at your option) any later version.
   
   xtb is distributed in the hope that it will be useful,
   but WITHOUT ANY WARRANTY; without even the implied warranty of
   MERCHANTABILITY or FITNESS FOR A PARTICULAR PURPOSE.  See the
   GNU Lesser General Public License for more details.
   
   Cite this work as:
   * C. Bannwarth, E. Caldeweyher, S. Ehlert, A. Hansen, P. Pracht,
     J. Seibert, S. Spicher, S. Grimme, WIREs Comput. Mol. Sci., 2020, 11,
     e01493. DOI: 10.1002/wcms.1493
   
   for GFN2-xTB:
   * C. Bannwarth, S. Ehlert and S. Grimme., J. Chem. Theory Comput., 2019,
     15, 1652-1671. DOI: 10.1021/acs.jctc.8b01176
   for GFN1-xTB:
   * S. Grimme, C. Bannwarth, P. Shushkov, J. Chem. Theory Comput., 2017,
     13, 1989-2009. DOI: 10.1021/acs.jctc.7b00118
   for GFN0-xTB:
   * P. Pracht, E. Caldeweyher, S. Ehlert, S. Grimme, ChemRxiv, 2019, preprint.
     DOI: 10.26434/chemrxiv.8326202.v1
   for GFN-FF:
   * S. Spicher and S. Grimme, Angew. Chem. Int. Ed., 2020, 59, 15665-15673.
     DOI: 10.1002/anie.202004239
   
   for ALPB and GBSA implicit solvation:
   * S. Ehlert, M. Stahn, S. Spicher, S. Grimme, J. Chem. Theory Comput.,
     2021, 17, 4250-4261. DOI: 10.1021/acs.jctc.1c00471
   
   for ddCOSMO and CPCM-X implicit solvation:
   * M. Stahn, S. Ehlert, S. Grimme, J. Phys. Chem. A,
     2023, XX, XXXX-XXXX. DOI: 10.1021/acs.jpca.3c04382
   
   for DFT-D4:
   * E. Caldeweyher, C. Bannwarth and S. Grimme, J. Chem. Phys., 2017,
     147, 034112. DOI: 10.1063/1.4993215
   * E. Caldeweyher, S. Ehlert, A. Hansen, H. Neugebauer, S. Spicher,
     C. Bannwarth and S. Grimme, J. Chem. Phys., 2019, 150, 154122.
     DOI: 10.1063/1.5090222
   * E. Caldeweyher, J.-M. Mewes, S. Ehlert and S. Grimme, Phys. Chem. Chem. Phys.
     2020, 22, 8499-8512. DOI: 10.1039/D0CP00502A
   
   for sTDA-xTB:
   * S. Grimme and C. Bannwarth, J. Chem. Phys., 2016, 145, 054103.
     DOI: 10.1063/1.4959605
   
   in the mass-spec context:
   * V. Asgeirsson, C. Bauer and S. Grimme, Chem. Sci., 2017, 8, 4879.
     DOI: 10.1039/c7sc00601b
   * J. Koopman and S. Grimme, ACS Omega 2019, 4, 12, 15120-15133.
     DOI: 10.1021/acsomega.9b02011
   
   for metadynamics refer to:
   * S. Grimme, J. Chem. Theory Comput., 2019, 155, 2847-2862
     DOI: 10.1021/acs.jctc.9b00143
   
   for SPH calculations refer to:
   * S. Spicher and S. Grimme, J. Chem. Theory Comput., 2021, 17, 1701-1714
     DOI: 10.1021/acs.jctc.0c01306
   
   for ONIOM refer to:
   * C. Plett, A. Katbashev, S. Ehlert, S. Grimme, M. Bursch,
     Phys. Chem. Chem. Phys., 2023, 25, 17860-17868. DOI: 10.1039/D3CP02178E
   
   for DIPRO refer to:
   * J. Kohn, N. Gildemeister, S. Grimme, D. Fazzi, A. Hansen,
     J. Chem. Phys., 2023, just accepted.
   
   for PTB refer to:
   * S. Grimme, M. Mueller, A. Hansen, J. Chem. Phys., 2023, 158, 124111.
     DOI: 10.1063/5.0137838
   
   with help from (in alphabetical order)
   P. Atkinson, C. Bannwarth, F. Bohle, G. Brandenburg, E. Caldeweyher
   M. Checinski, S. Dohm, S. Ehlert, S. Ehrlich, I. Gerasimov, C. Hölzer
   A. Katbashev, J. Kohn, J. Koopman, C. Lavigne, S. Lehtola, F. März, M. Müller,
   F. Musil, H. Neugebauer, J. Pisarek, C. Plett, P. Pracht, F. Pultar,
   J. Seibert, P. Shushkov, S. Spicher, M. Stahn, M. Steiner, T. Strunk,
   J. Stückrath, T. Rose, and J. Unsleber
   
 * started run on 2025/04/09 at 14:03:16.790     
   ID    Z sym.   atoms
    1    6 C      1, 2, 7, 8, 10, 15, 16, 18, 19
    2    8 O      3, 6, 14, 17
    3   15 P      4, 12
    4   16 S      5, 9, 11, 13
    5    1 H      20-41

           -------------------------------------------------
          |                Calculation Setup                |
           -------------------------------------------------

          program call               : /srv/scratch/z5358697/.xtb/bin/xtb xtb_rrho.coord --gfn2 --bhess vtight --chrg 0 --enso --norestart -I rrho-xcontrol-inp --parallel 1 --alpb water
          hostname                   : k163
          coordinate file            : xtb_rrho.coord
          omp threads                :                     1


           -------------------------------------------------
          |                 G F N 2 - x T B                 |
           -------------------------------------------------

        Reference                      10.1021/acs.jctc.8b01176
      * Hamiltonian:
        H0-scaling (s, p, d)           1.850000    2.230000    2.230000
        zeta-weighting                 0.500000
      * Dispersion:
        s8                             2.700000
        a1                             0.520000
        a2                             5.000000
        s9                             5.000000
      * Repulsion:
        kExp                           1.500000    1.000000
        rExp                           1.000000
      * Coulomb:
        alpha                          2.000000
        third order                    shell-resolved
        anisotropic                    true
        a3                             3.000000
        a5                             4.000000
        cn-shift                       1.200000
        cn-exp                         4.000000
        max-rad                        5.000000

      * Solvation model:               ALPB
        Solvent                        water
        Parameter file                 internal GFN2-xTB/ALPB
        Dielectric constant                8.0200E+01
        Reference state                gsolv [1 M gas/solution]
        Free energy shift                  1.0808E-03 Eh       6.7819E-01 kcal/mol
        Temperature                        2.9815E+02 K
        Density                            1.0000E+00 kg/L
        Solvent mass                       1.8000E+01 g/mol
        Interaction kernel             P16
        Born radius scaling (c1)           1.4744E+00
        Born radii integrator          GBOBC
        Born offset                        0.0000E+00 a0       0.0000E+00 AA
        H-bond correction              true
        Ion screening                  false
        Surface tension                    1.0000E-05 Eh       1.5569E+01 dyn/cm
        Grid points                               974 per atom

          ...................................................
          :                      SETUP                      :
          :.................................................:
          :  # basis functions                 134          :
          :  # atomic orbitals                 128          :
          :  # shells                           66          :
          :  # electrons                       116          :
          :  max. iterations                   250          :
          :  Hamiltonian                  GFN2-xTB          :
          :  restarted?                      false          :
          :  GBSA solvation                   true          :
          :  PC potential                    false          :
          :  electronic temp.          300.0000000     K    :
          :  accuracy                    1.0000000          :
          :  -> integral cutoff          0.2500000E+02      :
          :  -> integral neglect         0.1000000E-07      :
          :  -> SCF convergence          0.1000000E-05 Eh   :
          :  -> wf. convergence          0.1000000E-03 e    :
          :  Broyden damping             0.4000000          :
          :  net charge                          0          :
          :  unpaired electrons                  0          :
          ...................................................

 iter      E             dE          RMSdq      gap      omega  full diag
   1    -65.4132686 -0.654133E+02  0.652E+00    4.39       0.0  T
   2    -65.5358286 -0.122560E+00  0.362E+00    3.82       1.0  T
   3    -65.5536117 -0.177831E-01  0.109E+00    3.41       1.0  T
   4    -65.5577494 -0.413768E-02  0.501E-01    3.37       1.0  T
   5    -65.5585595 -0.810065E-03  0.271E-01    3.43       1.0  T
   6    -65.5587501 -0.190558E-03  0.115E-01    3.43       1.0  T
   7    -65.5587946 -0.445653E-04  0.416E-02    3.45       1.0  T
   8    -65.5587982 -0.361560E-05  0.166E-02    3.46       1.0  T
   9    -65.5587989 -0.643894E-06  0.519E-03    3.46       3.0  T
  10    -65.5587989  0.622103E-08  0.258E-03    3.46       6.0  T
  11    -65.5587989 -0.459951E-07  0.621E-04    3.46      25.2  T
  12    -65.5587989 -0.870202E-09  0.266E-04    3.46      58.6  T

   *** convergence criteria satisfied after 12 iterations ***

         #    Occupation            Energy/Eh            Energy/eV
      -------------------------------------------------------------
         1        2.0000           -0.7594403             -20.6654
       ...           ...                  ...                  ...
        52        2.0000           -0.4478098             -12.1855
        53        2.0000           -0.4160851             -11.3223
        54        2.0000           -0.4090919             -11.1320
        55        2.0000           -0.3998158             -10.8795
        56        2.0000           -0.3975166             -10.8170
        57        2.0000           -0.3959502             -10.7744
        58        2.0000           -0.3938442             -10.7170 (HOMO)
        59                         -0.2667965              -7.2599 (LUMO)
        60                         -0.2587850              -7.0419
        61                         -0.2308708              -6.2823
        62                         -0.1908389              -5.1930
        63                         -0.1810640              -4.9270
       ...                                ...                  ...
       128                          1.2235105              33.2934
      -------------------------------------------------------------
                  HL-Gap            0.1270477 Eh            3.4571 eV
             Fermi-level           -0.3303204 Eh           -8.9885 eV

 SCC (total)                   0 d,  0 h,  0 min,  0.093 sec
 SCC setup                      ...        0 min,  0.003 sec (  2.716%)
 Dispersion                     ...        0 min,  0.000 sec (  0.325%)
 classical contributions        ...        0 min,  0.000 sec (  0.061%)
 integral evaluation            ...        0 min,  0.044 sec ( 47.683%)
 iterations                     ...        0 min,  0.024 sec ( 26.228%)
 molecular gradient             ...        0 min,  0.021 sec ( 22.748%)
 printout                       ...        0 min,  0.000 sec (  0.226%)

         :::::::::::::::::::::::::::::::::::::::::::::::::::::
         ::                     SUMMARY                     ::
         :::::::::::::::::::::::::::::::::::::::::::::::::::::
         :: total energy             -65.020208542581 Eh    ::
         :: total w/o Gsasa/hb       -65.021962204439 Eh    ::
         :: gradient norm              0.055791431616 Eh/a0 ::
         :: HOMO-LUMO gap              3.457145102263 eV    ::
         ::.................................................::
         :: SCC energy               -65.557875628697 Eh    ::
         :: -> isotropic ES            0.124161201377 Eh    ::
         :: -> anisotropic ES         -0.013419179230 Eh    ::
         :: -> anisotropic XC          0.031227430029 Eh    ::
         :: -> dispersion             -0.052232319701 Eh    ::
         :: -> Gsolv                  -0.019859009220 Eh    ::
         ::    -> Gelec               -0.021612671079 Eh    ::
         ::    -> Gsasa                0.004961372173 Eh    ::
         ::    -> Ghb                 -0.004288470012 Eh    ::
         ::    -> Gshift               0.001080759698 Eh    ::
         :: repulsion energy           0.537667086117 Eh    ::
         :: add. restraining           0.000000000000 Eh    ::
         :: total charge               0.000000000000 e     ::
         :::::::::::::::::::::::::::::::::::::::::::::::::::::

metadynamics with 1 initial structures loaded
           -------------------------------------------------
          |           Optimal kpush determination           |
           -------------------------------------------------
      ----------------------------------------------------------- 
     |                   =====================                   |
     |                        A N C O P T                        |
     |                   =====================                   |
     |               Approximate Normal Coordinate               |
     |                Rational Function Optimizer                |
      ----------------------------------------------------------- 
target rmsd / Å         0.100000
unbiased initial rmsd   0.261041
 
iter. min.        max.        rmsd       kpush
      ----------------------------------------------------------- 
     |                   =====================                   |
     |                        A N C O P T                        |
     |                   =====================                   |
     |               Approximate Normal Coordinate               |
     |                Rational Function Optimizer                |
      ----------------------------------------------------------- 
 1    0.000000    1.863636    0.014964   -0.931818
      ----------------------------------------------------------- 
     |                   =====================                   |
     |                        A N C O P T                        |
     |                   =====================                   |
     |               Approximate Normal Coordinate               |
     |                Rational Function Optimizer                |
      ----------------------------------------------------------- 
 2    0.000000    0.931818    0.021327   -0.465909
      ----------------------------------------------------------- 
     |                   =====================                   |
     |                        A N C O P T                        |
     |                   =====================                   |
     |               Approximate Normal Coordinate               |
     |                Rational Function Optimizer                |
      ----------------------------------------------------------- 
 3    0.000000    0.465909    0.030864   -0.232955
      ----------------------------------------------------------- 
     |                   =====================                   |
     |                        A N C O P T                        |
     |                   =====================                   |
     |               Approximate Normal Coordinate               |
     |                Rational Function Optimizer                |
      ----------------------------------------------------------- 
 4    0.000000    0.232955    0.045261   -0.116477
      ----------------------------------------------------------- 
     |                   =====================                   |
     |                        A N C O P T                        |
     |                   =====================                   |
     |               Approximate Normal Coordinate               |
     |                Rational Function Optimizer                |
      ----------------------------------------------------------- 
 5    0.000000    0.116477    0.066856   -0.058239
      ----------------------------------------------------------- 
     |                   =====================                   |
     |                        A N C O P T                        |
     |                   =====================                   |
     |               Approximate Normal Coordinate               |
     |                Rational Function Optimizer                |
      ----------------------------------------------------------- 
 6    0.000000    0.058239    0.097996   -0.029119
      ----------------------------------------------------------- 
     |                   =====================                   |
     |                        A N C O P T                        |
     |                   =====================                   |
     |               Approximate Normal Coordinate               |
     |                Rational Function Optimizer                |
      ----------------------------------------------------------- 
 7    0.000000    0.029119    0.138111   -0.014560
      ----------------------------------------------------------- 
     |                   =====================                   |
     |                        A N C O P T                        |
     |                   =====================                   |
     |               Approximate Normal Coordinate               |
     |                Rational Function Optimizer                |
      ----------------------------------------------------------- 
 8    0.014560    0.029119    0.113636   -0.021839
      ----------------------------------------------------------- 
     |                   =====================                   |
     |                        A N C O P T                        |
     |                   =====================                   |
     |               Approximate Normal Coordinate               |
     |                Rational Function Optimizer                |
      ----------------------------------------------------------- 
 9    0.021839    0.029119    0.105098   -0.025479
      ----------------------------------------------------------- 
     |                   =====================                   |
     |                        A N C O P T                        |
     |                   =====================                   |
     |               Approximate Normal Coordinate               |
     |                Rational Function Optimizer                |
      ----------------------------------------------------------- 
10    0.025479    0.029119    0.101424   -0.027299
final kpush: -0.027299
           -------------------------------------------------
          |            Biased Numerical Hessian             |
           -------------------------------------------------
kpush                :  -0.02730
alpha                :   1.00000
step length          :   0.00500
SCC accuracy         :   0.30000
Hessian scale factor :   1.00000
frozen atoms in %    :   0.00000    0
RMS gradient         :   0.00003
estimated CPU  time      0.15 min
estimated wall time      0.15 min

writing file <hessian>.

 projected vibrational frequencies (cm⁻¹)
eigval :       -0.00    -0.00    -0.00     0.00     0.00     0.00
eigval :       49.11    53.54    55.76    59.58    73.64    76.91
eigval :       69.26    79.35    76.36    80.27    73.90    88.06
eigval :       91.86   135.35   121.17   138.88   137.83   140.62
eigval :      155.62   172.94   195.02   210.09   228.66   241.86
eigval :      223.63   225.48   243.22   236.48   270.55   289.78
eigval :      325.32   321.10   344.50   427.12   424.44   433.23
eigval :      453.47   465.26   487.41   609.91   610.90   668.63
eigval :      708.32   725.62   726.35   761.87   772.42   783.72
eigval :      816.16   820.09   820.17   827.22   910.02   919.73
eigval :      933.10   955.03  1042.63  1044.63  1059.25  1069.22
eigval :     1093.19  1094.02  1094.05  1094.51  1088.09  1132.07
eigval :     1132.52  1134.03  1135.65  1169.91  1236.55  1237.18
eigval :     1239.88  1242.18  1307.28  1309.76  1313.74  1315.79
eigval :     1339.41  1391.47  1392.25  1392.45  1397.01  1435.72
eigval :     1438.81  1443.42  1446.04  1460.78  1461.83  1462.11
eigval :     1463.85  1474.81  1475.13  1475.29  1483.09  2910.46
eigval :     2915.70  2922.83  2924.48  2924.51  2969.87  2976.82
eigval :     2976.88  2980.10  3016.39  3016.90  3017.79  3019.96
eigval :     3030.51  3045.73  3045.94  3047.70  3048.30  3053.07
eigval :     3055.49  3058.13  3061.14
           -------------------------------------------------
          |                Property Printout                |
           -------------------------------------------------

    * Orbital Energies and Occupations

         #    Occupation            Energy/Eh            Energy/eV
      -------------------------------------------------------------
         1        2.0000           -0.7656835             -20.8353
       ...           ...                  ...                  ...
        46        2.0000           -0.4665364             -12.6951
        47        2.0000           -0.4590537             -12.4915
        48        2.0000           -0.4578864             -12.4597
        49        2.0000           -0.4548992             -12.3784
        50        2.0000           -0.4532199             -12.3327
        51        2.0000           -0.4496398             -12.2353
        52        2.0000           -0.4464960             -12.1498
        53        2.0000           -0.4179038             -11.3717
        54        2.0000           -0.4097428             -11.1497
        55        2.0000           -0.3970576             -10.8045
        56        2.0000           -0.3945946             -10.7375
        57        2.0000           -0.3935916             -10.7102
        58        2.0000           -0.3905945             -10.6286 (HOMO)
        59                         -0.2695005              -7.3335 (LUMO)
        60                         -0.2613870              -7.1127
        61                         -0.2234400              -6.0801
        62                         -0.1851630              -5.0385
        63                         -0.1781494              -4.8477
        64                         -0.1740078              -4.7350
        65                         -0.1640722              -4.4646
        66                         -0.1585915              -4.3155
        67                         -0.1371015              -3.7307
        68                         -0.1314779              -3.5777
        69                         -0.0472727              -1.2864
       ...                                ...                  ...
       128                          1.2171996              33.1217
      -------------------------------------------------------------
                  HL-Gap            0.1210940 Eh            3.2951 eV
             Fermi-level           -0.3300475 Eh           -8.9810 eV

     #   Z          covCN         q      C6AA      α(0)
     1   6 C        3.751    -0.128    23.028     6.844
     2   6 C        3.862     0.076    19.280     6.244
     3   8 O        1.655    -0.253    18.216     5.762
     4  15 P        3.822     0.383   144.348    21.582
     5  16 S        0.926    -0.482   160.551    21.432
     6   8 O        1.655    -0.254    18.229     5.764
     7   6 C        3.835     0.076    19.287     6.248
     8   6 C        3.751    -0.121    22.887     6.823
     9  16 S        2.005    -0.116   145.918    20.331
    10   6 C        3.801     0.036    19.972     6.363
    11  16 S        2.002    -0.134   146.694    20.385
    12  15 P        3.842     0.366   144.987    21.630
    13  16 S        0.926    -0.468   159.864    21.386
    14   8 O        1.655    -0.262    18.352     5.783
    15   6 C        3.867     0.087    19.096     6.214
    16   6 C        3.751    -0.125    22.955     6.833
    17   8 O        1.655    -0.260    18.328     5.779
    18   6 C        3.847     0.075    19.301     6.249
    19   6 C        3.751    -0.128    23.030     6.844
    20   1 H        0.925     0.052     2.291     2.367
    21   1 H        0.925     0.085     1.923     2.169
    22   1 H        0.925     0.075     2.028     2.227
    23   1 H        0.924     0.061     2.182     2.310
    24   1 H        0.924     0.094     1.843     2.123
    25   1 H        0.924     0.062     2.179     2.308
    26   1 H        0.924     0.096     1.826     2.113
    27   1 H        0.925     0.068     2.108     2.271
    28   1 H        0.925     0.046     2.366     2.406
    29   1 H        0.925     0.082     1.961     2.190
    30   1 H        0.925     0.119     1.618     1.989
    31   1 H        0.924     0.083     1.950     2.184
    32   1 H        0.924     0.082     1.961     2.190
    33   1 H        0.924     0.055     2.259     2.350
    34   1 H        0.925     0.073     2.055     2.242
    35   1 H        0.925     0.082     1.959     2.189
    36   1 H        0.925     0.053     2.277     2.360
    37   1 H        0.924     0.092     1.858     2.132
    38   1 H        0.924     0.063     2.161     2.299
    39   1 H        0.925     0.072     2.067     2.248
    40   1 H        0.925     0.085     1.930     2.172
    41   1 H        0.925     0.053     2.282     2.362

 Mol. C6AA /au·bohr⁶  :      26420.483651
 Mol. C8AA /au·bohr⁸  :     862823.866411
 Mol. α(0) /au        :        257.694450


Wiberg/Mayer (AO) data.
largest (>0.10) Wiberg bond orders for each atom

 ---------------------------------------------------------------------------
     #   Z sym  total        # sym  WBO       # sym  WBO       # sym  WBO
 ---------------------------------------------------------------------------
     1   6 C    3.986 --     2 C    1.021    22 H    0.982    20 H    0.976
                            21 H    0.976
     2   6 C    3.887 --     1 C    1.021    23 H    0.968    24 H    0.964
                             3 O    0.888
     3   8 O    2.413 --     4 P    1.332     2 C    0.888
     4  15 P    5.254 --     5 S    1.491     3 O    1.332     6 O    1.323
                             9 S    0.964
     5  16 S    1.838 --     4 P    1.491     9 S    0.145
     6   8 O    2.414 --     4 P    1.323     7 C    0.888
     7   6 C    3.888 --     8 C    1.021    25 H    0.965    26 H    0.964
                             6 O    0.888
     8   6 C    3.988 --     7 C    1.021    27 H    0.983    28 H    0.979
                            29 H    0.977
     9  16 S    2.293 --    10 C    1.002     4 P    0.964     5 S    0.145
    10   6 C    3.949 --     9 S    1.002    11 S    0.967    30 H    0.959
                            31 H    0.945
    11  16 S    2.269 --    12 P    1.000    10 C    0.967    13 S    0.132
    12  15 P    5.305 --    13 S    1.517    17 O    1.317    14 O    1.315
                            11 S    1.000
    13  16 S    1.846 --    12 P    1.517    11 S    0.132
    14   8 O    2.394 --    12 P    1.315    15 C    0.882
    15   6 C    3.894 --    16 C    1.022    33 H    0.968    32 H    0.966
                            14 O    0.882
    16   6 C    3.987 --    15 C    1.022    34 H    0.982    36 H    0.977
                            35 H    0.976
    17   8 O    2.404 --    12 P    1.317    18 C    0.888
    18   6 C    3.889 --    19 C    1.022    38 H    0.968    37 H    0.964
                            17 O    0.888
    19   6 C    3.987 --    18 C    1.022    39 H    0.982    41 H    0.977
                            40 H    0.976
    20   1 H    0.997 --     1 C    0.976
    21   1 H    0.992 --     1 C    0.976
    22   1 H    0.994 --     1 C    0.982
    23   1 H    0.996 --     2 C    0.968
    24   1 H    0.991 --     2 C    0.964
    25   1 H    0.996 --     7 C    0.965
    26   1 H    0.991 --     7 C    0.964
    27   1 H    0.995 --     8 C    0.983
    28   1 H    0.998 --     8 C    0.979
    29   1 H    0.993 --     8 C    0.977
    30   1 H    0.986 --    10 C    0.959
    31   1 H    0.993 --    10 C    0.945
    32   1 H    0.993 --    15 C    0.966
    33   1 H    0.997 --    15 C    0.968
    34   1 H    0.995 --    16 C    0.982
    35   1 H    0.992 --    16 C    0.976
    36   1 H    0.997 --    16 C    0.977
    37   1 H    0.991 --    18 C    0.964
    38   1 H    0.996 --    18 C    0.968
    39   1 H    0.995 --    19 C    0.982
    40   1 H    0.992 --    19 C    0.976
    41   1 H    0.997 --    19 C    0.977
 ---------------------------------------------------------------------------

Topologies differ in total number of bonds
Writing topology from bond orders to xtbtopo.mol

molecular dipole:
                 x           y           z       tot (Debye)
 q only:       -0.331      -1.408       0.711
   full:       -0.232      -0.921       1.039       3.578
molecular quadrupole (traceless):
                xx          xy          yy          xz          yz          zz
 q only:       16.038       4.523     -11.168     -13.732       8.050      -4.870
  q+dip:       19.190       5.784     -14.463     -11.979       8.529      -4.727
   full:       19.641       5.916     -13.943     -12.695       8.520      -5.698

           -------------------------------------------------
          |                Geometry Summary                 |
           -------------------------------------------------

      molecular mass/u    :      384.4756129
   center of mass at/Å    :       -0.0038134      -0.0120707      -0.0070819
  moments of inertia/u·Å² :        0.1383767E+04   0.3428836E+04   0.3548169E+04
rotational constants/cm⁻¹ :        0.1218242E-01   0.4916429E-02   0.4751080E-02

 * 38 selected distances

     #   Z          #   Z                                           value/Å
     1   6 C        2   6 C                                       1.5159637
     2   6 C        3   8 O                                       1.4373903
     3   8 O        4  15 P                                       1.5805448
     4  15 P        5  16 S                                       1.9693293
     4  15 P        6   8 O                                       1.5838057
     6   8 O        7   6 C                                       1.4375391
     7   6 C        8   6 C                                       1.5165892
     4  15 P        9  16 S                                       2.1310948 (max)
    11  16 S       12  15 P                                       2.1097269
    12  15 P       13  16 S                                       1.9629717
    12  15 P       14   8 O                                       1.5856119
    14   8 O       15   6 C                                       1.4405692
    15   6 C       16   6 C                                       1.5145166
    12  15 P       17   8 O                                       1.5926391
    17   8 O       18   6 C                                       1.4381752
    18   6 C       19   6 C                                       1.5156376
     1   6 C       20   1 H                                       1.0892903
     1   6 C       21   1 H                                       1.0856889
     1   6 C       22   1 H                                       1.0867894
     2   6 C       23   1 H                                       1.0948101
     2   6 C       24   1 H                                       1.0913225
     7   6 C       25   1 H                                       1.0954198
     7   6 C       26   1 H                                       1.0918585
     8   6 C       27   1 H                                       1.0869876
     8   6 C       28   1 H                                       1.0888921
     8   6 C       29   1 H                                       1.0852676 (min)
    10   6 C       30   1 H                                       1.0865429
    10   6 C       31   1 H                                       1.0927144
    15   6 C       32   1 H                                       1.0910474
    15   6 C       33   1 H                                       1.0953728
    16   6 C       34   1 H                                       1.0867623
    16   6 C       35   1 H                                       1.0859340
    16   6 C       36   1 H                                       1.0892851
    18   6 C       37   1 H                                       1.0911875
    18   6 C       38   1 H                                       1.0948306
    19   6 C       39   1 H                                       1.0868300
    19   6 C       40   1 H                                       1.0858818
    19   6 C       41   1 H                                       1.0889971

 * 5 distinct bonds (by element types)

   Z      Z             #   av. dist./Å        max./Å        min./Å
   1 H    6 C          22     1.0896233     1.0954198     1.0852676
   6 C    6 C           4     1.5156768     1.5165892     1.5145166
   6 C    8 O           4     1.4384185     1.4405692     1.4373903
   8 O   15 P           4     1.5856504     1.5926391     1.5805448
  15 P   16 S           4     2.0432807     2.1310948     1.9629717

           -------------------------------------------------
          |               Frequency Printout                |
           -------------------------------------------------
 projected vibrational frequencies (cm⁻¹)
eigval :       -0.00    -0.00    -0.00     0.00     0.00     0.00
eigval :       49.11    53.54    55.76    59.58    73.64    76.91
eigval :       69.26    79.35    76.36    80.27    73.90    88.06
eigval :       91.86   135.35   121.17   138.88   137.83   140.62
eigval :      155.62   172.94   195.02   210.09   228.66   241.86
eigval :      223.63   225.48   243.22   236.48   270.55   289.78
eigval :      325.32   321.10   344.50   427.12   424.44   433.23
eigval :      453.47   465.26   487.41   609.91   610.90   668.63
eigval :      708.32   725.62   726.35   761.87   772.42   783.72
eigval :      816.16   820.09   820.17   827.22   910.02   919.73
eigval :      933.10   955.03  1042.63  1044.63  1059.25  1069.22
eigval :     1093.19  1094.02  1094.05  1094.51  1088.09  1132.07
eigval :     1132.52  1134.03  1135.65  1169.91  1236.55  1237.18
eigval :     1239.88  1242.18  1307.28  1309.76  1313.74  1315.79
eigval :     1339.41  1391.47  1392.25  1392.45  1397.01  1435.72
eigval :     1438.81  1443.42  1446.04  1460.78  1461.83  1462.11
eigval :     1463.85  1474.81  1475.13  1475.29  1483.09  2910.46
eigval :     2915.70  2922.83  2924.48  2924.51  2969.87  2976.82
eigval :     2976.88  2980.10  3016.39  3016.90  3017.79  3019.96
eigval :     3030.51  3045.73  3045.94  3047.70  3048.30  3053.07
eigval :     3055.49  3058.13  3061.14
 reduced masses (amu)
   1: 17.52   2: 20.06   3: 17.04   4: 21.18   5: 19.75   6: 20.31   7: 26.12   8: 23.31
   9: 19.17  10: 21.03  11: 20.70  12: 19.96  13: 13.50  14: 17.77  15: 14.20  16: 13.67
  17: 11.07  18: 12.86  19: 11.75  20: 19.15  21: 12.88  22: 15.69  23: 12.74  24: 13.60
  25: 17.03  26: 14.72  27: 18.12  28: 20.14  29: 19.05  30: 16.83  31:  8.25  32:  6.82
  33: 10.08  34:  5.34  35: 15.36  36:  9.45  37: 16.86  38: 14.33  39: 18.33  40: 26.25
  41: 19.03  42: 13.99  43: 16.57  44: 11.58  45: 17.75  46: 25.43  47: 26.68  48: 18.20
  49: 16.96  50: 19.67  51: 19.76  52: 22.27  53: 21.75  54:  6.60  55:  2.82  56:  2.81
  57:  2.81  58:  2.91  59: 12.41  60: 12.45  61: 11.14  62: 10.32  63:  8.59  64:  8.95
  65:  9.85  66: 11.19  67:  7.52  68:  7.78  69:  7.65  70:  7.76  71:  1.67  72:  5.23
  73:  5.26  74:  5.27  75:  5.19  76:  2.21  77:  2.30  78:  2.31  79:  2.27  80:  2.23
  81:  3.10  82:  3.06  83:  3.01  84:  3.03  85:  1.79  86:  3.13  87:  3.10  88:  3.09
  89:  3.05  90:  1.93  91:  1.92  92:  1.89  93:  1.91  94:  1.51  95:  1.50  96:  1.50
  97:  1.50  98:  1.55  99:  1.56 100:  1.55 101:  1.57 102:  1.73 103:  1.75 104:  1.75
 105:  1.74 106:  1.74 107:  1.72 108:  1.72 109:  1.73 110:  1.71 111:  1.76 112:  1.75
 113:  1.80 114:  1.76 115:  1.80 116:  1.61 117:  1.62 118:  1.63 119:  1.64 120:  1.79
 121:  1.77 122:  1.77 123:  1.75
 IR intensities (km·mol⁻¹)
   1:  0.21   2:  0.08   3:  0.22   4:  0.01   5:  0.02   6:  0.04   7:  0.19   8:  1.39
   9:  1.80  10:  2.22  11:  4.68  12:  6.02  13:  6.63  14: 14.26  15:  0.86  16:  0.93
  17:  0.37  18:  0.31  19:  3.49  20:  3.58  21:  6.37  22: 17.21  23:  1.77  24:  9.96
  25: 18.53  26:  2.52  27:  4.76  28: 11.29  29:  5.13  30: 16.44  31:  5.30  32:  6.75
  33:  3.76  34:  1.62  35:  9.65  36:  6.17  37: 12.58  38:  6.77  39:  5.81  40: 72.44
  41: 53.78  42: 14.72  43: 20.78  44: 28.95  45:154.12  46: 97.94  47:256.00  48:  7.59
  49: 38.40  50:225.70  51:119.59  52:306.95  53:352.69  54: 13.91  55:  3.01  56:  4.79
  57:  7.19  58:  3.32  59:281.73  60:363.29  61: 95.99  62: 34.58  63:193.33  64:293.01
  65:123.76  66: 14.65  67: 12.56  68:  9.60  69:  8.14  70: 14.43  71:  2.63  72: 10.30
  73: 18.28  74: 21.82  75: 27.39  76: 25.53  77:  4.35  78:  2.68  79:  4.45  80:  5.79
  81:  6.05  82:  3.34  83:  4.82  84:  2.72  85: 14.29  86: 19.86  87:  6.06  88: 16.43
  89:  7.04  90:  7.07  91:  6.84  92:  4.59  93:  0.89  94:  5.98  95: 11.05  96:  8.12
  97:  7.41  98:  5.81  99:  2.72 100:  3.49 101:  1.41 102: 17.47 103: 24.72 104: 29.22
 105: 10.92 106: 45.84 107: 10.08 108: 15.63 109:  2.00 110: 10.10 111: 49.69 112: 59.36
 113: 10.53 114: 54.25 115: 37.35 116: 19.46 117: 15.43 118: 19.86 119: 11.51 120: 10.49
 121: 11.65 122: 10.85 123:  8.97
 Raman intensities (Ä⁴*amu⁻¹)
   1:  0.00   2:  0.00   3:  0.00   4:  0.00   5:  0.00   6:  0.00   7:  0.00   8:  0.00
   9:  0.00  10:  0.00  11:  0.00  12:  0.00  13:  0.00  14:  0.00  15:  0.00  16:  0.00
  17:  0.00  18:  0.00  19:  0.00  20:  0.00  21:  0.00  22:  0.00  23:  0.00  24:  0.00
  25:  0.00  26:  0.00  27:  0.00  28:  0.00  29:  0.00  30:  0.00  31:  0.00  32:  0.00
  33:  0.00  34:  0.00  35:  0.00  36:  0.00  37:  0.00  38:  0.00  39:  0.00  40:  0.00
  41:  0.00  42:  0.00  43:  0.00  44:  0.00  45:  0.00  46:  0.00  47:  0.00  48:  0.00
  49:  0.00  50:  0.00  51:  0.00  52:  0.00  53:  0.00  54:  0.00  55:  0.00  56:  0.00
  57:  0.00  58:  0.00  59:  0.00  60:  0.00  61:  0.00  62:  0.00  63:  0.00  64:  0.00
  65:  0.00  66:  0.00  67:  0.00  68:  0.00  69:  0.00  70:  0.00  71:  0.00  72:  0.00
  73:  0.00  74:  0.00  75:  0.00  76:  0.00  77:  0.00  78:  0.00  79:  0.00  80:  0.00
  81:  0.00  82:  0.00  83:  0.00  84:  0.00  85:  0.00  86:  0.00  87:  0.00  88:  0.00
  89:  0.00  90:  0.00  91:  0.00  92:  0.00  93:  0.00  94:  0.00  95:  0.00  96:  0.00
  97:  0.00  98:  0.00  99:  0.00 100:  0.00 101:  0.00 102:  0.00 103:  0.00 104:  0.00
 105:  0.00 106:  0.00 107:  0.00 108:  0.00 109:  0.00 110:  0.00 111:  0.00 112:  0.00
 113:  0.00 114:  0.00 115:  0.00 116:  0.00 117:  0.00 118:  0.00 119:  0.00 120:  0.00
 121:  0.00 122:  0.00 123:  0.00
 output can be read by thermo (or use thermo option).
 writing <g98.out> molden fake output.
 recommended (thermochemical) frequency scaling factor: 1.0
           -------------------------------------------------
          |             Thermodynamic Functions             |
           -------------------------------------------------

Molecule has no symmetry elements
It seems to be the C1 point group
c1  symmetry found (for desy threshold:  0.10E+00) used in thermo

          ...................................................
          :                      SETUP                      :
          :.................................................:
          :  # frequencies                         117      :
          :  # imaginary freq.                       0      :
          :  linear?                             false      :
          :  only rotor calc.                    false      :
          :  symmetry                               c1      :
          :  rotational number                       1      :
          :  scaling factor                  1.0000000      :
          :  rotor cutoff                    0.0000000 cm⁻¹ :
          :  imag. cutoff                 -100.0000000 cm⁻¹ :
          :.................................................:

    mode    ω/cm⁻¹     T·S(HO)/kcal·mol⁻¹    T·S(FR)/kcal·mol⁻¹   T·S(vib)
   ------------------------------------------------------------------------
       1     49.11    -1.44685 (100.00%)    -1.06181 (  0.00%)    -1.44685
       2     53.54    -1.39596 (100.00%)    -1.03624 (  0.00%)    -1.39596
       3     55.76    -1.37205 (100.00%)    -1.02422 (  0.00%)    -1.37205
       4     59.58    -1.33305 (100.00%)    -1.00459 (  0.00%)    -1.33305
       5     73.64    -1.20859 (100.00%)    -0.94183 (  0.00%)    -1.20859
       6     76.91    -1.18312 (100.00%)    -0.92896 (  0.00%)    -1.18312
       7     69.26    -1.24452 (100.00%)    -0.95998 (  0.00%)    -1.24452
       8     79.35    -1.16483 (100.00%)    -0.91971 (  0.00%)    -1.16483
       9     76.36    -1.18731 (100.00%)    -0.93108 (  0.00%)    -1.18731
      10     80.27    -1.15810 (100.00%)    -0.91630 (  0.00%)    -1.15810
      11     73.90    -1.20650 (100.00%)    -0.94078 (  0.00%)    -1.20650
      12     88.06    -1.10398 (100.00%)    -0.88887 (  0.00%)    -1.10398
      13     91.86    -1.07934 (100.00%)    -0.87635 (  0.00%)    -1.07934
      14    135.35    -0.85526 (100.00%)    -0.76152 (  0.00%)    -0.85526
      15    121.17    -0.91880 (100.00%)    -0.79432 (  0.00%)    -0.91880
      16    138.88    -0.84055 (100.00%)    -0.75390 (  0.00%)    -0.84055
      17    137.83    -0.84487 (100.00%)    -0.75614 (  0.00%)    -0.84487
      18    140.62    -0.83345 (100.00%)    -0.75021 (  0.00%)    -0.83345
      19    155.62    -0.77588 (100.00%)    -0.72018 (  0.00%)    -0.77588
      20    172.94    -0.71655 (100.00%)    -0.68893 (  0.00%)    -0.71655
      21    195.02    -0.64985 (100.00%)    -0.65334 (  0.00%)    -0.64985
      22    210.09    -0.60907 (100.00%)    -0.63128 (  0.00%)    -0.60907
      23    228.66    -0.56334 (100.00%)    -0.60620 (  0.00%)    -0.56334
      24    241.86    -0.53343 (100.00%)    -0.58956 (  0.00%)    -0.53343
      25    223.63    -0.57529 (100.00%)    -0.61278 (  0.00%)    -0.57529
      26    225.48    -0.57086 (100.00%)    -0.61035 (  0.00%)    -0.57086
      27    243.22    -0.53047 (100.00%)    -0.58791 (  0.00%)    -0.53047
      28    236.48    -0.54537 (100.00%)    -0.59622 (  0.00%)    -0.54537
      29    270.55    -0.47486 (100.00%)    -0.55636 (  0.00%)    -0.47486
      30    289.78    -0.43984 (100.00%)    -0.53602 (  0.00%)    -0.43984
   ------------------------------------------------------------------------

   temp. (K)  partition function   enthalpy   heat capacity  entropy
                                   cal/mol     cal/K/mol   cal/K/mol   J/K/mol
 298.15  VIB  0.544E+12            15529.278     88.337    105.784
         ROT  0.991E+07              888.752      2.981     34.994
         INT  0.539E+19            16418.031     91.318    140.778
         TR   0.729E+28             1481.254      4.968     43.712
         TOT                       17899.2848    96.2860   184.4909   771.9099

       T/K    H(0)-H(T)+PV         H(T)/Eh          T*S/Eh         G(T)/Eh
   ------------------------------------------------------------------------
    298.15    0.285243E-01    0.341509E+00    0.876576E-01    0.253851E+00
   ------------------------------------------------------------------------

         :::::::::::::::::::::::::::::::::::::::::::::::::::::
         ::                  THERMODYNAMIC                  ::
         :::::::::::::::::::::::::::::::::::::::::::::::::::::
         :: total free energy         -64.800055119752 Eh   ::
         ::.................................................::
         :: total energy              -65.053906132906 Eh   ::
         :: zero point energy           0.312984265802 Eh   ::
         :: G(RRHO) w/o ZPVE           -0.059133252649 Eh   ::
         :: G(RRHO) contrib.            0.253851013153 Eh   ::
         :::::::::::::::::::::::::::::::::::::::::::::::::::::

optimized geometry written to: xtbopt.coord


           -------------------------------------------------
          | TOTAL ENERGY              -65.053906132906 Eh   |
          | TOTAL ENTHALPY            -64.712397541198 Eh   |
          | TOTAL FREE ENERGY         -64.800055119752 Eh   |
          | GRADIENT NORM               0.000034952662 Eh/α |
          | HOMO-LUMO GAP               3.295134836705 eV   |
           -------------------------------------------------

------------------------------------------------------------------------
 * finished run on 2025/04/09 at 14:03:36.222     
------------------------------------------------------------------------
 total:
 * wall-time:     0 d,  0 h,  0 min, 19.431 sec
 *  cpu-time:     0 d,  0 h,  0 min, 19.139 sec
 * ratio c/w:     0.985 speedup
 SCF:
 * wall-time:     0 d,  0 h,  0 min,  0.093 sec
 *  cpu-time:     0 d,  0 h,  0 min,  0.057 sec
 * ratio c/w:     0.611 speedup
 analytical hessian:
 * wall-time:     0 d,  0 h,  0 min,  8.929 sec
 *  cpu-time:     0 d,  0 h,  0 min,  8.896 sec
 * ratio c/w:     0.996 speedup

