41
 energy: -2932.484384482717 gnorm: 0.001389734137 xtb: 6.7.1 (edcfbbe)
C            5.13626269875225       -2.10782263022509       -1.59448641835849
C            3.71595710021079       -1.87931664875124       -2.04383117008680
O            2.84333908413122       -1.76597308649157       -0.86095013152728
P            2.15078508410398       -0.36111040011949       -0.48987879094501
S            3.28236784667917        1.22141546905177       -0.42867560362911
O            1.40418943762488       -0.78843897432692        0.86197650113211
C            1.71307632125530       -0.19657796586004        2.17150437302579
C            0.64246160530646       -0.66158902183056        3.12416835444770
S            0.59158341245680       -0.32049849228092       -1.93232076512372
C            0.08108748570785        1.44027296102515       -1.80978042338477
S           -0.57222523121975        2.02420043315393       -0.19983170913622
P           -2.39995053042358        0.94450892423261       -0.12188913421270
S           -3.45601433411010        0.87817330822041       -1.75727780691877
O           -2.98402636369100        1.76669348928651        1.13087383874843
C           -4.40804968114114        1.70260370018237        1.49616170435790
C           -4.80218411013941        0.35043834721171        2.03822341406460
O           -2.01795879076149       -0.48442947061811        0.51670062749571
C           -2.38147624849835       -1.76996427785493       -0.09038781921198
C           -1.67565345126053       -2.84337080744250        0.69736168026603
H            5.20919530577904       -3.00028026760002       -0.96684992431150
H            5.76880771901375       -2.25343678713340       -2.47614842493338
H            5.51254686346345       -1.24604131693314       -1.03634598256230
H            3.32203568081727       -2.72653747339168       -2.60986028853570
H            3.62673717367705       -0.97571532547281       -2.65439333747603
H            2.70769406338841       -0.53743275596245        2.47363988968960
H            1.71874068176896        0.89175751677251        2.06723359306138
H            0.85503369270728       -0.25148725187066        4.11637197680729
H           -0.34305650232241       -0.30901563046557        2.80692538762398
H            0.62616511297620       -1.75270633162470        3.19811173106611
H           -0.67490032053963        1.58227142041646       -2.58818303990461
H            0.94225590186683        2.08159500008914       -2.01774651580000
H           -4.50896667000823        2.48329519195547        2.25224534240723
H           -4.99691961326535        1.98000485334843        0.61623457164000
H           -4.15585268587184        0.05543770986884        2.86974815890827
H           -5.83147181394941        0.41330969615738        2.40617448963806
H           -4.76791658702978       -0.42364798245787        1.26580445194672
H           -3.46906294763627       -1.87629945171512       -0.03854305873419
H           -2.07001270032090       -1.76569171742913       -1.13804011581462
H           -1.96123876018970       -2.80773397762002        1.75281311843196
H           -1.96253155781547       -3.81967608318627        0.29449052240169
H           -0.59004773298312       -2.74042315382211        0.61682549349797
41
 energy: -2932.484368739386 gnorm: 0.002913101298 xtb: 6.7.1 (edcfbbe)
C            5.13653170896395       -2.10982168796961       -1.59341897445068
C            3.71689402082612       -1.87977671312984       -2.04343638512163
O            2.84453368288740       -1.76867038008918       -0.86024620286027
P            2.15317041808575       -0.36356769413341       -0.48862460830579
S            3.28099526170393        1.22167763222641       -0.42869532095551
O            1.40422600737008       -0.78943738362687        0.86226550841750
C            1.71246549439460       -0.19729676782594        2.17187637877469
C            0.64163547153178       -0.66174428742574        3.12460100423144
S            0.59162600835616       -0.31179219897049       -1.92571968441789
C            0.07452930982123        1.44702304183269       -1.81383376369462
S           -0.57338709587349        2.02661541820547       -0.20055855644857
P           -2.39850896682994        0.94387467061412       -0.12385096716976
S           -3.45616490907491        0.87627994099882       -1.75728013949983
O           -2.98217606932000        1.76623608704298        1.12913551724305
C           -4.40648130038419        1.70206370841067        1.49546453566791
C           -4.80060926820929        0.35050812088656        2.03873170586412
O           -2.01670757336961       -0.48522928636920        0.51475532247092
C           -2.38081358668249       -1.77117857656467       -0.09113192603591
C           -1.67456582570646       -2.84374900775253        0.69757536508651
H            5.20778940422113       -3.00402825036246       -0.96775265521256
H            5.76907783123321       -2.25435741144347       -2.47525727942767
H            5.51373380818180       -1.24954902072020       -1.03335686709069
H            3.32246874375571       -2.72612982978345       -2.61084988738128
H            3.62702895982327       -0.97468800106011       -2.65227800217867
H            2.70679009631073       -0.53889206189596        2.47412678945623
H            1.71913068295746        0.89106949990965        2.06809556655077
H            0.85407155428995       -0.25215146668239        4.11708439574473
H           -0.34357657134337       -0.30848693353450        2.80712942686651
H            0.62479701658673       -1.75288887090164        3.19817232614533
H           -0.68171428350311        1.58704748582848       -2.59217619749238
H            0.93608374239456        2.08763642329628       -2.02178385730057
H           -4.50672807063628        2.48320659081432        2.25114296614218
H           -4.99585822533790        1.97901564739773        0.61574666839262
H           -4.15407884777873        0.05635208311910        2.87047058925835
H           -5.82992871507888        0.41372867898368        2.40687811025828
H           -4.76648959904936       -0.42414251948176        1.26692392045602
H           -3.46838856442912       -1.87740078776100       -0.03833543434044
H           -2.07009036399244       -1.76768105907007       -1.13901445761873
H           -1.95990363688139       -2.80712220522972        1.75311335076246
H           -1.96164530347417       -3.82057769395814        0.29595807024092
H           -0.58895648059063       -2.74121372125119        0.61645988144104
41
 energy: -2932.484390894056 gnorm: 0.001105540972 xtb: 6.7.1 (edcfbbe)
C            5.13537480595479       -2.10982547383080       -1.59289293665478
C            3.71612684033227       -1.87825955554503       -2.04348575011988
O            2.84245608435741       -1.76638661368606       -0.86112140933419
P            2.15143593072802       -0.36115407473842       -0.48933421942781
S            3.28222822690404        1.22194442983542       -0.42709409228828
O            1.40310898592076       -0.78779416705913        0.86170481753271
C            1.71223130632383       -0.19703525578806        2.17174690927073
C            0.64145408955209       -0.66171776077921        3.12446020038920
S            0.59153199802040       -0.31464963776018       -1.92919200604853
C            0.07705197476440        1.44487270919632       -1.81338368842320
S           -0.57309447772862        2.02594721649274       -0.20154530010410
P           -2.39854563082297        0.94388184434662       -0.12372820973973
S           -3.45571614482040        0.87637055595074       -1.75751174664094
O           -2.98219193867827        1.76618229791810        1.12934144206828
C           -4.40651020507105        1.70193862016383        1.49568120248377
C           -4.80031387032275        0.35038916888241        2.03909675419143
O           -2.01654519922437       -0.48527834233068        0.51469235337195
C           -2.38055483068933       -1.77130209375868       -0.09111903585259
C           -1.67422495537158       -2.84380565186987        0.69763457532519
H            5.20570695959215       -3.00450205457837       -0.96775036580978
H            5.76823412250052       -2.25450918090195       -2.47450955351141
H            5.51326742642900       -1.25024621990484       -1.03224010606722
H            3.32159145838426       -2.72434721589873       -2.61128205702148
H            3.62742576652424       -0.97313045766085       -2.65241252715164
H            2.70650028234947       -0.53923257644910        2.47354281807976
H            1.71927599069637        0.89138656486711        2.06872486353672
H            0.85409143518003       -0.25259452634814        4.11709811426552
H           -0.34374870309866       -0.30812805959455        2.80731517503812
H            0.62438118477609       -1.75289231536180        3.19761022201359
H           -0.67958896816928        1.58525464965665       -2.59133160260401
H            0.93780181961515        2.08637852748054       -2.02196801688264
H           -4.50666609433982        2.48320518904264        2.25123197289295
H           -4.99582326363679        1.97871990272538        0.61587094804466
H           -4.15370341470279        0.05649686842668        2.87087377373982
H           -5.82963871201482        0.41353672704717        2.40725258424513
H           -4.76606695068097       -0.42436630457880        1.26740352978118
H           -3.46811890303380       -1.87761473480219       -0.03821743432991
H           -2.06994600075585       -1.76790032156633       -1.13904020799502
H           -1.95947131654126       -2.80699402546328        1.75319309291541
H           -1.96136711560635       -3.82072546948267        0.29625056343902
H           -0.58862168155874       -2.74133838215538        0.61637260358746
41
 energy: -2932.484395793348 gnorm: 0.000811612521 xtb: 6.7.1 (edcfbbe)
C            5.13310863941642       -2.11126913133158       -1.59109947729472
C            3.71502335510166       -1.87582707471240       -2.04319502483786
O            2.83945481007303       -1.76383723261064       -0.86191634980216
P            2.14885491758608       -0.35849436396275       -0.48976679921394
S            3.28108459699487        1.22356349709738       -0.42746902446359
O            1.40061854749726       -0.78549235445628        0.86130367468687
C            1.71148755793113       -0.19703036824064        2.17191309367279
C            0.64042253652491       -0.66183398214888        3.12429973186712
S            0.59278600345772       -0.31532212427260       -1.93516534117117
C            0.07902735487490        1.44416698532777       -1.81377805896154
S           -0.57316415757047        2.02670190769322       -0.20324449256732
P           -2.39856901740519        0.94358670388740       -0.12460239981082
S           -3.45590320780835        0.87570835809661       -1.75890304426063
O           -2.98166762988925        1.76581771592732        1.12883787090671
C           -4.40588642481365        1.70139937187719        1.49584710774633
C           -4.79857098444807        0.35002727293466        2.04032666625136
O           -2.01526338242641       -0.48531305844333        0.51374453772163
C           -2.37930364506005       -1.77175397852840       -0.09117801935102
C           -1.67275831694431       -2.84400096600508        0.69774598953469
H            5.20069511212856       -3.00756104724480       -0.96801125539193
H            5.76692084617971       -2.25540586073095       -2.47215998561974
H            5.51219413076575       -1.25390898664117       -1.02791448656323
H            3.31986441360914       -2.72027988418900       -2.61291872896970
H            3.62931232553281       -0.96979157672428       -2.65106737052981
H            2.70551914472684       -0.54083906101099        2.47270522700661
H            1.71970529933112        0.89150048151447        2.07014918219502
H            0.85374605342533       -0.25379554325141        4.11721991282819
H           -0.34460835850126       -0.30711285012748        2.80785792116939
H            0.62242513700552       -1.75306028688440        3.19646766501499
H           -0.67823797015249        1.58420832079184       -2.59131308716307
H            0.93834683700502        2.08724488605715       -2.02359797918690
H           -4.50575234426556        2.48323523237590        2.25082561809142
H           -4.99541433522207        1.97734990874123        0.61594466803304
H           -4.15168287189649        0.05716284983622        2.87222734907428
H           -5.82782547164895        0.41296762062123        2.40864450482542
H           -4.76408511295673       -0.42538198421646        1.26930971187683
H           -3.46683082440366       -1.87821729242935       -0.03779108270486
H           -2.06920106243046       -1.76896923328722       -1.13925809823549
H           -1.95747899343763       -2.80631582894207        1.75339945137908
H           -1.96035757018614       -3.82117700342687        0.29728103777453
H           -0.58719078752195       -2.74184477873938        0.61582007795762
41
 energy: -2932.484395793348 gnorm: 0.000811612521 xtb: 6.7.1 (edcfbbe)
C            5.13310863941642       -2.11126913133158       -1.59109947729472
C            3.71502335510166       -1.87582707471240       -2.04319502483786
O            2.83945481007303       -1.76383723261064       -0.86191634980216
P            2.14885491758608       -0.35849436396275       -0.48976679921394
S            3.28108459699487        1.22356349709738       -0.42746902446359
O            1.40061854749726       -0.78549235445628        0.86130367468687
C            1.71148755793113       -0.19703036824064        2.17191309367279
C            0.64042253652491       -0.66183398214888        3.12429973186712
S            0.59278600345772       -0.31532212427260       -1.93516534117117
C            0.07902735487490        1.44416698532777       -1.81377805896154
S           -0.57316415757047        2.02670190769322       -0.20324449256732
P           -2.39856901740519        0.94358670388740       -0.12460239981082
S           -3.45590320780835        0.87570835809661       -1.75890304426063
O           -2.98166762988925        1.76581771592732        1.12883787090671
C           -4.40588642481365        1.70139937187719        1.49584710774633
C           -4.79857098444807        0.35002727293466        2.04032666625136
O           -2.01526338242641       -0.48531305844333        0.51374453772163
C           -2.37930364506005       -1.77175397852840       -0.09117801935102
C           -1.67275831694431       -2.84400096600508        0.69774598953469
H            5.20069511212856       -3.00756104724480       -0.96801125539193
H            5.76692084617971       -2.25540586073095       -2.47215998561974
H            5.51219413076575       -1.25390898664117       -1.02791448656323
H            3.31986441360914       -2.72027988418900       -2.61291872896970
H            3.62931232553281       -0.96979157672428       -2.65106737052981
H            2.70551914472684       -0.54083906101099        2.47270522700661
H            1.71970529933112        0.89150048151447        2.07014918219502
H            0.85374605342533       -0.25379554325141        4.11721991282819
H           -0.34460835850126       -0.30711285012748        2.80785792116939
H            0.62242513700552       -1.75306028688440        3.19646766501499
H           -0.67823797015249        1.58420832079184       -2.59131308716307
H            0.93834683700502        2.08724488605715       -2.02359797918690
H           -4.50575234426556        2.48323523237590        2.25082561809142
H           -4.99541433522207        1.97734990874123        0.61594466803304
H           -4.15168287189649        0.05716284983622        2.87222734907428
H           -5.82782547164895        0.41296762062123        2.40864450482542
H           -4.76408511295673       -0.42538198421646        1.26930971187683
H           -3.46683082440366       -1.87821729242935       -0.03779108270486
H           -2.06920106243046       -1.76896923328722       -1.13925809823549
H           -1.95747899343763       -2.80631582894207        1.75339945137908
H           -1.96035757018614       -3.82117700342687        0.29728103777453
H           -0.58719078752195       -2.74184477873938        0.61582007795762
