38
 energy: -1981.480477866427 gnorm: 0.002895720788 xtb: 6.7.1 (edcfbbe)
C            3.90139927917373       -3.78137135130001       -0.78512092781846
C            4.40296353012801       -2.44557035421012       -1.28122461688428
O            3.31631398225040       -1.68298858704129       -1.90340236006654
C            2.52082413346413       -0.97684326715325       -1.09303391088143
O            2.64370023912702       -0.91198785718301        0.11837475197828
C            1.46946952524732       -0.23643551808631       -1.88134714254174
C            0.38795011484974        0.37696776547841       -0.99864395679784
H           -0.26403579247723        0.99034979485708       -1.63285081243232
C            0.99020516388579        1.33691354497698        0.01935532806925
O            1.84066982593552        2.14584407096777       -0.31006243445924
O            0.44278321963484        1.25188640251244        1.22409973252232
C            0.91679062924878        2.17918225869189        2.25388889076721
C            2.15197156272682        1.62594929597676        2.92670913638322
S           -0.66571118787862       -0.97852545308815       -0.31119534084963
P           -2.40001228356117        0.06644855953441        0.28931808446191
S           -2.76188557914786        1.75202303899701       -0.61442538426246
O           -3.52990986524699       -1.08123396205495        0.15576841886473
C           -4.10965702924061       -1.37299242357930       -1.14405782310421
O           -2.24653354650769        0.10261234308456        1.88874304289489
C           -3.18464216134569        0.89107859412665        2.67659118436553
H            3.44785704672444       -4.35198479464072       -1.60053161527573
H            4.74853692358354       -4.35451505996656       -0.39543375525946
H            3.16907249245387       -3.66109458151734        0.01780313729162
H            5.13073665775839       -2.56309842149325       -2.08584685794918
H            4.84085451029402       -1.84274578252493       -0.48197513990806
H            1.03455509432231       -0.89705593477446       -2.63573010784908
H            1.97569540385619        0.56920879640338       -2.42520082811112
H            1.08989180432681        3.15556251120558        1.79493491685042
H            0.07343223879795        2.24387090432457        2.94504861645408
H            2.98628902388233        1.54462723928681        2.22376491210393
H            2.44709458779861        2.30145944025406        3.73551477082723
H            1.94886127361502        0.64043401365943        3.35663942796186
H           -4.76799392635638       -2.22746978324575       -0.98699100331001
H           -3.32797937451576       -1.63177297268399       -1.86410835272832
H           -4.68373233959947       -0.51370162763230       -1.49925776229928
H           -3.08887787980184        1.94980086490375        2.42267579666727
H           -2.89949527120282        0.72698794305269        3.71568414166865
H           -4.20915704732979        0.54757589929295        2.50879102987966
38
 energy: -1981.480493738145 gnorm: 0.001666389578 xtb: 6.7.1 (edcfbbe)
C            3.90124664707154       -3.78074726668921       -0.78411394638692
C            4.40315084766225       -2.44551598446314       -1.28069020010386
O            3.31649822863534       -1.68314653880277       -1.90454453085047
C            2.51991155923570       -0.97764976071577       -1.09389152236272
O            2.64242172853164       -0.91401426802053        0.11752966931440
C            1.46916246923660       -0.23648255822518       -1.88144446347998
C            0.38822841039714        0.37778721137327       -0.99819967708246
H           -0.26363008079917        0.99108292513942       -1.63251938187241
C            0.99117724142436        1.33695003643891        0.02016582769162
O            1.84285078261709        2.14461033542246       -0.30911448528961
O            0.44398749622550        1.25186224937920        1.22489672048692
C            0.91851170738817        2.17922034042452        2.25497783984320
C            2.15422180700860        1.62731695474284        2.92590827826992
S           -0.66624228175745       -0.97922588418583       -0.31227715865413
P           -2.40092570819903        0.06546763184775        0.28854122565362
S           -2.76534672786147        1.75128722387740       -0.61332874433932
O           -3.52942006942815       -1.08340911862176        0.15379173384526
C           -4.11086845177103       -1.37375547421236       -1.14639566508489
O           -2.24905369110309        0.10125519653592        1.88829251486570
C           -3.18593246851140        0.89121743006370        2.67781817008389
H            3.44855211741709       -4.35213207161070       -1.59947971810584
H            4.74781506182025       -4.35375386741930       -0.39287423006055
H            3.16812576576463       -3.65988152992854        0.01792784921268
H            5.13150677978651       -2.56333859367734       -2.08466556980481
H            4.84010222374770       -1.84171277678247       -0.48176662606089
H            1.03315534802199       -0.89591603836825       -2.63625406792429
H            1.97613601169023        0.56883489650915       -2.42523834201895
H            1.09088625166749        3.15554471542166        1.79591889546211
H            0.07537777208299        2.24399072960352        2.94628661803381
H            2.98763486831736        1.54761389248478        2.22241694750430
H            2.44944814398734        2.30206412797569        3.73536756382901
H            1.95293304427777        0.64158821299503        3.35510146547928
H           -4.76921088793639       -2.22811220058267       -0.98896027933308
H           -3.32970088014927       -1.63238857794726       -1.86720776852103
H           -4.68476293770505       -0.51370156796318       -1.50007231675448
H           -3.08813207159861        1.94988862408810        2.42512173608478
H           -2.90051348126429        0.72499822258587        3.71649349730220
H           -4.21099831798367        0.54970516250738        2.50973580646011
38
 energy: -1981.480504774182 gnorm: 0.002646323689 xtb: 6.7.1 (edcfbbe)
C            3.90007817304511       -3.77801110255753       -0.77949053224812
C            4.40348536779222       -2.44503865574574       -1.27833149821460
O            3.31716269355481       -1.68307656738851       -1.90823548053282
C            2.51655131180415       -0.97998928643508       -1.09664893519641
O            2.63656673064434       -0.92198841454525        0.11503089749443
C            1.46861055868164       -0.23559966501844       -1.88225100002889
C            0.39013681445042        0.38182459577607       -0.99702032005895
H           -0.26154571474226        0.99606157432815       -1.63023480031802
C            0.99664904571692        1.33589785478976        0.02379482912844
O            1.85153690767418        2.14015318309312       -0.30487437895612
O            0.44882554771094        1.25127546260978        1.22805267927981
C            0.92564470249993        2.17970489806736        2.25851592965590
C            2.16450272675806        1.63229044139919        2.92216538476211
S           -0.66933783789965       -0.97539104869122       -0.31113151769087
P           -2.40950423896888        0.06077745076471        0.28655766889266
S           -2.77342790373993        1.74731951896189       -0.61352626891835
O           -3.53203467294642       -1.09341489075672        0.14623401873841
C           -4.11745872273856       -1.37784286971781       -1.15601049891678
O           -2.26042228859666        0.09358473244735        1.88707032403077
C           -3.19040821792332        0.89057695550510        2.68262298058718
H            3.45117587235942       -4.35270615904005       -1.59469504514797
H            4.74472494401532       -4.34985928746736       -0.38208043410454
H            3.16356344011132       -3.65482101402583        0.01895618166710
H            5.13371882012656       -2.56421436045226       -2.08027237944611
H            4.83720745245027       -1.83753419299854       -0.48070733904142
H            1.02847042233467       -0.89107592425638       -2.63820719489431
H            1.97842741131526        0.56823543002856       -2.42591580871231
H            1.09342022654288        3.15616470502698        1.79843234901868
H            0.08380712444000        2.24293218720635        2.95131095482745
H            2.99531568421531        1.56014676083733        2.21615246637680
H            2.45940424904228        2.30485035208108        3.73372176356975
H            1.97125235042057        0.64467922677373        3.34881619280775
H           -4.77647024918845       -2.23153894794065       -0.99871500970027
H           -3.33727307032875       -1.63526885226923       -1.87858955346452
H           -4.68968716190229       -0.51439740397777       -1.50389971481480
H           -3.08223455656839        1.94887881517490        2.43395796357036
H           -2.90389155219391        0.71536081643350        3.71953076083683
H           -4.21820085161602        0.55848157738386        2.51312268228512
38
 energy: -1981.480514724272 gnorm: 0.001908905935 xtb: 6.7.1 (edcfbbe)
C            3.89969647647694       -3.77762974745895       -0.77905469597148
C            4.40281437610604       -2.44443322028918       -1.27805098234872
O            3.31660226371855       -1.68228535734277       -1.90731370592062
C            2.51595463783666       -0.97981014946555       -1.09563095967976
O            2.63558731717595       -0.92224999329794        0.11617575317882
C            1.46750480016731       -0.23555503566590       -1.88132683758888
C            0.38858892594757        0.38081374423516       -0.99603875104968
H           -0.26306645471867        0.99559412799709       -1.62883683782344
C            0.99502998301108        1.33556174909893        0.02427417661507
O            1.85028955589126        2.13950575278914       -0.30463905499463
O            0.44782736558976        1.25134177073678        1.22888742771565
C            0.92600739795803        2.17979522169454        2.25859886677596
C            2.16598455470573        1.63239224951838        2.92168901822521
S           -0.66906036215239       -0.97851739258487       -0.31221825980200
P           -2.40802636065246        0.06102496249872        0.28551701585253
S           -2.77563052242949        1.74787514752168       -0.61310590893084
O           -3.53096871398212       -1.09278451432854        0.14547396781123
C           -4.11681772936632       -1.37723564818660       -1.15622739586774
O           -2.25912095146585        0.09344876215322        1.88597385673814
C           -3.18925122907085        0.88989754247951        2.68103733802030
H            3.45116476394710       -4.35260043065839       -1.59423597991927
H            4.74458804187832       -4.34898870712891       -0.38153857064109
H            3.16300070195782       -3.65459365510396        0.01928015714119
H            5.13284670912782       -2.56376736595259       -2.08021003557437
H            4.83702559656677       -1.83727676318957       -0.48036574866755
H            1.02816572159696       -0.89152300125845       -2.63730543517918
H            1.97674726137355        0.56872032832161       -2.42485115093063
H            1.09276510955749        3.15647743681076        1.79830117419302
H            0.08504662663978        2.24219433494547        2.95262279884048
H            2.99692282063235        1.56094913205319        2.21511330779463
H            2.46078460203798        2.30521520855299        3.73307660159888
H            1.97325296664459        0.64420703353507        3.34825528089256
H           -4.77631697131027       -2.23062963480956       -0.99912694219395
H           -3.33721700523933       -1.63500714943648       -1.87908562803107
H           -4.68907299079068       -0.51398604195999       -1.50433612999822
H           -3.08039291532128        1.94834925086113        2.43305774931523
H           -2.90363452850448        0.71428954305265        3.71809034540155
H           -4.21727808349350        0.55864717509819        2.51128002207696
38
 energy: -1981.480522145697 gnorm: 0.000948406304 xtb: 6.7.1 (edcfbbe)
C            3.89876215265741       -3.77672544552072       -0.77799433386528
C            4.40131978885564       -2.44286696634986       -1.27712482160575
O            3.31573031764721       -1.68046224178711       -1.90475685712279
C            2.51501093225347       -0.97930962894383       -1.09361939314396
O            2.63348406645175       -0.92173769764233        0.11855797394064
C            1.46635501784729       -0.23489762783592       -1.88049352292640
C            0.38690983209998        0.37958404551661       -0.99532857632927
H           -0.26488688023924        0.99548791397581       -1.62705019414109
C            0.99242940852602        1.33482376971774        0.02504716680211
O            1.84774611928761        2.13914535046488       -0.30372297726466
O            0.44562957525437        1.25120466514610        1.22995185349771
C            0.92617322520820        2.17912344874978        2.25859829853014
C            2.16941057219400        1.63256940602426        2.91988461177276
S           -0.66913336642139       -0.98038560532214       -0.31469008861140
P           -2.40743398999669        0.05908761735073        0.28545226187775
S           -2.77425812620863        1.74613069686752       -0.61317509378023
O           -3.53288590199635       -1.09217952902770        0.14518504099754
C           -4.11684642385071       -1.37621123927233       -1.15615534947761
O           -2.25793293692878        0.09134556732470        1.88545950580547
C           -3.18700211177741        0.88840875509084        2.67816173612156
H            3.45099828357301       -4.35220013213300       -1.59316635184823
H            4.74426609304095       -4.34692835180932       -0.38031418354562
H            3.16169453889129       -3.65410983006583        0.02010910254813
H            5.13081948369309       -2.56268458288821       -2.07976589288129
H            4.83698368382779       -1.83688209827741       -0.47918145159222
H            1.02858018884160       -0.89238665002939       -2.63600552381640
H            1.97469870586152        0.57001783229793       -2.42365861841131
H            1.09073699398334        3.15655103582074        1.79868515253982
H            0.08779317432960        2.23951015462441        2.95604187352351
H            3.00031785460789        1.56264088821488        2.21201635377785
H            2.46397963547686        2.30588228569888        3.73097134995616
H            1.97790420516684        0.64326129717291        3.34596463745468
H           -4.77785604894693       -2.22880531133195       -1.00066105488858
H           -3.33722255037834       -1.63494496105641       -1.87835670599081
H           -4.68816773479033       -0.51307906376380       -1.50591520025753
H           -3.07561835588807        1.94697328363643        2.43121871511141
H           -2.90436693054858        0.71240219606877        3.71587858105692
H           -4.21577386111925        0.56007064547555        2.50715272024517
38
 energy: -1981.480528593413 gnorm: 0.000701520266 xtb: 6.7.1 (edcfbbe)
C            3.89759042017439       -3.77501247925743       -0.77560396799301
C            4.40056155862456       -2.44157812450224       -1.27545174173377
O            3.31552740745647       -1.67892944253968       -1.90382509489581
C            2.51363783616117       -0.97894205215072       -1.09284999464509
O            2.63027942576081       -0.92340947223835        0.11955233769896
C            1.46492354356937       -0.23447139942739       -1.87964336774775
C            0.38545645185974        0.37929350924399       -0.99389161847926
H           -0.26636453243452        0.99610613725465       -1.62477783906527
C            0.99244979143560        1.33297951117468        0.02703374094606
O            1.84762721038733        2.13723899729390       -0.30214398806936
O            0.44601547341485        1.24992910864127        1.23219198010705
C            0.92835647112414        2.17816595716174        2.26003668542730
C            2.17521813541094        1.63410559314797        2.91646986880758
S           -0.67032252209666       -0.98097100382394       -0.31328804636222
P           -2.40972001207988        0.05776282733792        0.28356548251739
S           -2.77721007731179        1.74599020140678       -0.61264041397521
O           -3.53389812482283       -1.09453521920434        0.14186020990425
C           -4.11848929025671       -1.37676348162161       -1.15957230891226
O           -2.26019128923340        0.08799385920516        1.88354526954083
C           -3.18635000197295        0.88724891830730        2.67746774314556
H            3.45153404121282       -4.35176064335600       -1.59083077367423
H            4.74276965142709       -4.34419711165810       -0.37574503047576
H            3.15917455255345       -3.65186419801312        0.02114640440524
H            5.13016963435857       -2.56202751393135       -2.07788076921692
H            4.83614235943371       -1.83512369514541       -0.47782492762745
H            1.02706181541519       -0.89174065214641       -2.63532847315909
H            1.97335350991640        0.57047955908870       -2.42261046631568
H            1.08911560214245        3.15621154218886        1.80018972320668
H            0.09242265680519        2.23620373317350        2.96053745650441
H            3.00441812486208        1.56815212756077        2.20646182039633
H            2.46964534787261        2.30690087884278        3.72801204402338
H            1.98811168178679        0.64360532444702        3.34140514267468
H           -4.78046768820957       -2.22875834941852       -1.00470093119812
H           -3.33924154431045       -1.63572098519686       -1.88217665859633
H           -4.68891368729642       -0.51257636270448       -1.50838365796858
H           -3.06969595634681        1.94594051992956        2.43334442676071
H           -2.90576992014856        0.70719742660839        3.71513658099692
H           -4.21656265646012        0.56430543002867        2.50439446350601
38
 energy: -1981.480537053313 gnorm: 0.000646971662 xtb: 6.7.1 (edcfbbe)
C            3.89491915701473       -3.77046015096143       -0.76914707496174
C            4.39918257320311       -2.43825876555875       -1.27059902860632
O            3.31521282821325       -1.67571069883852       -1.90171043390119
C            2.50942503802504       -0.97922214468619       -1.09119921829942
O            2.62288540294955       -0.92660084300308        0.12148165760912
C            1.46213559902881       -0.23351001483595       -1.87829116807449
C            0.38311645195334        0.37986484918669       -0.99150707490803
H           -0.26849872462969        0.99808554750768       -1.62114692683668
C            0.99137003724205        1.33128377138881        0.03087617364502
O            1.84790309284916        2.13401942124802       -0.29796330452106
O            0.44714241598284        1.24710200078841        1.23717427425472
C            0.93427016548253        2.17471701624482        2.26408663774344
C            2.19056470674353        1.63756156696177        2.90701873436157
S           -0.67399175651693       -0.98192069060425       -0.31524495486801
P           -2.41577610397540        0.05247988608718        0.28167465755039
S           -2.78114455368725        1.74217208565782       -0.61238798322382
O           -3.53796748296724       -1.10104165644766        0.13447491886189
C           -4.12304460012800       -1.37814509554224       -1.16824413427561
O           -2.26858542505993        0.07870505905722        1.88195506975857
C           -3.18703224917638        0.88536040540329        2.67776350728101
H            3.45315676488210       -4.35020819447526       -1.58464335861840
H            4.73881546814404       -4.33755306769676       -0.36350405602029
H            3.15286771606703       -3.64574659070821        0.02392854715101
H            5.12951044379461       -2.56017221573106       -2.07209261056834
H            4.83388596465520       -1.83033891460885       -0.47364622290170
H            1.02351040982677       -0.88998994078958       -2.63428745191331
H            1.97117544538866        0.57118837639668       -2.42093721624732
H            1.08422514438963        3.15494143601613        1.80529433855710
H            0.10436675662819        2.22559313398085        2.97221088052933
H            3.01450340084488        1.58277300419894        2.19057828940181
H            2.48530082422921        2.30851632591462        3.71998342810874
H            2.01566969881188        0.64369505462654        3.32856378967046
H           -4.78776031422866       -2.22841516280320       -1.01551580905158
H           -3.34421182797043       -1.63793080913878       -1.89125326529809
H           -4.69051791791569       -0.51107257746057       -1.51508579369289
H           -3.05494775435032        1.94402039995039        2.44072644753777
H           -2.91223124387532        0.69428686202160        3.71521206992689
H           -4.22099507018940        0.57737359301270        2.49853418236625
38
 energy: -1981.480542023806 gnorm: 0.000488300713 xtb: 6.7.1 (edcfbbe)
C            3.89409466381936       -3.76887519589841       -0.76663360697640
C            4.39873072137983       -2.43683767987676       -1.26822115787420
O            3.31540570294879       -1.67422498820389       -1.89997424181517
C            2.50922860798007       -0.97780669022975       -1.09002681338254
O            2.62194281631878       -0.92514407380311        0.12276135688225
C            1.46130260433870       -0.23348381712629       -1.87769662609453
C            0.38160149432274        0.37919583244204       -0.99133028230147
H           -0.27018227792489        0.99731931940405       -1.62085768518419
C            0.98974201149722        1.33008306745495        0.03154145854363
O            1.84333774052391        2.13567951005811       -0.29790724926740
O            0.44685173002837        1.24420558387568        1.23841797631671
C            0.93494585161173        2.17125345892479        2.26527547788560
C            2.19588366958739        1.63765779692147        2.90219774827182
S           -0.67461249571139       -0.98251746703428       -0.31484684941702
P           -2.41681817382794        0.05143182829609        0.28133764385149
S           -2.78192271543065        1.74216363489419       -0.61049472154253
O           -3.53980263237512       -1.10115521255398        0.13273418610022
C           -4.12364895688574       -1.37760077306725       -1.17048830643691
O           -2.27052981365240        0.07632042013120        1.88167192802740
C           -3.18688595116614        0.88518570585238        2.67722137851153
H            3.45328021235108       -4.34897566032048       -1.58232552495921
H            4.73740850098241       -4.33576752384193       -0.35964148288084
H            3.15105552748151       -3.64367884934025        0.02540744879038
H            5.12939635559386       -2.55922297140599       -2.06933283223319
H            4.83343964661593       -1.82895908448284       -0.47119961964191
H            1.02337398306618       -0.89066143778227       -2.63348417645357
H            1.96968677637121        0.57153797409460       -2.42042757935254
H            1.07966149133747        3.15309608266102        1.80818730174143
H            0.10787669780333        2.21785567411657        2.97696797947387
H            3.01719916428208        1.58744516258118        2.18240543003568
H            2.49149908783391        2.30799579009245        3.71539548645555
H            2.02629027059238        0.64222512326291        3.32227251416400
H           -4.78945082475260       -2.22714060427787       -1.01851802078727
H           -3.34425945028846       -1.63819192485434       -1.89256743374487
H           -4.68977121263296       -0.51000526455668       -1.51805466134275
H           -3.04897963427914        1.94367235634404        2.44363049360775
H           -2.91605449739180        0.69013133375605        3.71482350729001
H           -4.22189006009403        0.58323568468464        2.49489305940153
38
 energy: -1981.480542023806 gnorm: 0.000488300713 xtb: 6.7.1 (edcfbbe)
C            3.89409466381936       -3.76887519589841       -0.76663360697640
C            4.39873072137983       -2.43683767987676       -1.26822115787420
O            3.31540570294879       -1.67422498820389       -1.89997424181517
C            2.50922860798007       -0.97780669022975       -1.09002681338254
O            2.62194281631878       -0.92514407380311        0.12276135688225
C            1.46130260433870       -0.23348381712629       -1.87769662609453
C            0.38160149432274        0.37919583244204       -0.99133028230147
H           -0.27018227792489        0.99731931940405       -1.62085768518419
C            0.98974201149722        1.33008306745495        0.03154145854363
O            1.84333774052391        2.13567951005811       -0.29790724926740
O            0.44685173002837        1.24420558387568        1.23841797631671
C            0.93494585161173        2.17125345892479        2.26527547788560
C            2.19588366958739        1.63765779692147        2.90219774827182
S           -0.67461249571139       -0.98251746703428       -0.31484684941702
P           -2.41681817382794        0.05143182829609        0.28133764385149
S           -2.78192271543065        1.74216363489419       -0.61049472154253
O           -3.53980263237512       -1.10115521255398        0.13273418610022
C           -4.12364895688574       -1.37760077306725       -1.17048830643691
O           -2.27052981365240        0.07632042013120        1.88167192802740
C           -3.18688595116614        0.88518570585238        2.67722137851153
H            3.45328021235108       -4.34897566032048       -1.58232552495921
H            4.73740850098241       -4.33576752384193       -0.35964148288084
H            3.15105552748151       -3.64367884934025        0.02540744879038
H            5.12939635559386       -2.55922297140599       -2.06933283223319
H            4.83343964661593       -1.82895908448284       -0.47119961964191
H            1.02337398306618       -0.89066143778227       -2.63348417645357
H            1.96968677637121        0.57153797409460       -2.42042757935254
H            1.07966149133747        3.15309608266102        1.80818730174143
H            0.10787669780333        2.21785567411657        2.97696797947387
H            3.01719916428208        1.58744516258118        2.18240543003568
H            2.49149908783391        2.30799579009245        3.71539548645555
H            2.02629027059238        0.64222512326291        3.32227251416400
H           -4.78945082475260       -2.22714060427787       -1.01851802078727
H           -3.34425945028846       -1.63819192485434       -1.89256743374487
H           -4.68977121263296       -0.51000526455668       -1.51805466134275
H           -3.04897963427914        1.94367235634404        2.44363049360775
H           -2.91605449739180        0.69013133375605        3.71482350729001
H           -4.22189006009403        0.58323568468464        2.49489305940153
