
                                 *****************
                                 * O   R   C   A *
                                 *****************

                                            #,                                       
                                            ###                                      
                                            ####                                     
                                            #####                                    
                                            ######                                   
                                           ########,                                 
                                     ,,################,,,,,                         
                               ,,#################################,,                 
                          ,,##########################################,,             
                       ,#########################################, ''#####,          
                    ,#############################################,,   '####,        
                  ,##################################################,,,,####,       
                ,###########''''           ''''###############################       
              ,#####''   ,,,,##########,,,,          '''####'''          '####       
            ,##' ,,,,###########################,,,                        '##       
           ' ,,###''''                  '''############,,,                           
         ,,##''                                '''############,,,,        ,,,,,,###''
      ,#''                                            '''#######################'''  
     '                                                          ''''####''''         
             ,#######,   #######,   ,#######,      ##                                
            ,#'     '#,  ##    ##  ,#'     '#,    #''#        ,####,   ,####,        
            ##       ##  ##   ,#'  ##            #'  '#       #'       #'  '#        
            ##       ##  #######   ##           ,######,      #####,   #    #        
            '#,     ,#'  ##    ##  '#,     ,#' ,#      #,     #,   #   #,  ,#        
             '#######'   ##     ##  '#######'  #'      '#     '####' # '####'        



                #########################################################
                #                        -***-                          #
                #          Department of theory and spectroscopy        #
                #                                                       #
                #                      Frank Neese                      #
                #                                                       #
                #     Directorship, Architecture, Infrastructure        #
                #                    SHARK, DRIVERS                     #
                #        Core code/Algorithms in most modules           #
                #                                                       #
                #        Max Planck Institute fuer Kohlenforschung      #
                #                Kaiser Wilhelm Platz 1                 #
                #                 D-45470 Muelheim/Ruhr                 #
                #                      Germany                          #
                #                                                       #
                #                  All rights reserved                  #
                #                        -***-                          #
                #########################################################


                         Program Version 6.0.0  -   RELEASE  -


 With contributions from (in alphabetic order):
   Daniel Aravena         : Magnetic Suceptibility
   Michael Atanasov       : Ab Initio Ligand Field Theory (pilot matlab implementation)
   Alexander A. Auer      : GIAO ZORA, VPT2 properties, NMR spectrum
   Ute Becker             : All parallelization in ORCA, NUMFREQ, NUMCALC
   Giovanni Bistoni       : ED, misc. LED, open-shell LED, HFLD
   Martin Brehm           : Molecular dynamics
   Dmytro Bykov           : pre 5.0 version of the SCF Hessian
   Marcos Casanova-Páez   : Triplet and SCS-CIS(D). UHF-(DLPNO)-IP/EA/STEOM-CCSD. UHF-CVS-IP/STEOM-CCSD
   Vijay G. Chilkuri      : MRCI spin determinant printing, contributions to CSF-ICE
   Pauline Colinet        : FMM embedding
   Dipayan Datta          : RHF DLPNO-CCSD density
   Achintya Kumar Dutta   : EOM-CC, STEOM-CC
   Nicolas Foglia         : Exact transition moments, OPA infrastructure, MCD improvements
   Dmitry Ganyushin       : Spin-Orbit,Spin-Spin,Magnetic field MRCI
   Miquel Garcia          : C-PCM and meta-GGA Hessian, CCSD/C-PCM, Gaussian charge scheme
   Tiago L. C. Gouveia    : GS-ROHF, GS-ROCIS
   Yang Guo               : DLPNO-NEVPT2, F12-NEVPT2, CIM, IAO-localization
   Andreas Hansen         : Spin unrestricted coupled pair/coupled cluster methods
   Ingolf Harden          : AUTO-CI MPn and infrastructure 
   Benjamin Helmich-Paris : MC-RPA, TRAH-(SCF,CASSCF), AVAS, COSX integrals, SCF dyn. polar.
   Lee Huntington         : MR-EOM, pCC
   Robert Izsak           : Overlap fitted RIJCOSX, COSX-SCS-MP3, EOM
   Riya Kayal             : Wick's Theorem for AUTO-CI, AUTO-CI UHF-CCSDT
   Emily Kempfer          : AUTO-CI, RHF CISDT and CCSDT
   Christian Kollmar      : KDIIS, OOCD, Brueckner-CCSD(T), CCSD density, CASPT2, CASPT2-K, improved NEVPT2
   Axel Koslowski         : Symmetry handling
   Simone Kossmann        : Meta GGA functionals, TD-DFT gradient, OOMP2, (MP2 Hessian; deprecated post 5.0)
   Lucas Lang             : DCDCAS
   Marvin Lechner         : AUTO-CI (C++ implementation), FIC-MRCC
   Spencer Leger          : CASSCF response
   Dagmar Lenk            : GEPOL surface, SMD, ORCA-2-JSON
   Dimitrios Liakos       : Extrapolation schemes; Compound Job, initial MDCI parallelization
   Dimitrios Manganas     : Further ROCIS development; embedding schemes. LFT, Crystal Embedding
   Dimitrios Pantazis     : SARC Basis sets
   Anastasios Papadopoulos: AUTO-CI, single reference methods and gradients
   Taras Petrenko         : pre 6.0 DFT Hessian and TD-DFT gradient, (ASA, deprecated), ECA, 1-Electron XAS/XES, NRVS
   Peter Pinski           : DLPNO-MP2, DLPNO-MP2 Gradient
   Christoph Reimann      : Effective Core Potentials
   Marius Retegan         : Local ZFS, SOC
   Christoph Riplinger    : Optimizer, TS searches, QM/MM, DLPNO-CCSD(T), (RO)-DLPNO pert. Triples
   Michael Roemelt        : Original ROCIS implementation
   Masaaki Saitow         : Open-shell DLPNO-CCSD energy and density
   Barbara Sandhoefer     : DKH picture change effects
   Kantharuban Sivalingam : CASSCF convergence/infrastructure, NEVPT2 and variants, FIC-MRCI
   Bernardo de Souza      : ESD, SOC TD-DFT
   Georgi Stoychev        : AutoAux, RI-MP2 NMR, DLPNO-MP2 response, X2C
   Van Anh Tran           : RI-MP2 g-tensors
   Willem Van den Heuvel  : Paramagnetic NMR
   Zikuan Wang            : NOTCH, Electric field optimization 
   Frank Wennmohs         : Technical directorship and infrastructure
   Hang Xu                : AUTO-CI-Response properties 


 We gratefully acknowledge several colleagues who have allowed us to
 interface, adapt or use parts of their codes:
   Stefan Grimme, W. Hujo, H. Kruse, P. Pracht,  : VdW corrections, initial TS optimization,
                  C. Bannwarth, S. Ehlert,         DFT functionals, gCP, sTDA/sTD-DF
                  L. Wittmann, M. Mueller
   Ed Valeev, F. Pavosevic, A. Kumar             : LibInt (2-el integral package), F12 methods
   Garnet Chan, S. Sharma, J. Yang, R. Olivares  : DMRG
   Ulf Ekstrom                                   : XCFun DFT Library
   Mihaly Kallay                                 : mrcc  (arbitrary order and MRCC methods)
   Frank Weinhold                                : gennbo (NPA and NBO analysis)
   Simon Mueller                                 : openCOSMO-RS
   Christopher J. Cramer and Donald G. Truhlar   : smd solvation model
   Lars Goerigk                                  : TD-DFT with DH, B97 family of functionals
   V. Asgeirsson, H. Jonsson                     : NEB implementation
   FAccTs GmbH                                   : IRC, NEB, NEB-TS, DLPNO-Multilevel, CI-OPT
                                                   MM, QMMM, 2- and 3-layer-ONIOM, Crystal-QMMM,
                                                   LR-CPCM, SF, NACMEs, symmetry and pop. for TD-DFT,
                                                   nearIR, NL-DFT gradient (VV10), updates on ESD,
                                                   ML-optimized integration grids, MBIS, APM,
                                                   GOAT, DOCKER, SOLVATOR, interface openCOSMO-RS
   S Lehtola, MJT Oliveira, MAL Marques          : LibXC Library
   Liviu Ungur et al                             : ANISO software


 Your calculation uses the libint2 library for the computation of 2-el integrals
 For citations please refer to: http://libint.valeyev.net

 Your ORCA version has been built with support for libXC version: 6.2.2
 For citations please refer to: https://libxc.gitlab.io

 This ORCA versions uses:
   CBLAS   interface :  Fast vector & matrix operations
   LAPACKE interface :  Fast linear algebra routines
   SCALAPACK package :  Parallel linear algebra routines
   Shared memory     :  Shared parallel matrices
   BLAS/LAPACK       :  OpenBLAS 0.3.27  USE64BITINT DYNAMIC_ARCH NO_AFFINITY SkylakeX SINGLE_THREADED
        Core in use  :  SkylakeX
   Copyright (c) 2011-2014, The OpenBLAS Project


Your calculation utilizes the geometrical counterpoise correction gCP
Please cite in your paper:
H.Kruse, S. Grimme J.Chem.Phys., 136, (2012), 154101 
   

Your calculation utilizes the atom-pairwise dispersion correction
based on EEQ partial charges (D4)


Your calculation utilizes the SMD solvation module
Please cite in your paper:
A.V. Marenich, C.J. Cramer, D.G. Truhlar J. Phys. Chem. B, 113, (2009), 6378 

================================================================================

----- Orbital basis set information -----
Your calculation utilizes the basis: def2-mTZVPP
   Stefan Grimme, Andreas Hansen, Sebastian Ehlert, and Jan-Michael Mewes 
   J. Chem. Phys. 154, 064103 (2021). DOI: 10.1063/5.0040021

----- AuxJ basis set information -----
Your calculation utilizes the auxiliary basis: def2/J
   F. Weigend, Phys. Chem. Chem. Phys. 8, 1057 (2006).

================================================================================
                                        WARNINGS
                       Please study these warnings very carefully!
================================================================================

Using LibXC functional ID 497 : Re-regularized SCAN exchange by Furness et al
[ 1]  J. W. Furness, A. D. Kaplan, J. Ning, J. P. Perdew, and J. Sun.,  J. Phys. Chem. Lett. 11, 8208-8215 (2020)
[ 2]  J. W. Furness, A. D. Kaplan, J. Ning, J. P. Perdew, and J. Sun.,  J. Phys. Chem. Lett. 11, 9248-9248 (2020)
Using LibXC functional ID 498 : Re-regularized SCAN correlation by Furness et al
[ 1]  J. W. Furness, A. D. Kaplan, J. Ning, J. P. Perdew, and J. Sun.,  J. Phys. Chem. Lett. 11, 8208-8215 (2020)
[ 2]  J. W. Furness, A. D. Kaplan, J. Ning, J. P. Perdew, and J. Sun.,  J. Phys. Chem. Lett. 11, 9248-9248 (2020)
Using LibXC functional ID 497 : Re-regularized SCAN exchange by Furness et al
[ 1]  J. W. Furness, A. D. Kaplan, J. Ning, J. P. Perdew, and J. Sun.,  J. Phys. Chem. Lett. 11, 8208-8215 (2020)
[ 2]  J. W. Furness, A. D. Kaplan, J. Ning, J. P. Perdew, and J. Sun.,  J. Phys. Chem. Lett. 11, 9248-9248 (2020)
Using LibXC functional ID 498 : Re-regularized SCAN correlation by Furness et al
[ 1]  J. W. Furness, A. D. Kaplan, J. Ning, J. P. Perdew, and J. Sun.,  J. Phys. Chem. Lett. 11, 8208-8215 (2020)
[ 2]  J. W. Furness, A. D. Kaplan, J. Ning, J. P. Perdew, and J. Sun.,  J. Phys. Chem. Lett. 11, 9248-9248 (2020)

================================================================================
                                       INPUT FILE
================================================================================
NAME = sp_solv.inp
|  1> ! r2scan-3c def2/J RI DEFGRID2 scfconv6 printgap
|  2> %output
|  3>     printlevel normal
|  4> end
|  5> %cpcm
|  6>     smd true
|  7>     smdsolvent "water"
|  8> end
|  9> * xyz 0 1
| 10> C 2.9851015294 -1.8376990933 -0.2774930565
| 11> C 1.6792875323 -1.1639112712 -0.0846677508
| 12> C 1.5065318103 0.180288874 -0.0371358862
| 13> C 0.208415662 0.789988275 0.1553867881
| 14> O 0.0756220554 1.9787208803 0.411623267
| 15> N -0.8773206857 -0.0818625262 0.02317856
| 16> C -0.7114454168 -1.4335132591 0.2559971447
| 17> O -1.5946080554 -2.2012438395 0.5913732834
| 18> N 0.5629937199 -1.9215240623 0.0889939276
| 19> C -2.2537240995 0.4864157024 -0.1456582099
| 20> C -2.1948031106 1.6921763736 -1.0917565931
| 21> C -3.1848758392 -0.5327223504 -0.8108187465
| 22> C -2.7856485201 0.8878671534 1.2289188947
| 23> Cl 2.8447801986 1.2727810429 -0.136880415
| 24> H 3.7099900106 -1.4411811208 0.4292664393
| 25> H 3.3616810973 -1.6180584204 -1.2744133879
| 26> H 2.8955977063 -2.9110842349 -0.153065074
| 27> H 0.6520962373 -2.9267892554 0.2017897185
| 28> H -3.2084666371 2.0115445024 -1.3117629978
| 29> H -1.662238479 2.5296198133 -0.654368316
| 30> H -1.7055170803 1.4157989378 -2.023203717
| 31> H -4.1070454964 -0.02775176 -1.0811973807
| 32> H -3.426311618 -1.3579143349 -0.1506307049
| 33> H -2.7295774472 -0.9308209423 -1.7146006495
| 34> H -3.7819262644 1.3070637599 1.1302560734
| 35> H -2.8314886737 0.0158318124 1.8775663564
| 36> H -2.1328178319 1.632639744 1.6783476179
| 37> *
| 38> 
| 39>                          ****END OF INPUT****
================================================================================

                       ****************************
                       * Single Point Calculation *
                       ****************************

---------------------------------
CARTESIAN COORDINATES (ANGSTROEM)
---------------------------------
  C      2.985102   -1.837699   -0.277493
  C      1.679288   -1.163911   -0.084668
  C      1.506532    0.180289   -0.037136
  C      0.208416    0.789988    0.155387
  O      0.075622    1.978721    0.411623
  N     -0.877321   -0.081863    0.023179
  C     -0.711445   -1.433513    0.255997
  O     -1.594608   -2.201244    0.591373
  N      0.562994   -1.921524    0.088994
  C     -2.253724    0.486416   -0.145658
  C     -2.194803    1.692176   -1.091757
  C     -3.184876   -0.532722   -0.810819
  C     -2.785649    0.887867    1.228919
  Cl     2.844780    1.272781   -0.136880
  H      3.709990   -1.441181    0.429266
  H      3.361681   -1.618058   -1.274413
  H      2.895598   -2.911084   -0.153065
  H      0.652096   -2.926789    0.201790
  H     -3.208467    2.011545   -1.311763
  H     -1.662238    2.529620   -0.654368
  H     -1.705517    1.415799   -2.023204
  H     -4.107045   -0.027752   -1.081197
  H     -3.426312   -1.357914   -0.150631
  H     -2.729577   -0.930821   -1.714601
  H     -3.781926    1.307064    1.130256
  H     -2.831489    0.015832    1.877566
  H     -2.132818    1.632640    1.678348

----------------------------
CARTESIAN COORDINATES (A.U.)
----------------------------
  NO LB      ZA    FRAG     MASS         X           Y           Z
   0 C     6.0000    0    12.011    5.641024   -3.472748   -0.524386
   1 C     6.0000    0    12.011    3.173394   -2.199474   -0.159999
   2 C     6.0000    0    12.011    2.846933    0.340697   -0.070177
   3 C     6.0000    0    12.011    0.393849    1.492861    0.293638
   4 O     8.0000    0    15.999    0.142905    3.739241    0.777855
   5 N     7.0000    0    14.007   -1.657896   -0.154698    0.043801
   6 C     6.0000    0    12.011   -1.344437   -2.708947    0.483764
   7 O     8.0000    0    15.999   -3.013373   -4.159748    1.117534
   8 N     7.0000    0    14.007    1.063904   -3.631154    0.168174
   9 C     6.0000    0    12.011   -4.258921    0.919192   -0.275254
  10 C     6.0000    0    12.011   -4.147577    3.197750   -2.063121
  11 C     6.0000    0    12.011   -6.018543   -1.006699   -1.532225
  12 C     6.0000    0    12.011   -5.264113    1.677826    2.322320
  13 Cl   17.0000    0    35.453    5.375855    2.405208   -0.258666
  14 H     1.0000    0     1.008    7.010865   -2.723438    0.811196
  15 H     1.0000    0     1.008    6.352657   -3.057687   -2.408292
  16 H     1.0000    0     1.008    5.471887   -5.501152   -0.289251
  17 H     1.0000    0     1.008    1.232283   -5.530830    0.381327
  18 H     1.0000    0     1.008   -6.063123    3.801268   -2.478873
  19 H     1.0000    0     1.008   -3.141175    4.780289   -1.236577
  20 H     1.0000    0     1.008   -3.222960    2.675472   -3.823301
  21 H     1.0000    0     1.008   -7.761191   -0.052443   -2.043167
  22 H     1.0000    0     1.008   -6.474791   -2.566086   -0.284651
  23 H     1.0000    0     1.008   -5.158154   -1.758997   -3.240126
  24 H     1.0000    0     1.008   -7.146805    2.469993    2.135874
  25 H     1.0000    0     1.008   -5.350738    0.029918    3.548086
  26 H     1.0000    0     1.008   -4.030442    3.085242    3.171617

--------------------------------
INTERNAL COORDINATES (ANGSTROEM)
--------------------------------
 C      0   0   0     0.000000000000     0.00000000     0.00000000
 C      1   0   0     1.481999265435     0.00000000     0.00000000
 C      2   1   0     1.356089174056   124.57399838     0.00000000
 C      3   2   1     1.447032782689   122.45223730   180.08778010
 O      4   3   2     1.223264681897   122.32386546   168.00279527
 N      4   3   2     1.398723079043   114.90674719   347.86824243
 C      6   4   3     1.381549420746   120.04650124    25.54226217
 O      7   6   4     1.217318218343   125.19396220   155.10302302
 N      2   1   3     1.360237992186   119.10970841   181.53871318
 C      6   4   3     1.498643505805   119.15722969   195.43065129
 C     10   6   4     1.533764202816   109.40926242    40.80680505
 C     10   6   4     1.532359119939   110.78134743   157.51592258
 C     10   6   4     1.527602393698   108.54708909   279.28207904
 Cl     3   2   1     1.730432564107   121.68606204   357.43319300
 H      1   2   3     1.087289656713   109.69761230    50.73784090
 H      1   2   3     1.088073684688   109.41375777   293.72931581
 H      1   2   3     1.084273452311   111.24872516   172.63196285
 H      9   2   1     1.015490156284   119.57326437     7.69518266
 H     11  10   6     1.085316803868   108.69289096   172.47017537
 H     11  10   6     1.084548342156   112.15563412   292.12200373
 H     11  10   6     1.087832271579   110.22569890    53.38466368
 H     12  10   6     1.085585915375   108.35665782   190.36506183
 H     12  10   6     1.084011668221   112.16414203    70.67274600
 H     12  10   6     1.087474525136   110.47575592   309.22082775
 H     13  10   6     1.085370669861   109.83597553   179.74953358
 H     13  10   6     1.087791563308   109.91123859   299.63648460
 H     13  10   6     1.087593810392   110.04668453    59.85872122

---------------------------
INTERNAL COORDINATES (A.U.)
---------------------------
 C      0   0   0     0.000000000000     0.00000000     0.00000000
 C      1   0   0     2.800572742345     0.00000000     0.00000000
 C      2   1   0     2.562637152141   124.57399838     0.00000000
 C      3   2   1     2.734495666088   122.45223730   180.08778010
 O      4   3   2     2.311635238083   122.32386546   168.00279527
 N      4   3   2     2.643203556586   114.90674719   347.86824243
 C      6   4   3     2.610750045687   120.04650124    25.54226217
 O      7   6   4     2.300398050501   125.19396220   155.10302302
 N      2   1   3     2.570477282186   119.10970841   181.53871318
 C      6   4   3     2.832025798351   119.15722969   195.43065129
 C     10   6   4     2.898394297334   109.40926242    40.80680505
 C     10   6   4     2.895739075502   110.78134743   157.51592258
 C     10   6   4     2.886750165611   108.54708909   279.28207904
 Cl     3   2   1     3.270043639381   121.68606204   357.43319300
 H      1   2   3     2.054679679433   109.69761230    50.73784090
 H      1   2   3     2.056161277587   109.41375777   293.72931581
 H      1   2   3     2.048979879149   111.24872516   172.63196285
 H      9   2   1     1.918998287070   119.57326437     7.69518266
 H     11  10   6     2.050951527854   108.69289096   172.47017537
 H     11  10   6     2.049499345672   112.15563412   292.12200373
 H     11  10   6     2.055705072925   110.22569890    53.38466368
 H     12  10   6     2.051460074901   108.35665782   190.36506183
 H     12  10   6     2.048485178913   112.16414203    70.67274600
 H     12  10   6     2.055029030124   110.47575592   309.22082775
 H     13  10   6     2.051053319829   109.83597553   179.74953358
 H     13  10   6     2.055628145443   109.91123859   299.63648460
 H     13  10   6     2.055254446588   110.04668453    59.85872122

---------------------
BASIS SET INFORMATION
---------------------
There are 5 groups of distinct atoms

 Group   1 Type C   : 11s6p1d contracted to 5s3p1d pattern {62111/411/1}
 Group   2 Type O   : 11s6p2d contracted to 5s3p2d pattern {62111/411/11}
 Group   3 Type N   : 11s6p2d contracted to 5s3p2d pattern {62111/411/11}
 Group   4 Type Cl  : 14s9p2d contracted to 5s4p2d pattern {73211/6111/11}
 Group   5 Type H   : 4s1p contracted to 2s1p pattern {31/1}

Atom   0C    basis set group =>   1
Atom   1C    basis set group =>   1
Atom   2C    basis set group =>   1
Atom   3C    basis set group =>   1
Atom   4O    basis set group =>   2
Atom   5N    basis set group =>   3
Atom   6C    basis set group =>   1
Atom   7O    basis set group =>   2
Atom   8N    basis set group =>   3
Atom   9C    basis set group =>   1
Atom  10C    basis set group =>   1
Atom  11C    basis set group =>   1
Atom  12C    basis set group =>   1
Atom  13Cl   basis set group =>   4
Atom  14H    basis set group =>   5
Atom  15H    basis set group =>   5
Atom  16H    basis set group =>   5
Atom  17H    basis set group =>   5
Atom  18H    basis set group =>   5
Atom  19H    basis set group =>   5
Atom  20H    basis set group =>   5
Atom  21H    basis set group =>   5
Atom  22H    basis set group =>   5
Atom  23H    basis set group =>   5
Atom  24H    basis set group =>   5
Atom  25H    basis set group =>   5
Atom  26H    basis set group =>   5
---------------------------------
AUXILIARY/J BASIS SET INFORMATION
---------------------------------
There are 5 groups of distinct atoms

 Group   1 Type C   : 12s5p4d2f1g contracted to 6s4p3d1f1g pattern {711111/2111/211/2/1}
 Group   2 Type O   : 12s5p4d2f1g contracted to 6s4p3d1f1g pattern {711111/2111/211/2/1}
 Group   3 Type N   : 12s5p4d2f1g contracted to 6s4p3d1f1g pattern {711111/2111/211/2/1}
 Group   4 Type Cl  : 14s5p5d2f1g contracted to 8s4p3d1f1g pattern {71111111/2111/311/2/1}
 Group   5 Type H   : 5s2p1d contracted to 3s1p1d pattern {311/2/1}

Atom   0C    basis set group =>   1
Atom   1C    basis set group =>   1
Atom   2C    basis set group =>   1
Atom   3C    basis set group =>   1
Atom   4O    basis set group =>   2
Atom   5N    basis set group =>   3
Atom   6C    basis set group =>   1
Atom   7O    basis set group =>   2
Atom   8N    basis set group =>   3
Atom   9C    basis set group =>   1
Atom  10C    basis set group =>   1
Atom  11C    basis set group =>   1
Atom  12C    basis set group =>   1
Atom  13Cl   basis set group =>   4
Atom  14H    basis set group =>   5
Atom  15H    basis set group =>   5
Atom  16H    basis set group =>   5
Atom  17H    basis set group =>   5
Atom  18H    basis set group =>   5
Atom  19H    basis set group =>   5
Atom  20H    basis set group =>   5
Atom  21H    basis set group =>   5
Atom  22H    basis set group =>   5
Atom  23H    basis set group =>   5
Atom  24H    basis set group =>   5
Atom  25H    basis set group =>   5
Atom  26H    basis set group =>   5

Checking for AutoStart:
The File: sp_solv.gbw exists
Trying to determine its content:
     ... Fine, the file contains calculation information
     ... Fine, the calculation information was read
     ... Fine, the file contains a basis set
     ... Fine, the basis set was read
     ... Fine, the file contains a geometry
     ... Fine, the geometry was read
     ... Fine, the file contains a set of orbitals
     ... Fine, the orbitals can be read
     => possible old guess file was deleted
     => GBW file was renamed to GES file
     => GES file is set as startup file
     => Guess is set to MORead
     ... now leaving AutoStart

------------------------------------------------------------------------------
                             ORCA STARTUP CALCULATIONS
                           -- RI-GTO INTEGRALS CHOSEN --
------------------------------------------------------------------------------
------------------------------------------------------------------------------
                   ___                                                        
                  /   \      - P O W E R E D   B Y -                         
                 /     \                                                     
                 |  |  |   _    _      __       _____    __    __             
                 |  |  |  | |  | |    /  \     |  _  \  |  |  /  |          
                  \  \/   | |  | |   /    \    | | | |  |  | /  /          
                 / \  \   | |__| |  /  /\  \   | |_| |  |  |/  /          
                |  |  |   |  __  | /  /__\  \  |    /   |      \           
                |  |  |   | |  | | |   __   |  |    \   |  |\   \          
                \     /   | |  | | |  |  |  |  | |\  \  |  | \   \       
                 \___/    |_|  |_| |__|  |__|  |_| \__\ |__|  \__/        
                                                                              
                      - O R C A' S   B I G   F R I E N D -                    
                                      &                                       
                       - I N T E G R A L  F E E D E R -                       
                                                                              
 v1 FN, 2020, v2 2021, v3 2022-2024                                           
------------------------------------------------------------------------------


----------------------
SHARK INTEGRAL PACKAGE
----------------------

Number of atoms                             ...     27
Number of basis functions                   ...    359
Number of shells                            ...    171
Maximum angular momentum                    ...      2
Integral batch strategy                     ... SHARK/LIBINT Hybrid
RI-J (if used) integral strategy            ... SPLIT-RIJ (Revised 2003 algorithm where possible)
Printlevel                                  ...      1
Contraction scheme used                     ... SEGMENTED contraction
Prescreening option                         ... SCHWARTZ
   Thresh                                   ... 1.000e-10
   Tcut                                     ... 1.000e-11
   Tpresel                                  ... 1.000e-11 
Coulomb Range Separation                    ... NOT USED
Exchange Range Separation                   ... NOT USED
Multipole approximations                    ... NOT USED
Finite Nucleus Model                        ... NOT USED
CABS basis                                  ... NOT available
Auxiliary Coulomb fitting basis             ... AVAILABLE
   # of basis functions in Aux-J            ...    831
   # of shells in Aux-J                     ...    277
   Maximum angular momentum in Aux-J        ...      4
Auxiliary J/K fitting basis                 ... NOT available
Auxiliary Correlation fitting basis         ... NOT available
Auxiliary 'external' fitting basis          ... NOT available

Checking pre-screening integrals            ... done (  0.0 sec) Dimension = 171
Check shell pair data                       ... done (  0.0 sec)
Shell pair information
Shell pair cut-off parameter TPreSel        ...   1.0e-11
Total number of shell pairs                 ...     14706
Shell pairs after pre-screening             ...     12071
Total number of primitive shell pairs       ...     54321
Primitive shell pairs kept                  ...     29434
          la=0 lb=0:   3658 shell pairs
          la=1 lb=0:   4440 shell pairs
          la=1 lb=1:   1367 shell pairs
          la=2 lb=0:   1521 shell pairs
          la=2 lb=1:    913 shell pairs
          la=2 lb=2:    172 shell pairs

Calculating one electron integrals          ... done (  0.1 sec)
Calculating RI/J V-Matrix + Cholesky decomp.... done (  0.1 sec)
Calculating Nuclear repulsion               ... done (  0.0 sec) ENN=   1077.903651982421 Eh

Diagonalization of the overlap matrix:
Smallest eigenvalue                        ... 4.153e-05
Time for diagonalization                   ...    0.014 sec
Threshold for overlap eigenvalues          ... 1.000e-07
Number of eigenvalues below threshold      ... 0
Time for construction of square roots      ...    0.024 sec
Total time needed                          ...    0.048 sec

-------------------
DFT GRID GENERATION
-------------------

General Integration Accuracy     IntAcc      ... 4.388
Radial Grid Type                 RadialGrid  ... OptM3 with GC (2021)
Angular Grid (max. ang.)         AngularGrid ... 4 (Lebedev-302)
Angular grid pruning method      GridPruning ... 4 (adaptive)
Weight generation scheme         WeightScheme... mBecke (2022)
Basis function cutoff            BFCut       ... 1.0000e-10
Integration weight cutoff        WCut        ... 1.0000e-14
Partially contracted basis set               ... off
Rotationally invariant grid construction     ... off
Angular grids for H and He will be reduced by one unit
Diffuse basis detected: some atoms will have their outermost
                        angular grid increased by 1.

Total number of grid points                  ...   127021
Total number of batches                      ...     1999
Average number of points per batch           ...       63
Average number of grid points per atom       ...     4704
Initializing property integral containers    ... done (  0.0 sec)

SHARK setup successfully completed in   2.2 seconds

Maximum memory used throughout the entire STARTUP-calculation: 64.8 MB
-------------------------------------------------------------------------------
                                 ORCA GUESS
                   Start orbitals & Density for SCF / CASSCF
-------------------------------------------------------------------------------

------------
SCF SETTINGS
------------
Hamiltonian:
 Density Functional     Method          .... DFT(GTOs)
  Functional kind                       .... Exchange
  Functional name                       .... Re-regularized SCAN exchange by Furness et al
  Functional family                     .... MGGA
  Functional refs                              
    [ 0] J. W. Furness, A. D. Kaplan, J. Ning, J. P. Perdew, and J. Sun.,  J. Phys. Chem. Lett. 11, 8208-8215 (2020), doi: 10.1021/acs.jpclett.0c02405
    [ 1] J. W. Furness, A. D. Kaplan, J. Ning, J. P. Perdew, and J. Sun.,  J. Phys. Chem. Lett. 11, 9248-9248 (2020), doi: 10.1021/acs.jpclett.0c03077
  Functional external parameters        .... 6
    Parameter  0 _c1        =  6.670000e-01 : c1 parameter        
    Parameter  1 _c2        =  8.000000e-01 : c2 parameter        
    Parameter  2 _d         =  1.240000e+00 : d parameter         
    Parameter  3 _k1        =  6.500000e-02 : k1 parameter        
    Parameter  4 _eta       =  1.000000e-03 : eta parameter       
    Parameter  5 _dp2       =  3.610000e-01 : dp2 parameter       
  Functional kind                       .... Correlation
  Functional name                       .... Re-regularized SCAN correlation by Furness et al
  Functional family                     .... MGGA
  Functional refs                              
    [ 0] J. W. Furness, A. D. Kaplan, J. Ning, J. P. Perdew, and J. Sun.,  J. Phys. Chem. Lett. 11, 8208-8215 (2020), doi: 10.1021/acs.jpclett.0c02405
    [ 1] J. W. Furness, A. D. Kaplan, J. Ning, J. P. Perdew, and J. Sun.,  J. Phys. Chem. Lett. 11, 9248-9248 (2020), doi: 10.1021/acs.jpclett.0c03077
  Functional external parameters        .... 1
    Parameter  0 _eta       =  1.000000e-03 : Regularization parameter
 Gradients option       PostSCFGGA      .... off
 RI-approximation to the Coulomb term is turned on
   Number of AuxJ basis functions       .... 831


General Settings:
 Integral files         IntName         .... sp_solv
 Hartree-Fock type      HFTyp           .... RHF
 Total Charge           Charge          ....    0
 Multiplicity           Mult            ....    1
 Number of Electrons    NEL             ....  114
 Basis Dimension        Dim             ....  359
 Nuclear Repulsion      ENuc            ....   1077.9036519824 Eh

Convergence Acceleration:
 AO-DIIS                CNVDIIS         .... on
   Start iteration      DIISMaxIt       ....    12
   Startup error        DIISStart       ....  0.200000
   # of expansion vecs  DIISMaxEq       ....     5
   Bias factor          DIISBfac        ....   1.050
   Max. coefficient     DIISMaxC        ....  10.000
 MO-DIIS                CNVKDIIS        .... off
 Trust-Rad. Augm. Hess. CNVTRAH         .... auto
   Auto Start mean grad. ratio tolernc. ....  1.125000
   Auto Start start iteration           ....     1
   Auto Start num. interpolation iter.  ....    10
   Max. Number of Micro iterations      ....    24
   Max. Number of Macro iterations      .... Maxiter - #DIIS iter
   Number of Davidson start vectors     ....     2
   Converg. threshold    (grad. norm)   ....   3.330e-04
   Grad. Scal. Fac. for Micro threshold ....   0.100
   Minimum threshold for Micro iter.    ....   1.000e-02
   NR start threshold (gradient norm)   ....   1.000e-04
   Initial trust radius                 ....   0.400
   Minimum AH scaling param. (alpha)    ....   1.000
   Maximum AH scaling param. (alpha)    .... 1000.000
   Quad. conv. algorithm                .... NR
   White noise on init. David. guess    .... on
   Maximum white noise                  ....   0.010
   Pseudo random numbers                .... off
   Inactive MOs                         .... canonical
   Orbital update algorithm             .... Taylor
   Preconditioner                       .... Diag
   Full preconditioner red. dimension   ....   250
   COSX micro iterations for RIJONX calc.... off
 SOSCF                  CNVSOSCF        .... on
   Start iteration      SOSCFMaxIt      ....   150
   Startup grad/error   SOSCFStart      ....  0.003300
   Hessian update       SOSCFHessUp     .... L-BFGS
 Level Shifting         CNVShift        .... on
   Level shift para.    LevelShift      ....    0.2500
   Turn off err/grad.   ShiftErr        ....    0.0010
 Zerner damping         CNVZerner       .... off
 Static damping         CNVDamp         .... on
   Fraction old density DampFac         ....    0.7000
   Max. Damping (<1)    DampMax         ....    0.9800
   Min. Damping (>=0)   DampMin         ....    0.0000
   Turn off err/grad.   DampErr         ....    0.1000

SCF Procedure:
 Maximum # iterations   MaxIter         ....   125
 SCF integral mode      SCFMode         .... Direct
   Integral package                     .... SHARK and LIBINT hybrid scheme
 Reset frequency        DirectResetFreq ....    20
 Integral Threshold     Thresh          ....  1.000e-10 Eh
 Primitive CutOff       TCut            ....  1.000e-11 Eh

Convergence Tolerance:
 Convergence Check Mode ConvCheckMode   .... Total+1el-Energy
 Convergence forced     ConvForced      .... 0
 Energy Change          TolE            ....  1.000e-06 Eh
 1-El. energy change                    ....  1.000e-03 Eh
 Orbital Gradient       TolG            ....  3.330e-04
 Orbital Rotation angle TolX            ....  3.330e-04
 DIIS Error             TolErr          ....  1.000e-06

---------------------
INITIAL GUESS: MOREAD
---------------------
Guess MOs are being read from file: sp_solv.ges
Input Geometry matches current geometry (good)
Atom 0: N(Shells)= 9 and 6 - projection required
Input basis set needs projection
NBasis(read)= 226
NBasis(calc)= 359
Basis set overlap was calculated
Using GuessMode=FMatrix for the initial guess
C*T matrix was formed
Effective Fockian was calculated
Effective Fockian was diagonalized
Initial density was built
                      ------------------
                      INITIAL GUESS DONE (   0.1 sec)
                      ------------------
             **** ENERGY FILE WAS UPDATED (sp_solv.en.tmp) ****
Finished Guess after   0.4 sec
Maximum memory used throughout the entire GUESS-calculation: 32.6 MB

-------------------------------------------------------------------------------------------
                                      ORCA LEAN-SCF
                              memory conserving SCF solver
-------------------------------------------------------------------------------------------

--------------------
CPCM SOLVATION MODEL
--------------------
CPCM parameters:
  Epsilon                                         ...      78.3550
  Refrac                                          ...       1.3328
  Rsolv                                           ...       1.3000
  Surface type                                    ... GAUSSIAN VDW
  Discretization scheme                           ... Constant charge density
    Threshold for H atoms                         ...       5.0000 (charges/Ang^2)
    Threshold for non-H atoms                     ...       5.0000 (charges/Ang^2)
  Epsilon function type                           ...         CPCM
Solvent:                                          ... WATER
SMD-CDS solvent descriptors:
  Soln                                            ...       1.3328
  Soln25                                          ...       1.3323
  Sola                                            ...       0.0000
  Solb                                            ...       0.0000
  Solg                                            ...       0.0000
  Solc                                            ...       0.0000
  Solh                                            ...       0.0000
Radii:
  Scheme                                          ... Element-dependent radii
  Radius for C  used is    3.4960 Bohr (=   1.8500 Ang.)
  Radius for O  used is    2.8724 Bohr (=   1.5200 Ang.)
  Radius for N  used is    3.5716 Bohr (=   1.8900 Ang.)
  Radius for Cl used is    4.4975 Bohr (=   2.3800 Ang.)
  Radius for H  used is    2.2677 Bohr (=   1.2000 Ang.)
Calculating surface                               ...        done! (  0.0s)
Cavity surface points                             ...         1993
Cavity Volume                                     ...    1497.5876
Cavity Surface-area                               ...     843.7795
Calculating surface distance matrix               ...        done! (  0.0s)
Performing Cholesky decomposition & store         ...        done! (  0.2s)
Overall time for CPCM initialization              ...                 0.2s

----------------------------------------D-I-I-S--------------------------------------------
Iteration    Energy (Eh)           Delta-E    RMSDP     MaxDP     DIISErr   Damp  Time(sec)
-------------------------------------------------------------------------------------------
               ***  Starting incremental Fock matrix formation  ***
    1    -1070.5163102878657355     0.00e+00  6.72e-03  5.38e-01  6.28e-01  0.700   8.3
    2    -1070.6158178950429374    -9.95e-02  5.25e-03  4.03e-01  4.43e-01  0.700   7.2
    3    -1070.6861745967710249    -7.04e-02  3.79e-03  2.85e-01  3.11e-01  0.700   7.2
    4    -1070.7356062046640091    -4.94e-02  2.69e-03  1.99e-01  2.18e-01  0.700   6.9
                               ***Turning on AO-DIIS***
    5    -1070.7703116912405221    -3.47e-02  1.92e-03  1.40e-01  1.52e-01  0.700   6.8
    6    -1070.7946291473310794    -2.43e-02  1.36e-03  9.86e-02  1.06e-01  0.700   6.8
    7    -1070.8117097082188138    -1.71e-02  9.59e-04  6.93e-02  7.44e-02  0.700   6.7
    8    -1070.8236808999670302    -1.20e-02  2.24e-03  1.61e-01  5.23e-02  0.000   7.2
                              *** Initializing SOSCF ***
---------------------------------------S-O-S-C-F--------------------------------------
Iteration    Energy (Eh)           Delta-E    RMSDP     MaxDP     MaxGrad    Time(sec)
--------------------------------------------------------------------------------------
    9    -1070.8516651224465477    -2.80e-02  2.26e-05  1.20e-03  6.49e-04     6.7
               *** Restarting incremental Fock matrix formation ***
   10    -1070.8516654869133617    -3.64e-07  2.32e-05  8.77e-04  2.45e-04     8.2
   11    -1070.8516598291205355     5.66e-06  1.58e-05  5.78e-04  5.74e-04     5.8
   12    -1070.8516670333121965    -7.20e-06  3.93e-06  1.07e-04  2.46e-05     5.7
                  *** Gradient check signals convergence ***

               *****************************************************
               *                     SUCCESS                       *
               *           SCF CONVERGED AFTER  12 CYCLES          *
               *****************************************************


SMD CDS free energy correction energy :                 6.16846     Kcal/mol
Total Energy after SMD CDS correction =             -1070.841836973 Eh
             **** ENERGY FILE WAS UPDATED (sp_solv.en.tmp) ****

----------------
TOTAL SCF ENERGY
----------------

Total Energy       :      -1070.84183697320100 Eh          -29139.08779 eV

Components:
Nuclear Repulsion  :       1077.90365198242102 Eh           29331.24954 eV
Electronic Energy  :      -2148.72166619521659 Eh          -58469.68908 eV
One Electron Energy:      -3606.93478598189859 Eh          -98149.68536 eV
Two Electron Energy:       1458.21311978668200 Eh           39679.99628 eV
CPCM Dielectric    :         -0.03365282051662 Eh              -0.91574 eV
SMD CDS (Gcds)     :          0.00983006011112 Eh               0.26749 eV

Virial components:
Potential Energy   :      -2138.21435285650750 Eh          -58183.77055 eV
Kinetic Energy     :       1067.37251588330673 Eh           29044.68276 eV
Virial Ratio       :          2.00325033766400

DFT components:
N(Alpha)           :       57.000127915018 electrons
N(Beta)            :       57.000127915018 electrons
N(Total)           :      114.000255830035 electrons
E(X)               :     -109.012007105663 Eh       
E(C)               :       -3.845111677277 Eh       
E(XC)              :     -112.857118782940 Eh       

CPCM Solvation Model Properties:
Surface-charge          :         -0.04192447746918
Corrected charge        :         -0.00000000000000
Outlying charge corr.   :          0.00011233759783 Eh               0.00306 eV
Free-energy (cav+disp)  :          0.00983006011112 Eh               0.26749 eV

---------------
SCF CONVERGENCE
---------------

  Last Energy change         ...    7.2042e-06  Tolerance :   1.0000e-06
  Last MAX-Density change    ...    1.0723e-04  Tolerance :   1.0000e-05
  Last RMS-Density change    ...    3.9290e-06  Tolerance :   1.0000e-06
  Last DIIS Error            ...    6.4947e-04  Tolerance :   1.0000e-06
  Last Orbital Gradient      ...    2.4563e-05  Tolerance :   3.3300e-04
  Last Orbital Rotation      ...    1.1088e-04  Tolerance :   3.3300e-04


----------------
ORBITAL ENERGIES
----------------

  NO   OCC          E(Eh)            E(eV) 
   0   2.0000    -101.227974     -2754.5532 
   1   2.0000     -18.937883      -515.3260 
   2   2.0000     -18.936360      -515.2845 
   3   2.0000     -14.226583      -387.1250 
   4   2.0000     -14.225554      -387.0970 
   5   2.0000     -10.184036      -277.1217 
   6   2.0000     -10.156464      -276.3714 
   7   2.0000     -10.117586      -275.3135 
   8   2.0000     -10.094630      -274.6888 
   9   2.0000     -10.093077      -274.6466 
  10   2.0000     -10.039974      -273.2016 
  11   2.0000     -10.014434      -272.5066 
  12   2.0000     -10.011747      -272.4335 
  13   2.0000     -10.011159      -272.4175 
  14   2.0000      -9.383472      -255.3373 
  15   2.0000      -7.129962      -194.0161 
  16   2.0000      -7.119666      -193.7360 
  17   2.0000      -7.119140      -193.7216 
  18   2.0000      -1.054266       -28.6880 
  19   2.0000      -1.022395       -27.8208 
  20   2.0000      -0.951793       -25.8996 
  21   2.0000      -0.915706       -24.9176 
  22   2.0000      -0.847141       -23.0519 
  23   2.0000      -0.778288       -21.1783 
  24   2.0000      -0.753264       -20.4974 
  25   2.0000      -0.695514       -18.9259 
  26   2.0000      -0.657848       -17.9009 
  27   2.0000      -0.656871       -17.8744 
  28   2.0000      -0.628525       -17.1030 
  29   2.0000      -0.616852       -16.7854 
  30   2.0000      -0.562189       -15.2979 
  31   2.0000      -0.543929       -14.8011 
  32   2.0000      -0.504036       -13.7155 
  33   2.0000      -0.468117       -12.7381 
  34   2.0000      -0.444711       -12.1012 
  35   2.0000      -0.440422       -11.9845 
  36   2.0000      -0.426242       -11.5986 
  37   2.0000      -0.418925       -11.3995 
  38   2.0000      -0.415376       -11.3030 
  39   2.0000      -0.400144       -10.8885 
  40   2.0000      -0.398908       -10.8548 
  41   2.0000      -0.393483       -10.7072 
  42   2.0000      -0.386542       -10.5184 
  43   2.0000      -0.372461       -10.1352 
  44   2.0000      -0.359359        -9.7786 
  45   2.0000      -0.353691        -9.6244 
  46   2.0000      -0.345418        -9.3993 
  47   2.0000      -0.332292        -9.0421 
  48   2.0000      -0.326610        -8.8875 
  49   2.0000      -0.311298        -8.4709 
  50   2.0000      -0.307359        -8.3637 
  51   2.0000      -0.305283        -8.3072 
  52   2.0000      -0.293753        -7.9934 
  53   2.0000      -0.265716        -7.2305 
  54   2.0000      -0.253658        -6.9024 
  55   2.0000      -0.241251        -6.5648 
  56   2.0000      -0.212586        -5.7848 
  57   0.0000      -0.069916        -1.9025 
  58   0.0000      -0.025026        -0.6810 
  59   0.0000       0.005779         0.1573 
  60   0.0000       0.057457         1.5635 
  61   0.0000       0.058702         1.5974 
  62   0.0000       0.090837         2.4718 
  63   0.0000       0.105904         2.8818 
  64   0.0000       0.113814         3.0970 
  65   0.0000       0.124955         3.4002 
  66   0.0000       0.127649         3.4735 
  67   0.0000       0.132546         3.6068 
*Only the first 10 virtual orbitals were printed.

                    ********************************
                    * MULLIKEN POPULATION ANALYSIS *
                    ********************************

-----------------------
MULLIKEN ATOMIC CHARGES
-----------------------
   0 C :   -0.612962
   1 C :    0.184449
   2 C :   -0.038807
   3 C :    0.162450
   4 O :   -0.499036
   5 N :    0.204871
   6 C :    0.219432
   7 O :   -0.509829
   8 N :   -0.033966
   9 C :    0.138661
  10 C :   -0.552183
  11 C :   -0.519803
  12 C :   -0.586401
  13 Cl:   -0.128686
  14 H :    0.197699
  15 H :    0.209646
  16 H :    0.190788
  17 H :    0.334934
  18 H :    0.180815
  19 H :    0.189312
  20 H :    0.184578
  21 H :    0.178210
  22 H :    0.186463
  23 H :    0.183738
  24 H :    0.180710
  25 H :    0.176583
  26 H :    0.178331
Sum of atomic charges:    0.0000000

--------------------------------
MULLIKEN REDUCED ORBITAL CHARGES
--------------------------------
  0 C s       :     3.434690  s :     3.434690
      pz      :     1.110502  p :     3.152207
      px      :     0.964867
      py      :     1.076837
      dz2     :     0.005636  d :     0.026065
      dxz     :     0.005627
      dyz     :     0.002397
      dx2y2   :     0.006595
      dxy     :     0.005811

  1 C s       :     3.208300  s :     3.208300
      pz      :     0.868605  p :     2.543249
      px      :     0.889078
      py      :     0.785566
      dz2     :     0.004997  d :     0.064001
      dxz     :     0.010175
      dyz     :     0.012717
      dx2y2   :     0.016852
      dxy     :     0.019260

  2 C s       :     3.180764  s :     3.180764
      pz      :     1.181992  p :     2.808853
      px      :     0.806366
      py      :     0.820495
      dz2     :     0.004252  d :     0.049189
      dxz     :     0.005515
      dyz     :     0.007559
      dx2y2   :     0.015827
      dxy     :     0.016036

  3 C s       :     3.176581  s :     3.176581
      pz      :     0.800507  p :     2.549039
      px      :     0.926080
      py      :     0.822453
      dz2     :     0.007752  d :     0.111929
      dxz     :     0.010956
      dyz     :     0.023637
      dx2y2   :     0.023120
      dxy     :     0.046463

  4 O s       :     3.847242  s :     3.847242
      pz      :     1.497153  p :     4.622028
      px      :     1.807896
      py      :     1.316979
      dz2     :     0.006438  d :     0.029765
      dxz     :     0.003905
      dyz     :     0.008357
      dx2y2   :     0.007218
      dxy     :     0.003848

  5 N s       :     3.190163  s :     3.190163
      pz      :     1.526342  p :     3.449392
      px      :     0.985064
      py      :     0.937986
      dz2     :     0.011708  d :     0.155573
      dxz     :     0.025236
      dyz     :     0.017309
      dx2y2   :     0.047857
      dxy     :     0.053463

  6 C s       :     3.106761  s :     3.106761
      pz      :     0.815972  p :     2.543962
      px      :     0.826617
      py      :     0.901374
      dz2     :     0.010686  d :     0.129844
      dxz     :     0.020586
      dyz     :     0.020911
      dx2y2   :     0.050938
      dxy     :     0.026723

  7 O s       :     3.848931  s :     3.848931
      pz      :     1.517608  p :     4.630674
      px      :     1.529046
      py      :     1.584021
      dz2     :     0.005088  d :     0.030224
      dxz     :     0.006993
      dyz     :     0.003804
      dx2y2   :     0.004783
      dxy     :     0.009556

  8 N s       :     3.312368  s :     3.312368
      pz      :     1.569971  p :     3.627237
      px      :     0.889770
      py      :     1.167496
      dz2     :     0.009800  d :     0.094361
      dxz     :     0.012634
      dyz     :     0.013762
      dx2y2   :     0.021532
      dxy     :     0.036633

  9 C s       :     3.032934  s :     3.032934
      pz      :     0.937637  p :     2.765159
      px      :     0.875688
      py      :     0.951834
      dz2     :     0.013093  d :     0.063246
      dxz     :     0.012347
      dyz     :     0.013331
      dx2y2   :     0.011715
      dxy     :     0.012760

 10 C s       :     3.388332  s :     3.388332
      pz      :     1.012779  p :     3.137641
      px      :     1.123937
      py      :     1.000926
      dz2     :     0.005195  d :     0.026209
      dxz     :     0.003812
      dyz     :     0.006878
      dx2y2   :     0.005570
      dxy     :     0.004754

 11 C s       :     3.369581  s :     3.369581
      pz      :     1.058931  p :     3.123788
      px      :     1.035493
      py      :     1.029364
      dz2     :     0.003943  d :     0.026434
      dxz     :     0.004730
      dyz     :     0.007143
      dx2y2   :     0.003517
      dxy     :     0.007101

 12 C s       :     3.413761  s :     3.413761
      pz      :     0.967471  p :     3.146408
      px      :     1.081950
      py      :     1.096987
      dz2     :     0.005701  d :     0.026232
      dxz     :     0.004026
      dyz     :     0.007908
      dx2y2   :     0.003748
      dxy     :     0.004849

 13 Cls       :     5.938235  s :     5.938235
      pz      :     3.937342  p :    11.132807
      px      :     3.525066
      py      :     3.670399
      dz2     :     0.005935  d :     0.057643
      dxz     :     0.012774
      dyz     :     0.010254
      dx2y2   :     0.010432
      dxy     :     0.018249

 14 H s       :     0.783643  s :     0.783643
      pz      :     0.006971  p :     0.018658
      px      :     0.007230
      py      :     0.004457

 15 H s       :     0.771778  s :     0.771778
      pz      :     0.010253  p :     0.018576
      px      :     0.004540
      py      :     0.003783

 16 H s       :     0.790772  s :     0.790772
      pz      :     0.003695  p :     0.018440
      px      :     0.003181
      py      :     0.011564

 17 H s       :     0.633468  s :     0.633468
      pz      :     0.008037  p :     0.031598
      px      :     0.003335
      py      :     0.020226

 18 H s       :     0.800797  s :     0.800797
      pz      :     0.003951  p :     0.018388
      px      :     0.010140
      py      :     0.004297

 19 H s       :     0.791036  s :     0.791036
      pz      :     0.005144  p :     0.019651
      px      :     0.006518
      py      :     0.007990

 20 H s       :     0.797223  s :     0.797223
      pz      :     0.009163  p :     0.018199
      px      :     0.005172
      py      :     0.003865

 21 H s       :     0.803428  s :     0.803428
      pz      :     0.004205  p :     0.018363
      px      :     0.009096
      py      :     0.005062

 22 H s       :     0.794128  s :     0.794128
      pz      :     0.006676  p :     0.019409
      px      :     0.004111
      py      :     0.008622

 23 H s       :     0.798044  s :     0.798044
      pz      :     0.008889  p :     0.018218
      px      :     0.004681
      py      :     0.004649

 24 H s       :     0.800899  s :     0.800899
      pz      :     0.003490  p :     0.018391
      px      :     0.010053
      py      :     0.004848

 25 H s       :     0.805102  s :     0.805102
      pz      :     0.006297  p :     0.018316
      px      :     0.003622
      py      :     0.008396

 26 H s       :     0.803193  s :     0.803193
      pz      :     0.004807  p :     0.018476
      px      :     0.006419
      py      :     0.007250


------------------------
MULLIKEN OVERLAP CHARGES
------------------------
B(  0-C ,  1-C ) :   0.3457 B(  0-C ,  2-C ) :  -0.2433 B(  0-C , 14-H ) :   0.8115 
B(  0-C , 15-H ) :   0.7879 B(  0-C , 16-H ) :   0.8561 B(  1-C ,  2-C ) :   0.4075 
B(  1-C ,  3-C ) :   0.1780 B(  1-C ,  5-N ) :   0.0780 B(  1-C ,  6-C ) :  -0.2895 
B(  1-C ,  8-N ) :   0.6162 B(  1-C , 13-Cl) :  -0.2085 B(  1-C , 14-H ) :  -0.0677 
B(  1-C , 16-H ) :  -0.1145 B(  1-C , 17-H ) :  -0.0950 B(  2-C ,  3-C ) :  -0.3093 
B(  2-C ,  4-O ) :  -0.3417 B(  2-C ,  5-N ) :  -0.2959 B(  2-C ,  8-N ) :  -0.1406 
B(  2-C , 13-Cl) :   0.6796 B(  3-C ,  4-O ) :   1.2990 B(  3-C ,  5-N ) :   0.5544 
B(  3-C ,  6-C ) :  -0.1778 B(  3-C ,  9-C ) :  -0.1526 B(  3-C , 13-Cl) :  -0.1698 
B(  4-O ,  5-N ) :  -0.2232 B(  4-O , 10-C ) :  -0.0551 B(  5-N ,  6-C ) :   0.7378 
B(  5-N ,  7-O ) :  -0.2053 B(  5-N ,  8-N ) :  -0.2844 B(  5-N ,  9-C ) :   0.2728 
B(  5-N , 10-C ) :  -0.1453 B(  5-N , 11-C ) :  -0.1612 B(  5-N , 12-C ) :  -0.0719 
B(  6-C ,  7-O ) :   1.2833 B(  6-C ,  8-N ) :   0.5705 B(  6-C ,  9-C ) :  -0.0961 
B(  6-C , 11-C ) :  -0.0607 B(  6-C , 17-H ) :  -0.0663 B(  7-O ,  8-N ) :  -0.2822 
B(  8-N , 17-H ) :   0.7559 B(  9-C , 10-C ) :   0.4988 B(  9-C , 11-C ) :   0.4364 
B(  9-C , 12-C ) :   0.5701 B(  9-C , 18-H ) :  -0.0738 B(  9-C , 19-H ) :  -0.0522 
B(  9-C , 20-H ) :  -0.0987 B(  9-C , 21-H ) :  -0.0692 B(  9-C , 23-H ) :  -0.0974 
B(  9-C , 24-H ) :  -0.0984 B(  9-C , 25-H ) :  -0.0554 B(  9-C , 26-H ) :  -0.0615 
B( 10-C , 11-C ) :  -0.2984 B( 10-C , 12-C ) :  -0.1737 B( 10-C , 18-H ) :   0.8244 
B( 10-C , 19-H ) :   0.8032 B( 10-C , 20-H ) :   0.8396 B( 11-C , 12-C ) :  -0.1764 
B( 11-C , 21-H ) :   0.8167 B( 11-C , 22-H ) :   0.8031 B( 11-C , 23-H ) :   0.8458 
B( 12-C , 24-H ) :   0.8552 B( 12-C , 25-H ) :   0.8024 B( 12-C , 26-H ) :   0.8161 



                     *******************************
                     * LOEWDIN POPULATION ANALYSIS *
                     *******************************

----------------------
LOEWDIN ATOMIC CHARGES
----------------------
   0 C :   -0.344369
   1 C :    0.182018
   2 C :   -0.143093
   3 C :    0.364366
   4 O :   -0.549729
   5 N :   -0.606172
   6 C :    0.470108
   7 O :   -0.476116
   8 N :   -0.483407
   9 C :    0.061789
  10 C :   -0.359071
  11 C :   -0.358102
  12 C :   -0.359593
  13 Cl:    0.165537
  14 H :    0.188271
  15 H :    0.192529
  16 H :    0.182342
  17 H :    0.317165
  18 H :    0.167475
  19 H :    0.186165
  20 H :    0.171033
  21 H :    0.167011
  22 H :    0.183844
  23 H :    0.171441
  24 H :    0.168433
  25 H :    0.168650
  26 H :    0.171476

-------------------------------
LOEWDIN REDUCED ORBITAL CHARGES
-------------------------------
  0 C s       :     2.945731  s :     2.945731
      pz      :     1.158508  p :     3.339039
      px      :     1.038479
      py      :     1.142052
      dz2     :     0.013035  d :     0.059600
      dxz     :     0.013316
      dyz     :     0.004851
      dx2y2   :     0.015510
      dxy     :     0.012887

  1 C s       :     2.786687  s :     2.786687
      pz      :     0.845507  p :     2.894608
      px      :     1.008882
      py      :     1.040219
      dz2     :     0.010188  d :     0.136687
      dxz     :     0.017738
      dyz     :     0.025014
      dx2y2   :     0.040560
      dxy     :     0.043187

  2 C s       :     2.868129  s :     2.868129
      pz      :     1.140515  p :     3.169909
      px      :     0.989445
      py      :     1.039949
      dz2     :     0.008352  d :     0.105056
      dxz     :     0.009696
      dyz     :     0.013672
      dx2y2   :     0.036376
      dxy     :     0.036960

  3 C s       :     2.712378  s :     2.712378
      pz      :     0.769609  p :     2.679272
      px      :     0.951645
      py      :     0.958018
      dz2     :     0.017966  d :     0.243984
      dxz     :     0.020690
      dyz     :     0.046264
      dx2y2   :     0.055686
      dxy     :     0.103378

  4 O s       :     3.544656  s :     3.544656
      pz      :     1.491134  p :     4.737044
      px      :     1.766832
      py      :     1.479078
      dz2     :     0.031374  d :     0.268029
      dxz     :     0.032245
      dyz     :     0.051468
      dx2y2   :     0.077240
      dxy     :     0.075701

  5 N s       :     3.087468  s :     3.087468
      pz      :     1.474093  p :     3.840761
      px      :     1.210462
      py      :     1.156207
      dz2     :     0.077572  d :     0.677943
      dxz     :     0.110700
      dyz     :     0.101019
      dx2y2   :     0.191555
      dxy     :     0.197097

  6 C s       :     2.656213  s :     2.656213
      pz      :     0.757058  p :     2.592565
      px      :     0.916676
      py      :     0.918831
      dz2     :     0.024014  d :     0.281114
      dxz     :     0.041088
      dyz     :     0.041110
      dx2y2   :     0.110981
      dxy     :     0.063922

  7 O s       :     3.534229  s :     3.534229
      pz      :     1.508952  p :     4.703473
      px      :     1.585489
      py      :     1.609032
      dz2     :     0.032933  d :     0.238413
      dxz     :     0.047475
      dyz     :     0.029676
      dx2y2   :     0.070033
      dxy     :     0.058296

  8 N s       :     3.080249  s :     3.080249
      pz      :     1.503771  p :     3.900120
      px      :     1.178975
      py      :     1.217374
      dz2     :     0.059142  d :     0.503038
      dxz     :     0.094995
      dyz     :     0.044787
      dx2y2   :     0.170582
      dxy     :     0.133532

  9 C s       :     2.801802  s :     2.801802
      pz      :     1.064525  p :     3.008500
      px      :     0.908602
      py      :     1.035373
      dz2     :     0.024839  d :     0.127909
      dxz     :     0.024562
      dyz     :     0.027339
      dx2y2   :     0.024155
      dxy     :     0.027015

 10 C s       :     2.958959  s :     2.958959
      pz      :     1.102408  p :     3.339166
      px      :     1.152035
      py      :     1.084722
      dz2     :     0.011837  d :     0.060947
      dxz     :     0.009212
      dyz     :     0.015743
      dx2y2   :     0.013164
      dxy     :     0.010992

 11 C s       :     2.958594  s :     2.958594
      pz      :     1.130807  p :     3.337921
      px      :     1.094972
      py      :     1.112143
      dz2     :     0.008878  d :     0.061586
      dxz     :     0.010838
      dyz     :     0.017174
      dx2y2   :     0.007794
      dxy     :     0.016903

 12 C s       :     2.958434  s :     2.958434
      pz      :     1.064221  p :     3.339677
      px      :     1.129270
      py      :     1.146185
      dz2     :     0.013342  d :     0.061482
      dxz     :     0.008670
      dyz     :     0.018440
      dx2y2   :     0.009121
      dxy     :     0.011909

 13 Cls       :     5.635154  s :     5.635154
      pz      :     3.905841  p :    11.077352
      px      :     3.522997
      py      :     3.648515
      dz2     :     0.014099  d :     0.121956
      dxz     :     0.023572
      dyz     :     0.019107
      dx2y2   :     0.020536
      dxy     :     0.044642

 14 H s       :     0.766512  s :     0.766512
      pz      :     0.017472  p :     0.045217
      px      :     0.017096
      py      :     0.010650

 15 H s       :     0.762365  s :     0.762365
      pz      :     0.026221  p :     0.045106
      px      :     0.010216
      py      :     0.008669

 16 H s       :     0.773255  s :     0.773255
      pz      :     0.008411  p :     0.044404
      px      :     0.006769
      py      :     0.029223

 17 H s       :     0.598183  s :     0.598183
      pz      :     0.020010  p :     0.084652
      px      :     0.009207
      py      :     0.055436

 18 H s       :     0.787613  s :     0.787613
      pz      :     0.009052  p :     0.044912
      px      :     0.025789
      py      :     0.010071

 19 H s       :     0.764290  s :     0.764290
      pz      :     0.012848  p :     0.049545
      px      :     0.016640
      py      :     0.020058

 20 H s       :     0.784728  s :     0.784728
      pz      :     0.022748  p :     0.044239
      px      :     0.012423
      py      :     0.009068

 21 H s       :     0.788197  s :     0.788197
      pz      :     0.009726  p :     0.044792
      px      :     0.022599
      py      :     0.012467

 22 H s       :     0.767910  s :     0.767910
      pz      :     0.017008  p :     0.048245
      px      :     0.009030
      py      :     0.022208

 23 H s       :     0.784479  s :     0.784479
      pz      :     0.021984  p :     0.044080
      px      :     0.011100
      py      :     0.010995

 24 H s       :     0.786946  s :     0.786946
      pz      :     0.008029  p :     0.044621
      px      :     0.025246
      py      :     0.011346

 25 H s       :     0.787061  s :     0.787061
      pz      :     0.015152  p :     0.044289
      px      :     0.008064
      py      :     0.021073

 26 H s       :     0.783614  s :     0.783614
      pz      :     0.011295  p :     0.044910
      px      :     0.015893
      py      :     0.017722


---------------------------------
LOEWDIN BOND ORDERS (THRESH 0.050000)
---------------------------------
B(  0-C ,  1-C ) :   1.0592 B(  0-C ,  2-C ) :   0.0893 B(  0-C ,  8-N ) :   0.1665 
B(  0-C , 14-H ) :   0.8927 B(  0-C , 15-H ) :   0.8890 B(  0-C , 16-H ) :   0.9005 
B(  1-C ,  2-C ) :   1.4167 B(  1-C ,  3-C ) :   0.0934 B(  1-C ,  4-O ) :   0.0536 
B(  1-C ,  5-N ) :   0.0600 B(  1-C ,  6-C ) :   0.0765 B(  1-C ,  8-N ) :   1.4603 
B(  1-C , 13-Cl) :   0.1563 B(  2-C ,  3-C ) :   0.9844 B(  2-C ,  4-O ) :   0.2261 
B(  2-C ,  5-N ) :   0.1491 B(  2-C ,  8-N ) :   0.2474 B(  2-C , 13-Cl) :   1.3902 
B(  3-C ,  4-O ) :   2.0507 B(  3-C ,  5-N ) :   1.2181 B(  3-C ,  6-C ) :   0.0737 
B(  3-C ,  8-N ) :   0.0594 B(  3-C ,  9-C ) :   0.0627 B(  3-C , 13-Cl) :   0.1199 
B(  4-O ,  5-N ) :   0.3895 B(  4-O , 10-C ) :   0.0786 B(  4-O , 13-Cl) :   0.0799 
B(  5-N ,  6-C ) :   1.1898 B(  5-N ,  7-O ) :   0.3695 B(  5-N ,  8-N ) :   0.2562 
B(  5-N ,  9-C ) :   1.1325 B(  5-N , 10-C ) :   0.1384 B(  5-N , 11-C ) :   0.1331 
B(  5-N , 12-C ) :   0.1387 B(  6-C ,  7-O ) :   1.9670 B(  6-C ,  8-N ) :   1.2239 
B(  6-C ,  9-C ) :   0.0645 B(  7-O ,  8-N ) :   0.4191 B(  7-O , 11-C ) :   0.0819 
B(  8-N , 17-H ) :   0.8196 B(  9-C , 10-C ) :   1.0074 B(  9-C , 11-C ) :   1.0116 
B(  9-C , 12-C ) :   1.0195 B( 10-C , 11-C ) :   0.0790 B( 10-C , 12-C ) :   0.0668 
B( 10-C , 18-H ) :   0.9019 B( 10-C , 19-H ) :   0.8767 B( 10-C , 20-H ) :   0.9056 
B( 11-C , 12-C ) :   0.0688 B( 11-C , 21-H ) :   0.9002 B( 11-C , 22-H ) :   0.8815 
B( 11-C , 23-H ) :   0.9035 B( 12-C , 24-H ) :   0.9054 B( 12-C , 25-H ) :   0.9070 
B( 12-C , 26-H ) :   0.9025 

------------------------------------------
LOEWDIN REDUCED ORBITAL POPULATIONS PER MO
-------------------------------------------
THRESHOLD FOR PRINTING IS 0.1%%
                      0         1         2         3         4         5   
                 -101.22797 -18.93788 -18.93636 -14.22658 -14.22555 -10.18404
                   2.00000   2.00000   2.00000   2.00000   2.00000   2.00000
                  --------  --------  --------  --------  --------  --------
 4 O  s               0.0       0.0      99.9       0.0       0.0       0.0
 5 N  s               0.0       0.0       0.0      99.8       0.0       0.0
 5 N  py              0.0       0.0       0.0       0.0       0.0       0.1
 5 N  dx2y2           0.0       0.0       0.0       0.0       0.0       0.2
 6 C  s               0.0       0.0       0.0       0.0       0.0      98.6
 7 O  s               0.0      99.9       0.0       0.0       0.0       0.0
 7 O  px              0.0       0.0       0.0       0.0       0.0       0.1
 7 O  dxy             0.0       0.0       0.0       0.0       0.0       0.2
 8 N  s               0.0       0.0       0.0       0.0      99.8       0.0
 8 N  dx2y2           0.0       0.0       0.0       0.0       0.0       0.1
13 Cl s             100.0       0.0       0.0       0.0       0.0       0.0

                      6         7         8         9        10        11   
                 -10.15646 -10.11759 -10.09463 -10.09308 -10.03997 -10.01443
                   2.00000   2.00000   2.00000   2.00000   2.00000   2.00000
                  --------  --------  --------  --------  --------  --------
 0 C  s               0.0       0.0       0.0       0.0      99.7       0.0
 1 C  s               0.0      99.2       0.0       0.0       0.0       0.0
 1 C  py              0.0       0.0       0.2       0.0       0.0       0.0
 2 C  s               0.0       0.0      99.5       0.0       0.0       0.0
 2 C  py              0.0       0.1       0.0       0.0       0.0       0.0
 3 C  s              98.9       0.0       0.0       0.0       0.0       0.0
 4 O  py              0.2       0.0       0.0       0.0       0.0       0.0
 4 O  dx2y2           0.2       0.0       0.0       0.0       0.0       0.0
 5 N  dxy             0.2       0.0       0.0       0.1       0.0       0.0
 8 N  dxy             0.0       0.2       0.0       0.0       0.0       0.0
 9 C  s               0.0       0.0       0.0      99.4       0.0       0.0
12 C  s               0.0       0.0       0.0       0.0       0.0      99.7

                     12        13        14        15        16        17   
                 -10.01175 -10.01116  -9.38347  -7.12996  -7.11967  -7.11914
                   2.00000   2.00000   2.00000   2.00000   2.00000   2.00000
                  --------  --------  --------  --------  --------  --------
10 C  s               0.0      99.7       0.0       0.0       0.0       0.0
11 C  s              99.7       0.0       0.0       0.0       0.0       0.0
13 Cl s               0.0       0.0      99.8       0.0       0.0       0.0
13 Cl pz              0.0       0.0       0.0       0.3      97.2       2.5
13 Cl px              0.0       0.0       0.0      59.8       2.1      38.1
13 Cl py              0.0       0.0       0.0      39.9       0.7      59.4

                     18        19        20        21        22        23   
                  -1.05427  -1.02239  -0.95179  -0.91571  -0.84714  -0.77829
                   2.00000   2.00000   2.00000   2.00000   2.00000   2.00000
                  --------  --------  --------  --------  --------  --------
 0 C  s               0.1       0.0       1.0       0.5       0.7       1.4
 0 C  px              0.1       0.0       1.0       0.4       0.1       0.2
 0 C  py              0.0       0.0       0.1       0.0       0.7       0.0
 1 C  s               1.6       0.0       9.5       3.4       2.1       1.2
 1 C  px              1.5       0.0       2.9       0.6       1.1       0.4
 1 C  py              0.0       0.4       0.6       0.6       5.6       0.7
 1 C  dz2             0.0       0.0       0.2       0.1       0.0       0.0
 1 C  dxy             0.0       0.0       0.2       0.1       0.1       0.0
 2 C  s               1.1       1.2       2.3       0.5      18.0       0.1
 2 C  px              0.7       0.9       0.0       0.4       5.7       1.2
 2 C  py              0.0       1.1       2.0       0.2       2.3       0.1
 2 C  dz2             0.0       0.0       0.0       0.0       0.2       0.0
 2 C  dxy             0.0       0.0       0.0       0.0       0.2       0.0
 3 C  s               4.7      14.9       0.1       0.3       0.7       1.2
 3 C  pz              0.0       0.3       0.2       0.2       0.2       0.0
 3 C  px              0.5       0.3       0.0       4.2       3.9       0.2
 3 C  py              0.3       8.1       4.5       7.1       1.4       2.0
 3 C  dz2             0.1       0.4       0.0       0.0       0.0       0.0
 3 C  dyz             0.0       0.2       0.0       0.0       0.0       0.0
 3 C  dx2y2           0.1       0.6       0.1       0.2       0.1       0.0
 3 C  dxy             0.0       0.0       0.0       0.4       0.0       0.0
 4 O  s               4.5      39.1       3.8       6.0       1.5       0.3
 4 O  pz              0.0       0.2       0.0       0.0       0.0       0.0
 4 O  px              0.0       0.0       0.0       0.1       0.1       0.0
 4 O  py              0.8       4.6       0.2       0.3       0.1       0.1
 4 O  dz2             0.1       0.2       0.0       0.1       0.1       0.0
 4 O  dx2y2           0.1       0.4       0.0       0.2       0.0       0.3
 4 O  dxy             0.0       0.0       0.0       0.2       0.2       0.0
 5 N  s               9.3       1.7       3.2      28.6       0.0       1.4
 5 N  pz              0.1       0.0       0.0       0.0       0.0       0.2
 5 N  px              0.2       0.7       0.5       0.5       0.1       8.5
 5 N  py              1.0       2.9       0.1       0.1       0.0       1.4
 5 N  dz2             1.0       0.2       0.0       0.1       0.0       0.1
 5 N  dyz             0.1       0.2       0.0       0.0       0.0       0.0
 5 N  dx2y2           0.7       0.0       0.3       0.3       0.2       0.5
 5 N  dxy             0.1       0.7       1.0       0.1       0.1       0.8
 6 C  s              19.1       2.1       0.2       0.2       0.1       0.9
 6 C  pz              0.2       0.2       1.1       0.2       0.1       0.0
 6 C  px              1.0       0.9      13.8       1.7       1.2       0.4
 6 C  py              0.8       3.0       3.1      11.1       0.1       1.2
 6 C  dz2             0.5       0.1       0.0       0.0       0.0       0.0
 6 C  dxz             0.1       0.0       0.0       0.0       0.0       0.0
 6 C  dyz             0.1       0.0       0.0       0.0       0.0       0.0
 6 C  dx2y2           0.0       0.0       0.0       0.6       0.0       0.1
 6 C  dxy             0.3       0.1       0.8       0.0       0.1       0.0
 7 O  s              26.7       9.0      16.1       1.2       0.7       0.1
 7 O  pz              0.3       0.1       0.1       0.0       0.0       0.0
 7 O  px              2.4       0.6       0.5       0.1       0.1       0.1
 7 O  py              1.7       0.4       0.5       0.1       0.0       0.0
 7 O  dz2             0.2       0.0       0.1       0.0       0.0       0.0
 7 O  dxz             0.1       0.0       0.1       0.0       0.0       0.0
 7 O  dx2y2           0.0       0.0       0.1       0.6       0.1       0.0
 7 O  dxy             0.5       0.0       0.1       0.1       0.0       0.2
 8 N  s               8.0       0.7      22.7       9.8       3.1       0.5
 8 N  px              1.6       0.3       1.1       0.6       0.4       1.5
 8 N  py              0.3       0.0       1.0       0.1       0.3       0.4
 8 N  dz2             0.7       0.0       0.2       0.0       0.1       0.0
 8 N  dxz             0.2       0.0       0.0       0.0       0.0       0.0
 8 N  dx2y2           0.6       0.3       0.2       0.1       0.0       0.1
 8 N  dxy             0.1       0.0       0.0       0.7       0.2       0.4
 9 C  s               1.0       0.2       0.2       5.9       0.0      20.1
 9 C  px              1.1       0.5       0.2       2.3       0.0       1.8
 9 C  py              0.4       0.2       0.0       0.5       0.0       0.3
10 C  s               0.1       0.1       0.0       0.6       0.0       9.4
10 C  pz              0.1       0.1       0.0       0.2       0.0       1.0
10 C  px              0.1       0.2       0.0       0.0       0.0       0.1
10 C  py              0.1       0.0       0.0       0.6       0.0       1.6
11 C  s               0.2       0.0       0.0       0.7       0.0       9.4
11 C  pz              0.1       0.0       0.0       0.1       0.0       0.4
11 C  px              0.4       0.0       0.0       0.5       0.0       0.7
11 C  py              0.0       0.1       0.0       0.2       0.0       1.6
12 C  s               0.1       0.0       0.0       0.7       0.0       8.9
12 C  pz              0.1       0.0       0.0       0.5       0.0       2.3
12 C  px              0.1       0.1       0.0       0.2       0.0       0.1
12 C  py              0.1       0.0       0.0       0.1       0.0       0.1
13 Cl s               0.1       0.2       0.3       0.3      43.6       0.2
13 Cl px              0.0       0.2       0.0       0.0       1.2       0.0
13 Cl py              0.0       0.0       0.1       0.0       1.0       0.0
13 Cl dz2             0.0       0.0       0.0       0.0       0.2       0.0
13 Cl dxy             0.0       0.0       0.0       0.0       0.5       0.0
14 H  s               0.0       0.0       0.1       0.0       0.1       0.2
15 H  s               0.0       0.0       0.1       0.0       0.1       0.2
16 H  s               0.0       0.0       0.1       0.1       0.1       0.2
17 H  s               1.0       0.1       2.4       1.6       0.6       0.3
17 H  py              0.1       0.0       0.5       0.3       0.1       0.0
18 H  s               0.0       0.0       0.0       0.0       0.0       1.3
18 H  px              0.0       0.0       0.0       0.0       0.0       0.1
19 H  s               0.0       0.1       0.0       0.0       0.0       1.2
20 H  s               0.0       0.0       0.0       0.0       0.0       1.2
21 H  s               0.0       0.0       0.0       0.1       0.0       1.3
22 H  s               0.0       0.0       0.0       0.0       0.0       1.2
23 H  s               0.0       0.0       0.0       0.0       0.0       1.1
24 H  s               0.0       0.0       0.0       0.1       0.0       1.2
25 H  s               0.0       0.0       0.0       0.1       0.0       1.1
26 H  s               0.0       0.0       0.0       0.1       0.0       1.1

                     24        25        26        27        28        29   
                  -0.75326  -0.69551  -0.65785  -0.65687  -0.62852  -0.61685
                   2.00000   2.00000   2.00000   2.00000   2.00000   2.00000
                  --------  --------  --------  --------  --------  --------
 0 C  s              14.5      16.0       0.0       0.1       1.4       9.2
 0 C  px              1.0       0.1       0.0       0.0       0.5       2.2
 0 C  py              0.4       0.0       0.0       0.0       0.2       0.4
 1 C  s              12.6       0.1       0.1       0.1       0.0       4.7
 1 C  pz              0.1       0.2       0.0       0.0       0.1       0.1
 1 C  px              3.7       6.8       0.0       0.0       1.2       4.1
 1 C  py              0.3       8.3       0.2       0.3       3.9       0.1
 1 C  dx2y2           0.0       0.2       0.0       0.0       0.0       0.0
 1 C  dxy             0.2       0.0       0.0       0.0       0.2       0.2
 2 C  s               2.1       8.4       0.1       0.1       0.5       0.1
 2 C  px              1.5       5.9       0.0       0.0       0.2       2.5
 2 C  py              8.7       0.5       0.1       0.2       0.9       4.2
 2 C  dx2y2           0.1       0.0       0.0       0.0       0.0       0.3
 2 C  dxy             0.3       0.1       0.0       0.0       0.0       0.1
 3 C  s               0.6       2.8       0.3       0.3       1.6       4.8
 3 C  pz              0.0       0.2       0.0       0.4       0.1       0.2
 3 C  px              0.0       3.9       0.9       0.8       2.2       0.3
 3 C  py              0.9       2.5       0.5       0.4       0.8       2.6
 3 C  dx2y2           0.0       0.1       0.1       0.0       0.2       0.1
 3 C  dxy             0.0       0.1       0.0       0.0       0.1       0.0
 4 O  s               0.1       1.3       0.6       0.5       1.5       2.2
 4 O  pz              0.0       0.0       0.0       0.1       0.0       0.1
 4 O  px              0.0       0.1       0.2       0.2       0.1       0.1
 4 O  py              0.1       0.5       0.2       0.1       1.2       1.8
 4 O  dz2             0.0       0.1       0.0       0.0       0.1       0.1
 4 O  dxz             0.0       0.0       0.0       0.2       0.0       0.0
 4 O  dx2y2           0.2       0.2       0.0       0.0       0.3       0.4
 4 O  dxy             0.0       0.3       0.1       0.0       0.2       0.1
 5 N  s               0.0       2.3       0.0       0.1       1.0       0.5
 5 N  pz              0.0       0.0       0.3       0.7       0.1       0.0
 5 N  px              0.3       1.7       0.2       0.5       0.0       7.7
 5 N  py              0.5       1.2       5.0       3.3      15.5       2.1
 5 N  dz2             0.0       0.2       0.0       0.0       0.0       0.0
 5 N  dxz             0.0       0.0       0.4       0.3       0.0       0.0
 5 N  dyz             0.0       0.0       0.0       0.3       0.1       0.0
 5 N  dx2y2           0.2       0.9       0.0       0.2       0.7       0.1
 5 N  dxy             0.4       0.0       0.1       0.0       1.1       0.2
 6 C  s               1.2       0.4       0.5       0.3       6.1       0.1
 6 C  pz              0.2       0.1       0.4       0.0       0.4       0.0
 6 C  px              3.5       0.1       0.1       0.1       1.8       3.6
 6 C  py              0.2       1.3       1.2       1.0       2.0       3.0
 6 C  dxy             0.3       0.1       0.0       0.0       0.1       0.0
 7 O  s               1.8       0.6       0.5       0.3       2.4       0.1
 7 O  pz              0.0       0.0       0.1       0.0       0.1       0.0
 7 O  px              0.6       0.1       0.1       0.0       1.0       0.8
 7 O  py              0.0       0.2       0.3       0.3       0.9       0.6
 7 O  dxz             0.1       0.0       0.0       0.0       0.1       0.0
 7 O  dyz             0.0       0.0       0.2       0.0       0.0       0.0
 7 O  dx2y2           0.2       0.1       0.0       0.1       0.0       0.8
 7 O  dxy             0.0       0.0       0.0       0.0       0.7       0.0
[...]
 5 N  dx2y2           4.5       0.0       0.2       0.0       0.0       0.0
 5 N  dxy             1.2       0.1       0.7       0.0       0.0       0.0
 6 C  s               1.1       0.9       2.8       0.0       0.5       0.2
 6 C  pz              0.0       0.2       0.5       0.0       0.0       0.0
 6 C  px              2.1       1.3       4.6       0.0       0.0       0.0
 6 C  py              4.0       0.9       1.8       0.0       0.0       0.0
 6 C  dz2             0.2       0.1       0.4       0.0       0.0       0.0
 6 C  dxz             0.3       0.1       0.4       0.0       0.0       0.0
 6 C  dyz             0.3       0.1       0.6       0.0       0.0       0.0
 6 C  dx2y2           8.9       0.0       0.0       0.0       0.0       0.0
 6 C  dxy             0.5       0.8       4.3       0.0       0.0       0.0
 7 O  s               3.3       4.7      13.4       0.0       0.0       0.0
 7 O  pz              0.2       0.3       1.1       0.0       0.0       0.0
 7 O  px              0.5       2.3       7.8       0.0       0.0       0.0
 7 O  py              2.4       2.4       6.0       0.0       0.0       0.0
 7 O  dz2             0.8       1.0       2.7       0.0       0.0       0.0
 7 O  dxz             0.2       0.8       2.5       0.0       0.0       0.0
 7 O  dyz             0.8       0.6       1.8       0.0       0.0       0.0
 7 O  dx2y2           1.1       0.1       0.5       0.0       0.0       0.0
 7 O  dxy             1.5       4.7      14.2       0.0       0.0       0.0
 8 N  s               0.3       0.1       0.2       0.1       0.1       0.0
 8 N  px              5.4       0.0       0.1       0.0       0.0       0.0
 8 N  py              9.1       0.3       2.1       0.0       0.0       0.0
 8 N  dz2             0.2       0.1       0.3       0.0       0.0       0.0
 8 N  dxz             0.3       0.0       0.0       0.0       0.0       0.0
 8 N  dyz             1.0       0.0       0.2       0.0       0.0       0.0
 8 N  dx2y2          21.8       0.4       4.4       0.0       0.0       0.0
 8 N  dxy             2.4       0.0       0.0       0.0       0.0       0.0
 9 C  s               0.1       0.0       0.0       0.4       0.3      11.3
 9 C  px              0.3       0.0       0.0       0.0       0.0       0.0
 9 C  dxy             0.3       0.0       0.1       0.0       0.0       0.0
10 C  s               0.0       0.0       0.0       0.1       1.3      33.6
11 C  s               0.0       0.0       0.0       0.0       1.3      39.4
12 C  s               0.0       0.0       0.0       0.4       0.0      11.8
17 H  s               6.0       0.2       1.4       0.0       0.0       0.0
17 H  px              0.4       0.0       0.0       0.0       0.0       0.0
17 H  py              8.4       0.2       1.7       0.0       0.0       0.0

                    348       349       350       351       352       353   
                  22.11790  22.15634  22.17746  22.27647  22.33045  22.49807
                   0.00000   0.00000   0.00000   0.00000   0.00000   0.00000
                  --------  --------  --------  --------  --------  --------
 0 C  s               0.6       0.0       0.0       0.1       0.3       0.3
 1 C  s               0.5       1.7      63.1       0.2       9.9       0.0
 2 C  s               0.0       0.4      16.7       1.2       6.8       0.1
 2 C  py              0.0       0.0       0.1       0.0       0.0       0.0
 3 C  s               0.1       0.0      16.9       0.1      79.9       0.2
 4 O  s               0.0       0.0       0.1       0.0       0.2       0.0
 4 O  py              0.0       0.0       0.0       0.0       0.1       0.0
 5 N  s               0.0       0.0       0.0       0.1       0.2       0.1
 5 N  py              0.0       0.0       0.0       0.0       0.1       0.2
 6 C  s               0.5       1.3       0.2       0.7       0.2      95.1
 7 O  s               0.0       0.0       0.0       0.0       0.0       0.2
 8 N  s               0.0       0.0       0.1       0.0       0.0       0.1
 8 N  px              0.0       0.0       0.1       0.0       0.0       0.2
 9 C  s              11.5       1.0       0.4      74.5       0.2       0.4
10 C  s              23.8      37.1       1.1       0.9       1.6       0.0
11 C  s               1.6      53.2       0.8       1.6       0.1       1.6
12 C  s              61.0       4.9       0.0      20.2       0.1       1.0

                    354       355       356       357       358   
                  25.46062  31.97451  32.15690  43.80284  43.82414
                   0.00000   0.00000   0.00000   0.00000   0.00000
                  --------  --------  --------  --------  --------
 2 C  px              0.3       0.0       0.0       0.0       0.0
 2 C  py              0.2       0.0       0.0       0.0       0.0
 4 O  s               0.0       0.0       0.0      98.0       1.9
 5 N  s               0.0       0.9      98.8       0.0       0.0
 7 O  s               0.0       0.0       0.0       1.9      98.0
 8 N  s               0.0      98.8       0.9       0.0       0.0
13 Cl s              99.1       0.0       0.0       0.0       0.0


                      *****************************
                      * MAYER POPULATION ANALYSIS *
                      *****************************

  NA   - Mulliken gross atomic population
  ZA   - Total nuclear charge
  QA   - Mulliken gross atomic charge
  VA   - Mayer's total valence
  BVA  - Mayer's bonded valence
  FA   - Mayer's free valence

  ATOM       NA         ZA         QA         VA         BVA        FA
  0 C      6.6130     6.0000    -0.6130     3.7701     3.7701     0.0000
  1 C      5.8156     6.0000     0.1844     3.5384     3.5384    -0.0000
  2 C      6.0388     6.0000    -0.0388     3.4032     3.4032     0.0000
  3 C      5.8375     6.0000     0.1625     4.0347     4.0347     0.0000
  4 O      8.4990     8.0000    -0.4990     1.9740     1.9740     0.0000
  5 N      6.7951     7.0000     0.2049     3.1015     3.1015     0.0000
  6 C      5.7806     6.0000     0.2194     4.1144     4.1144     0.0000
  7 O      8.5098     8.0000    -0.5098     1.9610     1.9610    -0.0000
  8 N      7.0340     7.0000    -0.0340     3.2409     3.2409    -0.0000
  9 C      5.8613     6.0000     0.1387     3.5301     3.5301     0.0000
 10 C      6.5522     6.0000    -0.5522     3.6360     3.6360    -0.0000
 11 C      6.5198     6.0000    -0.5198     3.6326     3.6326     0.0000
 12 C      6.5864     6.0000    -0.5864     3.7714     3.7714     0.0000
 13 Cl    17.1287    17.0000    -0.1287     1.1723     1.1723     0.0000
 14 H      0.8023     1.0000     0.1977     0.9468     0.9468     0.0000
 15 H      0.7904     1.0000     0.2096     0.9422     0.9422     0.0000
 16 H      0.8092     1.0000     0.1908     0.9524     0.9524     0.0000
 17 H      0.6651     1.0000     0.3349     0.8804     0.8804    -0.0000
 18 H      0.8192     1.0000     0.1808     0.9552     0.9552    -0.0000
 19 H      0.8107     1.0000     0.1893     0.9543     0.9543     0.0000
 20 H      0.8154     1.0000     0.1846     0.9536     0.9536    -0.0000
 21 H      0.8218     1.0000     0.1782     0.9556     0.9556     0.0000
 22 H      0.8135     1.0000     0.1865     0.9543     0.9543    -0.0000
 23 H      0.8163     1.0000     0.1837     0.9534     0.9534     0.0000
 24 H      0.8193     1.0000     0.1807     0.9554     0.9554    -0.0000
 25 H      0.8234     1.0000     0.1766     0.9546     0.9546    -0.0000
 26 H      0.8217     1.0000     0.1783     0.9555     0.9555    -0.0000

  Mayer bond orders larger than 0.100000
B(  0-C ,  1-C ) :   0.8440 B(  0-C , 14-H ) :   0.9497 B(  0-C , 15-H ) :   0.9367 
B(  0-C , 16-H ) :   0.9832 B(  1-C ,  2-C ) :   1.4415 B(  1-C ,  8-N ) :   1.1639 
B(  2-C ,  3-C ) :   0.9888 B(  2-C , 13-Cl) :   1.0572 B(  3-C ,  4-O ) :   1.8561 
B(  3-C ,  5-N ) :   1.0860 B(  5-N ,  6-C ) :   1.1425 B(  5-N ,  9-C ) :   0.8285 
B(  6-C ,  7-O ) :   1.8394 B(  6-C ,  8-N ) :   1.0529 B(  8-N , 17-H ) :   0.8783 
B(  9-C , 10-C ) :   0.8882 B(  9-C , 11-C ) :   0.8770 B(  9-C , 12-C ) :   0.9369 
B( 10-C , 18-H ) :   0.9652 B( 10-C , 19-H ) :   0.9559 B( 10-C , 20-H ) :   0.9773 
B( 11-C , 21-H ) :   0.9622 B( 11-C , 22-H ) :   0.9595 B( 11-C , 23-H ) :   0.9791 
B( 12-C , 24-H ) :   0.9722 B( 12-C , 25-H ) :   0.9602 B( 12-C , 26-H ) :   0.9640 


-------
TIMINGS
-------

Total SCF time: 0 days 0 hours 1 min 24 sec 

Total time                  ....      84.378 sec
Sum of individual times     ....      83.677 sec  ( 99.2%)

SCF preparation             ....       0.459 sec  (  0.5%)
Fock matrix formation       ....      80.932 sec  ( 95.9%)
  Startup                   ....       0.077 sec  (  0.1% of F)
  Split-RI-J                ....      17.264 sec  ( 21.3% of F)
  XC integration            ....      45.832 sec  ( 56.6% of F)
    XC Preparation          ....       0.000 sec  (  0.0% of XC)
    Basis function eval.    ....       7.037 sec  ( 15.4% of XC)
    Density eval.           ....      16.686 sec  ( 36.4% of XC)
    XC-Functional eval.     ....       3.535 sec  (  7.7% of XC)
    XC-Potential eval.      ....      17.234 sec  ( 37.6% of XC)
  CPCM terms                ....      16.989 sec  ( 21.0% of F)
Diagonalization             ....       0.000 sec  (  0.0%)
Density matrix formation    ....       0.365 sec  (  0.4%)
Total Energy calculation    ....       0.064 sec  (  0.1%)
Population analysis         ....       0.236 sec  (  0.3%)
Orbital Transformation      ....       0.100 sec  (  0.1%)
Orbital Orthonormalization  ....       0.000 sec  (  0.0%)
DIIS solution               ....       1.308 sec  (  1.5%)
  MO trafo                  ....       0.000 sec  (  0.0 % of DIIS)
  Orb grad                  ....       0.000 sec  (  0.0 % of DIIS)
  Energy W gradient         ....       0.000 sec  (  0.0 % of DIIS)
  DIIS error                ....       0.050 sec  (  3.8 % of DIIS)
  DIIS work                 ....       1.182 sec  ( 90.4 % of DIIS)
  Form Q                    ....       0.000 sec  (  0.0 % of DIIS)
  Form QpQm                 ....       0.000 sec  (  0.0 % of DIIS)
  Exp/Cayley                ....       0.000 sec  (  0.0 % of DIIS)
  Orb update                ....       0.000 sec  (  0.0 % of DIIS)
  Wake-sleep                ....       0.023 sec  (  1.8 % of DIIS)
SOSCF solution              ....       0.213 sec  (  0.3%)
  MO trafo                  ....       0.094 sec  ( 44.3 % of SOSCF)
  Orb grad                  ....       0.002 sec  (  1.0 % of SOSCF)
  Rot update                ....       0.041 sec  ( 19.1 % of SOSCF)
  Step                      ....       0.075 sec  ( 35.4 % of SOSCF)
Finished LeanSCF after  84.5 sec

Maximum memory used throughout the entire LEANSCF-calculation: 57.6 MB


-------------------------------------------------------------------------------
                          DFT DISPERSION CORRECTION                            
                                                                               
                                DFTD4 V3.4.0                                   
-------------------------------------------------------------------------------
The R2SCAN3C composite method is recognized
Using three-body term ABC
Active option DFTDOPT                   ...         5   

-------------------------   ----------------
Dispersion correction           -0.011586072
-------------------------   ----------------

------------------   -----------------
gCP correction             0.022535256
------------------   -----------------

-------------------------   --------------------
FINAL SINGLE POINT ENERGY     -1070.830887788401
-------------------------   --------------------


------------------------------------------------------------------------------
                              ORCA PROPERTY CALCULATIONS
------------------------------------------------------------------------------

GBWName                                 ... sp_solv.gbw
Number of atoms                         ...     27
Number of basis functions               ...    359
Max core memory                         ...   1024 MB

Electric properties:
Dipole moment                           ... YES
Quadrupole moment                       ...  NO
Static polarizability (Dipole/Dipole)   ...  NO
Static polarizability (Dipole/Quad.)    ...  NO
Static polarizability (Quad./Quad.)     ...  NO
Static polarizability (Velocity)        ...  NO

Atomic electric properties:
Dipole moment                           ...  NO
Quadrupole moment                       ...  NO
Static polarizability                   ...  NO

Choice of electric origin               ... Center of mass
Position of electric origin             ...    -0.000009    -0.000006    -0.000006

General magnetic properties:
Magnetizability                         ...  NO

EPR properties:
g-Tensor (aka g-matrix)                 ...  NO
Zero-Field splitting spin-orbit         ...  NO
Zero-field splitting spin-spin          ...  NO
Hyperfine couplings                     ...  NO (   0 nuclei)
Quadrupole couplings                    ...  NO (   0 nuclei)
Contact density                         ...  NO (   0 nuclei)

NMR properties:
Chemical shifts                         ...  NO (   0 nuclei)
Spin-rotation constants                 ...  NO (   0 nuclei)
Spin-spin couplings                     ...  NO (   0 nuclei,    0 pairs)

Choice of magnetic origin               ... GIAO
Position of magnetic origin             ...     0.000000     0.000000     0.000000

Properties with geometric perturbations:
SCF Hessian                             ...  NO
IR spectrum                             ...  NO
VCD spectrum                            ...  NO
X-ray spectroscopy properties:
SCF XES/XAS/RIXS spectra                ...  NO


-------------
DIPOLE MOMENT
-------------

Method             : SCF
Type of density    : Electron Density
Multiplicity       :   1
Irrep              :   0
Energy             : -1070.8418369732009978 Eh
Relativity type    : 
Basis              : AO
                                X                 Y                 Z
Electronic contribution:     18.812214902       1.779092768       1.859481462
Nuclear contribution   :    -17.883202561      -3.881460950      -2.658493376
                        -----------------------------------------
Total Dipole Moment    :      0.929012341      -2.102368182      -0.799011914
                        -----------------------------------------
Magnitude (a.u.)       :      2.433400079
Magnitude (Debye)      :      6.185211453



--------------------
Rotational spectrum 
--------------------
 
Rotational constants in cm-1:             0.033580             0.016267             0.012068 
Rotational constants in MHz :          1006.709628           487.677437           361.794634 

Dipole components along the rotational axes: 
x,y,z [a.u.] :     0.950225     2.061291    -0.877262 
x,y,z [Debye]:     2.415279     5.239386    -2.229822 

 

Dipole moment calculation done in   0.0 sec 

Maximum memory used throughout the entire PROP-calculation: 29.2 MB

--------------------------------
SUGGESTED CITATIONS FOR THIS RUN
--------------------------------

Below you find a list of papers that are relevant to this ORCA run
We neither can nor want to force you to cite these papers, but we appreciate if you do
You receive ORCA, which is the product of decades of hard work by many enthusiastic individuals, for free
The only thing we kindly ask in return is that you cite our papers,
We deeply appreciate it, if you show your appreciation for ORCA by not just citing the generic ORCA reference.

Please note that relegating all ORCA citations to the supporting information does *not* help us.
SI sections are not indexed - citations you put there will not count into any citation statistics
But we need these citations in order to attract the funding resources that allow us to do what we are doing

Therefore, if you are a happy ORCA user, please consider citing a few of the papers listed below in the main body of your paper

In addition to the list printed below, the program has created the file sp_solv.bibtex that contains the list in bibtex format
You can import this file easily into all common literature databanks and citation aid programs


List of essential papers. We consider these as the minimum necessary citations

  1. Neese,F.
     Software update: the ORCA program system, version 5.0
     WIRES Comput. Molec. Sci., 2022 12(1)e1606
     doi.org/10.1002/wcms.1606
  2. Grimme,S.; Hansen,A.; Ehlert,S.; Mewes,J.
     r2SCAN-3c: A 'Swiss army knife' composite electronic-structure method
     J. Chem. Phys., 2021 154 064103
     doi.org/10.1063/5.0040021

List of papers to cite with high priority. The work reported in these papers was absolutely
necessary for this run to complete.
Our perspective: the developers of density functionals and basis sets usually get cited in chemistry papers
Good! But without the algorithms to do something with them, the functionals or basis sets would not do anything.
Hence, in our opinion, the algorithm design and method developments papers are equally worthy of getting cited

  1. Neese,F.
     An improvement of the resolution of the identity approximation for the formation of the Coulomb matrix
     J. Comp. Chem., 2003 24(14)1740-1747
     doi.org/10.1002/jcc.10318
  2. Garcia-Rates,M.; Neese,F.
     Effect of the Solute Cavity on the Solvation Energy and its Derivatives within the Framework of the Gaussian Charge Scheme
     J. Comput. Chem., 2020 41 922-939
     doi.org/10.1002/jcc.26139
  3. Neese,F.
     The SHARK Integral Generation and Digestion System
     J. Comp. Chem., 2022  1-16
     doi.org/10.1002/jcc.26942
  4. Lehtola,S.; Steigemann,C.; Oliveira,M.; Marques,M.
     Recent developments in Libxc - A comprehensive library of functionals for density functional theory
     Software X, 2018 7 
     doi.org/10.1016/j.softx.2017.11.002
  5. Caldeweyher,E.; Bannwarth,C.; Grimme,S.
     Extension of the D3 dispersion coefficient model
     J. Chem. Phys., 2017 147 034112-XXXX
     doi.org/10.1063/1.4993215
  6. Caldeweyher,E.; Ehlert,S.; Hansen,A.; Neugebauer,H.; Spicher,S.; Bannwarth,C.; Grimme,S.
     A generally applicable atomic-charge dependent London dispersion correction
     J. Chem. Phys., 2019 150 154122-XXXX
     doi.org/10.1063/1.5090222
  7. Caldeweyher,E.; Mewes,J.; Ehlert,S.; Grimme,S.
     Extension and evaluation of the D4 London-dispersion model for periodic systems
     Phys. Chem. Chem. Phys., 2020 22(16)8499-8512
     doi.org/10.1039/D0CP00502A

List of suggested additional citations. These are papers that are important in the 'surrounding' of 
of this run, or papers that preceded the highly important papers. If you like your results we are grateful for a citation.

  1. Neese,F.
     The ORCA program system
     WIRES Comput. Molec. Sci., 2012 2(1)73-78
     doi.org/10.1002/wcms.81
  2. Neese,F.
     Software update: the ORCA program system, version 4.0
     WIRES Comput. Molec. Sci., 2018 8(1)1-6
     doi.org/10.1002/wcms.1327
  3. Neese,F.; Wennmohs,F.; Becker,U.; Riplinger,C.
     The ORCA quantum chemistry program package
     J. Chem. Phys., 2020 152 Art. No. L224108
     doi.org/10.1063/5.0004608

List of optional additional citations

  1. Neese,F.
     Approximate second-order SCF convergence for spin unrestricted wavefunctions
     Chem. Phys. Lett., 2000 325(1-3)93-98
     doi.org/10.1016/s0009-2614(00)00662-x

Timings for individual modules:

Sum of individual times          ...       87.253 sec (=   1.454 min)
Startup calculation              ...        2.204 sec (=   0.037 min)   2.5 %
SCF iterations                   ...       84.919 sec (=   1.415 min)  97.3 %
Property calculations            ...        0.130 sec (=   0.002 min)   0.1 %
                             ****ORCA TERMINATED NORMALLY****
TOTAL RUN TIME: 0 days 0 hours 1 minutes 28 seconds 677 msec
