      -----------------------------------------------------------      
     |                   =====================                   |     
     |                           x T B                           |     
     |                   =====================                   |     
     |                         S. Grimme                         |     
     |          Mulliken Center for Theoretical Chemistry        |     
     |                    University of Bonn                     |     
      -----------------------------------------------------------      

   * xtb version 6.7.1 (edcfbbe) compiled by 'albert@albert-system' on 2024-07-22

   xtb is free software: you can redistribute it and/or modify it under
   the terms of the GNU Lesser General Public License as published by
   the Free Software Foundation, either version 3 of the License, or
   (at your option) any later version.
   
   xtb is distributed in the hope that it will be useful,
   but WITHOUT ANY WARRANTY; without even the implied warranty of
   MERCHANTABILITY or FITNESS FOR A PARTICULAR PURPOSE.  See the
   GNU Lesser General Public License for more details.
   
   Cite this work as:
   * C. Bannwarth, E. Caldeweyher, S. Ehlert, A. Hansen, P. Pracht,
     J. Seibert, S. Spicher, S. Grimme, WIREs Comput. Mol. Sci., 2020, 11,
     e01493. DOI: 10.1002/wcms.1493
   
   for GFN2-xTB:
   * C. Bannwarth, S. Ehlert and S. Grimme., J. Chem. Theory Comput., 2019,
     15, 1652-1671. DOI: 10.1021/acs.jctc.8b01176
   for GFN1-xTB:
   * S. Grimme, C. Bannwarth, P. Shushkov, J. Chem. Theory Comput., 2017,
     13, 1989-2009. DOI: 10.1021/acs.jctc.7b00118
   for GFN0-xTB:
   * P. Pracht, E. Caldeweyher, S. Ehlert, S. Grimme, ChemRxiv, 2019, preprint.
     DOI: 10.26434/chemrxiv.8326202.v1
   for GFN-FF:
   * S. Spicher and S. Grimme, Angew. Chem. Int. Ed., 2020, 59, 15665-15673.
     DOI: 10.1002/anie.202004239
   
   for ALPB and GBSA implicit solvation:
   * S. Ehlert, M. Stahn, S. Spicher, S. Grimme, J. Chem. Theory Comput.,
     2021, 17, 4250-4261. DOI: 10.1021/acs.jctc.1c00471
   
   for ddCOSMO and CPCM-X implicit solvation:
   * M. Stahn, S. Ehlert, S. Grimme, J. Phys. Chem. A,
     2023, XX, XXXX-XXXX. DOI: 10.1021/acs.jpca.3c04382
   
   for DFT-D4:
   * E. Caldeweyher, C. Bannwarth and S. Grimme, J. Chem. Phys., 2017,
     147, 034112. DOI: 10.1063/1.4993215
   * E. Caldeweyher, S. Ehlert, A. Hansen, H. Neugebauer, S. Spicher,
     C. Bannwarth and S. Grimme, J. Chem. Phys., 2019, 150, 154122.
     DOI: 10.1063/1.5090222
   * E. Caldeweyher, J.-M. Mewes, S. Ehlert and S. Grimme, Phys. Chem. Chem. Phys.
     2020, 22, 8499-8512. DOI: 10.1039/D0CP00502A
   
   for sTDA-xTB:
   * S. Grimme and C. Bannwarth, J. Chem. Phys., 2016, 145, 054103.
     DOI: 10.1063/1.4959605
   
   in the mass-spec context:
   * V. Asgeirsson, C. Bauer and S. Grimme, Chem. Sci., 2017, 8, 4879.
     DOI: 10.1039/c7sc00601b
   * J. Koopman and S. Grimme, ACS Omega 2019, 4, 12, 15120-15133.
     DOI: 10.1021/acsomega.9b02011
   
   for metadynamics refer to:
   * S. Grimme, J. Chem. Theory Comput., 2019, 155, 2847-2862
     DOI: 10.1021/acs.jctc.9b00143
   
   for SPH calculations refer to:
   * S. Spicher and S. Grimme, J. Chem. Theory Comput., 2021, 17, 1701-1714
     DOI: 10.1021/acs.jctc.0c01306
   
   for ONIOM refer to:
   * C. Plett, A. Katbashev, S. Ehlert, S. Grimme, M. Bursch,
     Phys. Chem. Chem. Phys., 2023, 25, 17860-17868. DOI: 10.1039/D3CP02178E
   
   for DIPRO refer to:
   * J. Kohn, N. Gildemeister, S. Grimme, D. Fazzi, A. Hansen,
     J. Chem. Phys., 2023, just accepted.
   
   for PTB refer to:
   * S. Grimme, M. Mueller, A. Hansen, J. Chem. Phys., 2023, 158, 124111.
     DOI: 10.1063/5.0137838
   
   with help from (in alphabetical order)
   P. Atkinson, C. Bannwarth, F. Bohle, G. Brandenburg, E. Caldeweyher
   M. Checinski, S. Dohm, S. Ehlert, S. Ehrlich, I. Gerasimov, C. Hölzer
   A. Katbashev, J. Kohn, J. Koopman, C. Lavigne, S. Lehtola, F. März, M. Müller,
   F. Musil, H. Neugebauer, J. Pisarek, C. Plett, P. Pracht, F. Pultar,
   J. Seibert, P. Shushkov, S. Spicher, M. Stahn, M. Steiner, T. Strunk,
   J. Stückrath, T. Rose, and J. Unsleber
   
 * started run on 2025/04/09 at 05:21:29.995     
   ID    Z sym.   atoms
    1    6 C      1, 2, 7, 8, 10, 15, 16, 18, 19
    2    8 O      3, 6, 14, 17
    3   15 P      4, 12
    4   16 S      5, 9, 11, 13
    5    1 H      20-41

           -------------------------------------------------
          |                Calculation Setup                |
           -------------------------------------------------

          program call               : /srv/scratch/z5358697/.xtb/bin/xtb solv.coord --gfn2 --sp --chrg 0 --norestart --parallel 1 --alpb water reference -I xtb_sp-xcontrol-inp
          hostname                   : k163
          coordinate file            : solv.coord
          omp threads                :                     1


           -------------------------------------------------
          |                 G F N 2 - x T B                 |
           -------------------------------------------------

        Reference                      10.1021/acs.jctc.8b01176
      * Hamiltonian:
        H0-scaling (s, p, d)           1.850000    2.230000    2.230000
        zeta-weighting                 0.500000
      * Dispersion:
        s8                             2.700000
        a1                             0.520000
        a2                             5.000000
        s9                             5.000000
      * Repulsion:
        kExp                           1.500000    1.000000
        rExp                           1.000000
      * Coulomb:
        alpha                          2.000000
        third order                    shell-resolved
        anisotropic                    true
        a3                             3.000000
        a5                             4.000000
        cn-shift                       1.200000
        cn-exp                         4.000000
        max-rad                        5.000000

      * Solvation model:               ALPB
        Solvent                        water
        Parameter file                 internal GFN2-xTB/ALPB
        Dielectric constant                8.0200E+01
        Reference state                gsolv=reference [X=1]
        Free energy shift                  2.8945E-03 Eh       1.8164E+00 kcal/mol
        Temperature                        2.9815E+02 K
        Density                            1.0000E+00 kg/L
        Solvent mass                       1.8000E+01 g/mol
        Interaction kernel             P16
        Born radius scaling (c1)           1.4744E+00
        Born radii integrator          GBOBC
        Born offset                        0.0000E+00 a0       0.0000E+00 AA
        H-bond correction              true
        Ion screening                  false
        Surface tension                    1.0000E-05 Eh       1.5569E+01 dyn/cm
        Grid points                               974 per atom

          ...................................................
          :                      SETUP                      :
          :.................................................:
          :  # basis functions                 134          :
          :  # atomic orbitals                 128          :
          :  # shells                           66          :
          :  # electrons                       116          :
          :  max. iterations                   250          :
          :  Hamiltonian                  GFN2-xTB          :
          :  restarted?                      false          :
          :  GBSA solvation                   true          :
          :  PC potential                    false          :
          :  electronic temp.          300.0000000     K    :
          :  accuracy                    1.0000000          :
          :  -> integral cutoff          0.2500000E+02      :
          :  -> integral neglect         0.1000000E-07      :
          :  -> SCF convergence          0.1000000E-05 Eh   :
          :  -> wf. convergence          0.1000000E-03 e    :
          :  Broyden damping             0.4000000          :
          :  net charge                          0          :
          :  unpaired electrons                  0          :
          ...................................................

 iter      E             dE          RMSdq      gap      omega  full diag
   1    -65.4371620 -0.654372E+02  0.649E+00    3.91       0.0  T
   2    -65.5592235 -0.122062E+00  0.374E+00    3.25       1.0  T
   3    -65.5780513 -0.188277E-01  0.109E+00    2.80       1.0  T
   4    -65.5813605 -0.330920E-02  0.486E-01    2.78       1.0  T
   5    -65.5821286 -0.768198E-03  0.278E-01    2.84       1.0  T
   6    -65.5823691 -0.240486E-03  0.115E-01    2.85       1.0  T
   7    -65.5824142 -0.450284E-04  0.463E-02    2.87       1.0  T
   8    -65.5824202 -0.600515E-05  0.201E-02    2.87       1.0  T
   9    -65.5824213 -0.113692E-05  0.761E-03    2.87       2.1  T
  10    -65.5824214 -0.579185E-07  0.332E-03    2.87       4.7  T
  11    -65.5824214 -0.617800E-07  0.148E-03    2.87      10.6  T
  12    -65.5824214 -0.580522E-08  0.543E-04    2.87      28.8  T
  13    -65.5824214 -0.656641E-09  0.159E-04    2.87      98.0  T

   *** convergence criteria satisfied after 13 iterations ***

         #    Occupation            Energy/Eh            Energy/eV
      -------------------------------------------------------------
         1        2.0000           -0.7657698             -20.8377
       ...           ...                  ...                  ...
        52        2.0000           -0.4459370             -12.1346
        53        2.0000           -0.4207405             -11.4489
        54        2.0000           -0.4108520             -11.1799
        55        2.0000           -0.3971141             -10.8060
        56        2.0000           -0.3930337             -10.6950
        57        2.0000           -0.3915573             -10.6548
        58        2.0000           -0.3872420             -10.5374 (HOMO)
        59                         -0.2817598              -7.6671 (LUMO)
        60                         -0.2577462              -7.0136
        61                         -0.2224511              -6.0532
        62                         -0.2014630              -5.4821
        63                         -0.1726871              -4.6991
       ...                                ...                  ...
       128                          1.3532294              36.8232
      -------------------------------------------------------------
                  HL-Gap            0.1054822 Eh            2.8703 eV
             Fermi-level           -0.3345009 Eh           -9.1022 eV

 SCC (total)                   0 d,  0 h,  0 min,  0.069 sec
 SCC setup                      ...        0 min,  0.003 sec (  3.692%)
 Dispersion                     ...        0 min,  0.000 sec (  0.452%)
 classical contributions        ...        0 min,  0.000 sec (  0.083%)
 integral evaluation            ...        0 min,  0.017 sec ( 25.252%)
 iterations                     ...        0 min,  0.026 sec ( 38.136%)
 molecular gradient             ...        0 min,  0.022 sec ( 32.023%)
 printout                       ...        0 min,  0.000 sec (  0.340%)

         :::::::::::::::::::::::::::::::::::::::::::::::::::::
         ::                     SUMMARY                     ::
         :::::::::::::::::::::::::::::::::::::::::::::::::::::
         :: total energy             -65.022434136300 Eh    ::
         :: total w/o Gsasa/hb       -65.024947257414 Eh    ::
         :: gradient norm              0.000165533125 Eh/a0 ::
         :: HOMO-LUMO gap              2.870317284607 eV    ::
         ::.................................................::
         :: SCC energy               -65.581604000958 Eh    ::
         :: -> isotropic ES            0.128222476265 Eh    ::
         :: -> anisotropic ES         -0.016165553367 Eh    ::
         :: -> anisotropic XC          0.029081788409 Eh    ::
         :: -> dispersion             -0.054844113874 Eh    ::
         :: -> Gsolv                  -0.023692530115 Eh    ::
         ::    -> Gelec               -0.026205651230 Eh    ::
         ::    -> Gsasa                0.003868785495 Eh    ::
         ::    -> Ghb                 -0.004250213541 Eh    ::
         ::    -> Gshift               0.002894549160 Eh    ::
         :: repulsion energy           0.559169864658 Eh    ::
         :: add. restraining           0.000000000000 Eh    ::
         :: total charge               0.000000000000 e     ::
         :::::::::::::::::::::::::::::::::::::::::::::::::::::

           -------------------------------------------------
          |                Property Printout                |
           -------------------------------------------------

    * Orbital Energies and Occupations

         #    Occupation            Energy/Eh            Energy/eV
      -------------------------------------------------------------
         1        2.0000           -0.7657698             -20.8377
       ...           ...                  ...                  ...
        46        2.0000           -0.4668003             -12.7023
        47        2.0000           -0.4624650             -12.5843
        48        2.0000           -0.4598047             -12.5119
        49        2.0000           -0.4552537             -12.3881
        50        2.0000           -0.4543259             -12.3628
        51        2.0000           -0.4493876             -12.2285
        52        2.0000           -0.4459370             -12.1346
        53        2.0000           -0.4207405             -11.4489
        54        2.0000           -0.4108520             -11.1799
        55        2.0000           -0.3971141             -10.8060
        56        2.0000           -0.3930337             -10.6950
        57        2.0000           -0.3915573             -10.6548
        58        2.0000           -0.3872420             -10.5374 (HOMO)
        59                         -0.2817598              -7.6671 (LUMO)
        60                         -0.2577462              -7.0136
        61                         -0.2224511              -6.0532
        62                         -0.2014630              -5.4821
        63                         -0.1726871              -4.6991
        64                         -0.1694516              -4.6110
        65                         -0.1599180              -4.3516
        66                         -0.1471516              -4.0042
        67                         -0.1363602              -3.7105
        68                         -0.1323082              -3.6003
        69                         -0.0469066              -1.2764
       ...                                ...                  ...
       128                          1.3532294              36.8232
      -------------------------------------------------------------
                  HL-Gap            0.1054822 Eh            2.8703 eV
             Fermi-level           -0.3345009 Eh           -9.1022 eV

     #   Z          covCN         q      C6AA      α(0)
     1   6 C        3.751    -0.127    22.998     6.839
     2   6 C        3.831     0.077    19.284     6.248
     3   8 O        1.656    -0.266    18.430     5.795
     4  15 P        3.828     0.359   145.282    21.652
     5  16 S        0.927    -0.453   159.124    21.336
     6   8 O        1.659    -0.261    18.336     5.781
     7   6 C        3.869     0.087    19.095     6.214
     8   6 C        3.751    -0.123    22.927     6.828
     9  16 S        2.019    -0.135   146.722    20.387
    10   6 C        3.796     0.025    20.156     6.393
    11  16 S        1.970    -0.136   146.767    20.390
    12  15 P        3.912     0.365   145.030    21.633
    13  16 S        0.932    -0.489   160.894    21.454
    14   8 O        1.655    -0.248    18.122     5.747
    15   6 C        3.875     0.078    19.240     6.237
    16   6 C        3.751    -0.126    22.973     6.835
    17   8 O        1.656    -0.259    18.310     5.776
    18   6 C        3.863     0.090    19.059     6.208
    19   6 C        3.752    -0.133    23.109     6.855
    20   1 H        0.925     0.086     1.919     2.166
    21   1 H        0.925     0.069     2.092     2.262
    22   1 H        0.925     0.052     2.297     2.370
    23   1 H        0.924     0.063     2.168     2.302
    24   1 H        0.924     0.092     1.861     2.133
    25   1 H        0.924     0.056     2.246     2.344
    26   1 H        0.924     0.085     1.933     2.174
    27   1 H        0.925     0.054     2.274     2.358
    28   1 H        0.925     0.083     1.945     2.181
    29   1 H        0.925     0.071     2.072     2.251
    30   1 H        0.925     0.135     1.497     1.913
    31   1 H        0.925     0.118     1.628     1.995
    32   1 H        0.924     0.096     1.825     2.113
    33   1 H        0.924     0.060     2.195     2.317
    34   1 H        0.925     0.085     1.926     2.170
    35   1 H        0.925     0.053     2.281     2.362
    36   1 H        0.925     0.074     2.040     2.233
    37   1 H        0.924     0.053     2.283     2.363
    38   1 H        0.924     0.057     2.232     2.336
    39   1 H        0.925     0.071     2.077     2.254
    40   1 H        0.925     0.083     1.946     2.181
    41   1 H        0.925     0.078     2.002     2.213

 Mol. C6AA /au·bohr⁶  :      26399.351659
 Mol. C8AA /au·bohr⁸  :     862847.988626
 Mol. α(0) /au        :        257.601878


Wiberg/Mayer (AO) data.
largest (>0.10) Wiberg bond orders for each atom

 ---------------------------------------------------------------------------
     #   Z sym  total        # sym  WBO       # sym  WBO       # sym  WBO
 ---------------------------------------------------------------------------
     1   6 C    3.988 --     2 C    1.021    21 H    0.982    20 H    0.976
                            22 H    0.972
     2   6 C    3.891 --     1 C    1.021    23 H    0.968    24 H    0.963
                             3 O    0.891
     3   8 O    2.402 --     4 P    1.306     2 C    0.891
     4  15 P    5.293 --     5 S    1.526     6 O    1.326     3 O    1.306
                             9 S    0.965
     5  16 S    1.848 --     4 P    1.526     9 S    0.135
     6   8 O    2.399 --     4 P    1.326     7 C    0.881
     7   6 C    3.889 --     8 C    1.022    25 H    0.968    26 H    0.966
                             6 O    0.881
     8   6 C    3.988 --     7 C    1.022    29 H    0.982    28 H    0.976
                            27 H    0.975
     9  16 S    2.298 --    10 C    0.992     4 P    0.965     5 S    0.135
    10   6 C    3.936 --     9 S    0.992    11 S    0.970    30 H    0.951
                            31 H    0.949
    11  16 S    2.283 --    12 P    0.998    10 C    0.970    13 S    0.135
    12  15 P    5.305 --    13 S    1.483    14 O    1.343    17 O    1.324
                            11 S    0.998
    13  16 S    1.822 --    12 P    1.483    11 S    0.135
    14   8 O    2.412 --    12 P    1.343    15 C    0.874
    15   6 C    3.886 --    16 C    1.024    33 H    0.966    32 H    0.964
                            14 O    0.874
    16   6 C    3.987 --    15 C    1.024    36 H    0.982    35 H    0.976
                            34 H    0.975
    17   8 O    2.402 --    12 P    1.324    18 C    0.887
    18   6 C    3.895 --    19 C    1.017    38 H    0.972    37 H    0.966
                            17 O    0.887
    19   6 C    3.981 --    18 C    1.017    39 H    0.983    41 H    0.982
                            40 H    0.976
    20   1 H    0.992 --     1 C    0.976
    21   1 H    0.995 --     1 C    0.982
    22   1 H    0.997 --     1 C    0.972
    23   1 H    0.996 --     2 C    0.968
    24   1 H    0.991 --     2 C    0.963
    25   1 H    0.997 --     7 C    0.968
    26   1 H    0.992 --     7 C    0.966
    27   1 H    0.997 --     8 C    0.975
    28   1 H    0.992 --     8 C    0.976
    29   1 H    0.995 --     8 C    0.982
    30   1 H    0.981 --    10 C    0.951
    31   1 H    0.986 --    10 C    0.949
    32   1 H    0.990 --    15 C    0.964
    33   1 H    0.996 --    15 C    0.966
    34   1 H    0.992 --    16 C    0.975
    35   1 H    0.997 --    16 C    0.976
    36   1 H    0.994 --    16 C    0.982
    37   1 H    0.997 --    18 C    0.966
    38   1 H    0.997 --    18 C    0.972
    39   1 H    0.995 --    19 C    0.983
    40   1 H    0.992 --    19 C    0.976
    41   1 H    0.994 --    19 C    0.982
 ---------------------------------------------------------------------------

Topologies differ in total number of bonds
Writing topology from bond orders to xtbtopo.mol

molecular dipole:
                 x           y           z       tot (Debye)
 q only:       -0.001      -1.571       0.415
   full:        0.092      -1.407       0.679       3.979
molecular quadrupole (traceless):
                xx          xy          yy          xz          yz          zz
 q only:       23.841      -2.581      -7.756      -4.887       3.350     -16.085
  q+dip:       25.364      -0.754      -7.810      -3.014       2.601     -17.555
   full:       24.986      -1.311      -7.842      -3.414       2.841     -17.144


           -------------------------------------------------
          | TOTAL ENERGY              -65.022434136300 Eh   |
          | GRADIENT NORM               0.000165533125 Eh/α |
          | HOMO-LUMO GAP               2.870317284607 eV   |
           -------------------------------------------------

------------------------------------------------------------------------
 * finished run on 2025/04/09 at 05:21:30.112     
------------------------------------------------------------------------
 total:
 * wall-time:     0 d,  0 h,  0 min,  0.116 sec
 *  cpu-time:     0 d,  0 h,  0 min,  0.073 sec
 * ratio c/w:     0.627 speedup
 SCF:
 * wall-time:     0 d,  0 h,  0 min,  0.069 sec
 *  cpu-time:     0 d,  0 h,  0 min,  0.060 sec
 * ratio c/w:     0.864 speedup

