      -----------------------------------------------------------      
     |                   =====================                   |     
     |                           x T B                           |     
     |                   =====================                   |     
     |                         S. Grimme                         |     
     |          Mulliken Center for Theoretical Chemistry        |     
     |                    University of Bonn                     |     
      -----------------------------------------------------------      

   * xtb version 6.7.1 (edcfbbe) compiled by 'albert@albert-system' on 2024-07-22

   xtb is free software: you can redistribute it and/or modify it under
   the terms of the GNU Lesser General Public License as published by
   the Free Software Foundation, either version 3 of the License, or
   (at your option) any later version.
   
   xtb is distributed in the hope that it will be useful,
   but WITHOUT ANY WARRANTY; without even the implied warranty of
   MERCHANTABILITY or FITNESS FOR A PARTICULAR PURPOSE.  See the
   GNU Lesser General Public License for more details.
   
   Cite this work as:
   * C. Bannwarth, E. Caldeweyher, S. Ehlert, A. Hansen, P. Pracht,
     J. Seibert, S. Spicher, S. Grimme, WIREs Comput. Mol. Sci., 2020, 11,
     e01493. DOI: 10.1002/wcms.1493
   
   for GFN2-xTB:
   * C. Bannwarth, S. Ehlert and S. Grimme., J. Chem. Theory Comput., 2019,
     15, 1652-1671. DOI: 10.1021/acs.jctc.8b01176
   for GFN1-xTB:
   * S. Grimme, C. Bannwarth, P. Shushkov, J. Chem. Theory Comput., 2017,
     13, 1989-2009. DOI: 10.1021/acs.jctc.7b00118
   for GFN0-xTB:
   * P. Pracht, E. Caldeweyher, S. Ehlert, S. Grimme, ChemRxiv, 2019, preprint.
     DOI: 10.26434/chemrxiv.8326202.v1
   for GFN-FF:
   * S. Spicher and S. Grimme, Angew. Chem. Int. Ed., 2020, 59, 15665-15673.
     DOI: 10.1002/anie.202004239
   
   for ALPB and GBSA implicit solvation:
   * S. Ehlert, M. Stahn, S. Spicher, S. Grimme, J. Chem. Theory Comput.,
     2021, 17, 4250-4261. DOI: 10.1021/acs.jctc.1c00471
   
   for ddCOSMO and CPCM-X implicit solvation:
   * M. Stahn, S. Ehlert, S. Grimme, J. Phys. Chem. A,
     2023, XX, XXXX-XXXX. DOI: 10.1021/acs.jpca.3c04382
   
   for DFT-D4:
   * E. Caldeweyher, C. Bannwarth and S. Grimme, J. Chem. Phys., 2017,
     147, 034112. DOI: 10.1063/1.4993215
   * E. Caldeweyher, S. Ehlert, A. Hansen, H. Neugebauer, S. Spicher,
     C. Bannwarth and S. Grimme, J. Chem. Phys., 2019, 150, 154122.
     DOI: 10.1063/1.5090222
   * E. Caldeweyher, J.-M. Mewes, S. Ehlert and S. Grimme, Phys. Chem. Chem. Phys.
     2020, 22, 8499-8512. DOI: 10.1039/D0CP00502A
   
   for sTDA-xTB:
   * S. Grimme and C. Bannwarth, J. Chem. Phys., 2016, 145, 054103.
     DOI: 10.1063/1.4959605
   
   in the mass-spec context:
   * V. Asgeirsson, C. Bauer and S. Grimme, Chem. Sci., 2017, 8, 4879.
     DOI: 10.1039/c7sc00601b
   * J. Koopman and S. Grimme, ACS Omega 2019, 4, 12, 15120-15133.
     DOI: 10.1021/acsomega.9b02011
   
   for metadynamics refer to:
   * S. Grimme, J. Chem. Theory Comput., 2019, 155, 2847-2862
     DOI: 10.1021/acs.jctc.9b00143
   
   for SPH calculations refer to:
   * S. Spicher and S. Grimme, J. Chem. Theory Comput., 2021, 17, 1701-1714
     DOI: 10.1021/acs.jctc.0c01306
   
   for ONIOM refer to:
   * C. Plett, A. Katbashev, S. Ehlert, S. Grimme, M. Bursch,
     Phys. Chem. Chem. Phys., 2023, 25, 17860-17868. DOI: 10.1039/D3CP02178E
   
   for DIPRO refer to:
   * J. Kohn, N. Gildemeister, S. Grimme, D. Fazzi, A. Hansen,
     J. Chem. Phys., 2023, just accepted.
   
   for PTB refer to:
   * S. Grimme, M. Mueller, A. Hansen, J. Chem. Phys., 2023, 158, 124111.
     DOI: 10.1063/5.0137838
   
   with help from (in alphabetical order)
   P. Atkinson, C. Bannwarth, F. Bohle, G. Brandenburg, E. Caldeweyher
   M. Checinski, S. Dohm, S. Ehlert, S. Ehrlich, I. Gerasimov, C. Hölzer
   A. Katbashev, J. Kohn, J. Koopman, C. Lavigne, S. Lehtola, F. März, M. Müller,
   F. Musil, H. Neugebauer, J. Pisarek, C. Plett, P. Pracht, F. Pultar,
   J. Seibert, P. Shushkov, S. Spicher, M. Stahn, M. Steiner, T. Strunk,
   J. Stückrath, T. Rose, and J. Unsleber
   
 * started run on 2025/04/09 at 05:20:45.751     
   ID    Z sym.   atoms
    1    6 C      1, 2, 7, 8, 10, 15, 16, 18, 19
    2    8 O      3, 6, 14, 17
    3   15 P      4, 12
    4   16 S      5, 9, 11, 13
    5    1 H      20-41

           -------------------------------------------------
          |                Calculation Setup                |
           -------------------------------------------------

          program call               : /srv/scratch/z5358697/.xtb/bin/xtb solv.coord --gfn2 --sp --chrg 0 --norestart --parallel 1 --alpb water reference -I xtb_sp-xcontrol-inp
          hostname                   : k163
          coordinate file            : solv.coord
          omp threads                :                     1


           -------------------------------------------------
          |                 G F N 2 - x T B                 |
           -------------------------------------------------

        Reference                      10.1021/acs.jctc.8b01176
      * Hamiltonian:
        H0-scaling (s, p, d)           1.850000    2.230000    2.230000
        zeta-weighting                 0.500000
      * Dispersion:
        s8                             2.700000
        a1                             0.520000
        a2                             5.000000
        s9                             5.000000
      * Repulsion:
        kExp                           1.500000    1.000000
        rExp                           1.000000
      * Coulomb:
        alpha                          2.000000
        third order                    shell-resolved
        anisotropic                    true
        a3                             3.000000
        a5                             4.000000
        cn-shift                       1.200000
        cn-exp                         4.000000
        max-rad                        5.000000

      * Solvation model:               ALPB
        Solvent                        water
        Parameter file                 internal GFN2-xTB/ALPB
        Dielectric constant                8.0200E+01
        Reference state                gsolv=reference [X=1]
        Free energy shift                  2.8945E-03 Eh       1.8164E+00 kcal/mol
        Temperature                        2.9815E+02 K
        Density                            1.0000E+00 kg/L
        Solvent mass                       1.8000E+01 g/mol
        Interaction kernel             P16
        Born radius scaling (c1)           1.4744E+00
        Born radii integrator          GBOBC
        Born offset                        0.0000E+00 a0       0.0000E+00 AA
        H-bond correction              true
        Ion screening                  false
        Surface tension                    1.0000E-05 Eh       1.5569E+01 dyn/cm
        Grid points                               974 per atom

          ...................................................
          :                      SETUP                      :
          :.................................................:
          :  # basis functions                 134          :
          :  # atomic orbitals                 128          :
          :  # shells                           66          :
          :  # electrons                       116          :
          :  max. iterations                   250          :
          :  Hamiltonian                  GFN2-xTB          :
          :  restarted?                      false          :
          :  GBSA solvation                   true          :
          :  PC potential                    false          :
          :  electronic temp.          300.0000000     K    :
          :  accuracy                    1.0000000          :
          :  -> integral cutoff          0.2500000E+02      :
          :  -> integral neglect         0.1000000E-07      :
          :  -> SCF convergence          0.1000000E-05 Eh   :
          :  -> wf. convergence          0.1000000E-03 e    :
          :  Broyden damping             0.4000000          :
          :  net charge                          0          :
          :  unpaired electrons                  0          :
          ...................................................

 iter      E             dE          RMSdq      gap      omega  full diag
   1    -65.4501195 -0.654501E+02  0.651E+00    4.13       0.0  T
   2    -65.5672100 -0.117090E+00  0.376E+00    3.61       1.0  T
   3    -65.5862064 -0.189963E-01  0.106E+00    3.12       1.0  T
   4    -65.5891850 -0.297862E-02  0.501E-01    3.09       1.0  T
   5    -65.5898301 -0.645086E-03  0.267E-01    3.14       1.0  T
   6    -65.5900152 -0.185124E-03  0.125E-01    3.14       1.0  T
   7    -65.5900719 -0.567415E-04  0.445E-02    3.16       1.0  T
   8    -65.5900762 -0.423936E-05  0.180E-02    3.16       1.0  T
   9    -65.5900771 -0.923028E-06  0.556E-03    3.16       2.8  T
  10    -65.5900771 -0.263253E-07  0.284E-03    3.16       5.5  T
  11    -65.5900772 -0.421416E-07  0.924E-04    3.16      16.9  T
  12    -65.5900772 -0.148344E-08  0.496E-04    3.16      31.5  T

   *** convergence criteria satisfied after 12 iterations ***

         #    Occupation            Energy/Eh            Energy/eV
      -------------------------------------------------------------
         1        2.0000           -0.7666063             -20.8604
       ...           ...                  ...                  ...
        52        2.0000           -0.4456914             -12.1279
        53        2.0000           -0.4201249             -11.4322
        54        2.0000           -0.4114993             -11.1975
        55        2.0000           -0.3957101             -10.7678
        56        2.0000           -0.3953273             -10.7574
        57        2.0000           -0.3933142             -10.7026
        58        2.0000           -0.3921771             -10.6717 (HOMO)
        59                         -0.2760264              -7.5111 (LUMO)
        60                         -0.2546795              -6.9302
        61                         -0.2175570              -5.9200
        62                         -0.1860190              -5.0618
        63                         -0.1808466              -4.9211
       ...                                ...                  ...
       128                          1.2954413              35.2508
      -------------------------------------------------------------
                  HL-Gap            0.1161507 Eh            3.1606 eV
             Fermi-level           -0.3341018 Eh           -9.0914 eV

 SCC (total)                   0 d,  0 h,  0 min,  0.062 sec
 SCC setup                      ...        0 min,  0.003 sec (  4.210%)
 Dispersion                     ...        0 min,  0.000 sec (  0.486%)
 classical contributions        ...        0 min,  0.000 sec (  0.094%)
 integral evaluation            ...        0 min,  0.011 sec ( 18.437%)
 iterations                     ...        0 min,  0.025 sec ( 40.780%)
 molecular gradient             ...        0 min,  0.022 sec ( 35.626%)
 printout                       ...        0 min,  0.000 sec (  0.341%)

         :::::::::::::::::::::::::::::::::::::::::::::::::::::
         ::                     SUMMARY                     ::
         :::::::::::::::::::::::::::::::::::::::::::::::::::::
         :: total energy             -65.028093184876 Eh    ::
         :: total w/o Gsasa/hb       -65.031630898771 Eh    ::
         :: gradient norm              0.000201433856 Eh/a0 ::
         :: HOMO-LUMO gap              3.160621370759 eV    ::
         ::.................................................::
         :: SCC energy               -65.588930323137 Eh    ::
         :: -> isotropic ES            0.121943472117 Eh    ::
         :: -> anisotropic ES         -0.014682499368 Eh    ::
         :: -> anisotropic XC          0.030368961374 Eh    ::
         :: -> dispersion             -0.053195219477 Eh    ::
         :: -> Gsolv                  -0.018403745548 Eh    ::
         ::    -> Gelec               -0.021941459443 Eh    ::
         ::    -> Gsasa                0.004457982964 Eh    ::
         ::    -> Ghb                 -0.003814818229 Eh    ::
         ::    -> Gshift               0.002894549160 Eh    ::
         :: repulsion energy           0.560837138261 Eh    ::
         :: add. restraining           0.000000000000 Eh    ::
         :: total charge               0.000000000000 e     ::
         :::::::::::::::::::::::::::::::::::::::::::::::::::::

           -------------------------------------------------
          |                Property Printout                |
           -------------------------------------------------

    * Orbital Energies and Occupations

         #    Occupation            Energy/Eh            Energy/eV
      -------------------------------------------------------------
         1        2.0000           -0.7666063             -20.8604
       ...           ...                  ...                  ...
        46        2.0000           -0.4698958             -12.7865
        47        2.0000           -0.4611210             -12.5477
        48        2.0000           -0.4590075             -12.4902
        49        2.0000           -0.4533670             -12.3367
        50        2.0000           -0.4502915             -12.2531
        51        2.0000           -0.4487247             -12.2104
        52        2.0000           -0.4456914             -12.1279
        53        2.0000           -0.4201249             -11.4322
        54        2.0000           -0.4114993             -11.1975
        55        2.0000           -0.3957101             -10.7678
        56        2.0000           -0.3953273             -10.7574
        57        2.0000           -0.3933142             -10.7026
        58        2.0000           -0.3921771             -10.6717 (HOMO)
        59                         -0.2760264              -7.5111 (LUMO)
        60                         -0.2546795              -6.9302
        61                         -0.2175570              -5.9200
        62                         -0.1860190              -5.0618
        63                         -0.1808466              -4.9211
        64                         -0.1740440              -4.7360
        65                         -0.1628927              -4.4325
        66                         -0.1542080              -4.1962
        67                         -0.1378489              -3.7511
        68                         -0.1257552              -3.4220
        69                         -0.0517418              -1.4080
       ...                                ...                  ...
       128                          1.2954413              35.2508
      -------------------------------------------------------------
                  HL-Gap            0.1161507 Eh            3.1606 eV
             Fermi-level           -0.3341018 Eh           -9.0914 eV

     #   Z          covCN         q      C6AA      α(0)
     1   6 C        3.751    -0.131    23.082     6.851
     2   6 C        3.857     0.073    19.329     6.253
     3   8 O        1.655    -0.259    18.308     5.776
     4  15 P        3.863     0.372   144.763    21.613
     5  16 S        0.926    -0.453   159.155    21.338
     6   8 O        1.654    -0.260    18.327     5.779
     7   6 C        3.860     0.082    19.187     6.229
     8   6 C        3.751    -0.125    22.951     6.832
     9  16 S        2.014    -0.141   147.004    20.407
    10   6 C        3.835     0.039    19.889     6.345
    11  16 S        2.018    -0.131   146.574    20.377
    12  15 P        3.879     0.378   144.516    21.595
    13  16 S        0.926    -0.475   160.214    21.409
    14   8 O        1.655    -0.262    18.352     5.783
    15   6 C        3.865     0.074    19.310     6.249
    16   6 C        3.751    -0.128    23.018     6.842
    17   8 O        1.654    -0.257    18.277     5.771
    18   6 C        3.867     0.082    19.186     6.229
    19   6 C        3.751    -0.131    23.075     6.850
    20   1 H        0.925     0.087     1.912     2.162
    21   1 H        0.925     0.074     2.046     2.237
    22   1 H        0.925     0.056     2.249     2.345
    23   1 H        0.924     0.065     2.144     2.290
    24   1 H        0.924     0.096     1.826     2.113
    25   1 H        0.924     0.068     2.113     2.273
    26   1 H        0.924     0.077     2.011     2.218
    27   1 H        0.925     0.061     2.185     2.312
    28   1 H        0.925     0.084     1.936     2.176
    29   1 H        0.925     0.071     2.073     2.251
    30   1 H        0.925     0.096     1.819     2.109
    31   1 H        0.925     0.094     1.845     2.124
    32   1 H        0.924     0.067     2.124     2.279
    33   1 H        0.924     0.093     1.846     2.125
    34   1 H        0.925     0.054     2.276     2.359
    35   1 H        0.925     0.086     1.918     2.166
    36   1 H        0.925     0.068     2.111     2.272
    37   1 H        0.924     0.074     2.045     2.236
    38   1 H        0.924     0.060     2.204     2.321
    39   1 H        0.925     0.066     2.130     2.282
    40   1 H        0.925     0.073     2.054     2.241
    41   1 H        0.925     0.087     1.909     2.161

 Mol. C6AA /au·bohr⁶  :      26399.918194
 Mol. C8AA /au·bohr⁸  :     862485.712782
 Mol. α(0) /au        :        257.580226


Wiberg/Mayer (AO) data.
largest (>0.10) Wiberg bond orders for each atom

 ---------------------------------------------------------------------------
     #   Z sym  total        # sym  WBO       # sym  WBO       # sym  WBO
 ---------------------------------------------------------------------------
     1   6 C    3.986 --     2 C    1.023    21 H    0.981    22 H    0.976
                            20 H    0.976
     2   6 C    3.887 --     1 C    1.023    23 H    0.969    24 H    0.964
                             3 O    0.884
     3   8 O    2.408 --     4 P    1.327     2 C    0.884
     4  15 P    5.306 --     5 S    1.550     6 O    1.345     3 O    1.327
                             9 S    0.945
     5  16 S    1.864 --     4 P    1.550     9 S    0.135
     6   8 O    2.399 --     4 P    1.345     7 C    0.864
     7   6 C    3.886 --     8 C    1.021    26 H    0.970    25 H    0.962
                             6 O    0.864
     8   6 C    3.984 --     7 C    1.021    29 H    0.982    27 H    0.981
                            28 H    0.974
     9  16 S    2.272 --    10 C    0.990     4 P    0.945     5 S    0.135
    10   6 C    3.954 --     9 S    0.990    11 S    0.985    31 H    0.953
                            30 H    0.952
    11  16 S    2.294 --    12 P    0.993    10 C    0.985    13 S    0.133
    12  15 P    5.293 --    13 S    1.504    17 O    1.328    14 O    1.322
                            11 S    0.993
    13  16 S    1.838 --    12 P    1.504    11 S    0.133
    14   8 O    2.406 --    12 P    1.322    15 C    0.888
    15   6 C    3.889 --    16 C    1.023    32 H    0.968    33 H    0.964
                            14 O    0.888
    16   6 C    3.987 --    15 C    1.023    36 H    0.982    35 H    0.976
                            34 H    0.975
    17   8 O    2.397 --    12 P    1.328    18 C    0.871
    18   6 C    3.888 --    19 C    1.020    37 H    0.970    38 H    0.963
                            17 O    0.871
    19   6 C    3.982 --    18 C    1.020    39 H    0.982    40 H    0.981
                            41 H    0.974
    20   1 H    0.992 --     1 C    0.976
    21   1 H    0.995 --     1 C    0.981
    22   1 H    0.997 --     1 C    0.976
    23   1 H    0.996 --     2 C    0.969
    24   1 H    0.991 --     2 C    0.964
    25   1 H    0.995 --     7 C    0.962
    26   1 H    0.994 --     7 C    0.970
    27   1 H    0.996 --     8 C    0.981
    28   1 H    0.991 --     8 C    0.974
    29   1 H    0.995 --     8 C    0.982
    30   1 H    0.991 --    10 C    0.952
    31   1 H    0.991 --    10 C    0.953
    32   1 H    0.996 --    15 C    0.968
    33   1 H    0.991 --    15 C    0.964
    34   1 H    0.997 --    16 C    0.975
    35   1 H    0.992 --    16 C    0.976
    36   1 H    0.995 --    16 C    0.982
    37   1 H    0.994 --    18 C    0.970
    38   1 H    0.996 --    18 C    0.963
    39   1 H    0.996 --    19 C    0.982
    40   1 H    0.995 --    19 C    0.981
    41   1 H    0.991 --    19 C    0.974
 ---------------------------------------------------------------------------

Topologies differ in total number of bonds
Writing topology from bond orders to xtbtopo.mol

molecular dipole:
                 x           y           z       tot (Debye)
 q only:       -0.545      -2.562       1.107
   full:       -0.539      -2.578       1.543       7.759
molecular quadrupole (traceless):
                xx          xy          yy          xz          yz          zz
 q only:       -3.349     -25.096       8.235     -25.379       0.543      -4.885
  q+dip:       -1.253     -25.356       4.567     -22.832      -1.117      -3.314
   full:       -0.117     -25.362       5.106     -23.772      -0.581      -4.989


           -------------------------------------------------
          | TOTAL ENERGY              -65.028093184876 Eh   |
          | GRADIENT NORM               0.000201433856 Eh/α |
          | HOMO-LUMO GAP               3.160621370759 eV   |
           -------------------------------------------------

------------------------------------------------------------------------
 * finished run on 2025/04/09 at 05:20:45.853     
------------------------------------------------------------------------
 total:
 * wall-time:     0 d,  0 h,  0 min,  0.102 sec
 *  cpu-time:     0 d,  0 h,  0 min,  0.073 sec
 * ratio c/w:     0.715 speedup
 SCF:
 * wall-time:     0 d,  0 h,  0 min,  0.062 sec
 *  cpu-time:     0 d,  0 h,  0 min,  0.059 sec
 * ratio c/w:     0.942 speedup

