      -----------------------------------------------------------      
     |                   =====================                   |     
     |                           x T B                           |     
     |                   =====================                   |     
     |                         S. Grimme                         |     
     |          Mulliken Center for Theoretical Chemistry        |     
     |                    University of Bonn                     |     
      -----------------------------------------------------------      

   * xtb version 6.7.1 (edcfbbe) compiled by 'albert@albert-system' on 2024-07-22

   xtb is free software: you can redistribute it and/or modify it under
   the terms of the GNU Lesser General Public License as published by
   the Free Software Foundation, either version 3 of the License, or
   (at your option) any later version.
   
   xtb is distributed in the hope that it will be useful,
   but WITHOUT ANY WARRANTY; without even the implied warranty of
   MERCHANTABILITY or FITNESS FOR A PARTICULAR PURPOSE.  See the
   GNU Lesser General Public License for more details.
   
   Cite this work as:
   * C. Bannwarth, E. Caldeweyher, S. Ehlert, A. Hansen, P. Pracht,
     J. Seibert, S. Spicher, S. Grimme, WIREs Comput. Mol. Sci., 2020, 11,
     e01493. DOI: 10.1002/wcms.1493
   
   for GFN2-xTB:
   * C. Bannwarth, S. Ehlert and S. Grimme., J. Chem. Theory Comput., 2019,
     15, 1652-1671. DOI: 10.1021/acs.jctc.8b01176
   for GFN1-xTB:
   * S. Grimme, C. Bannwarth, P. Shushkov, J. Chem. Theory Comput., 2017,
     13, 1989-2009. DOI: 10.1021/acs.jctc.7b00118
   for GFN0-xTB:
   * P. Pracht, E. Caldeweyher, S. Ehlert, S. Grimme, ChemRxiv, 2019, preprint.
     DOI: 10.26434/chemrxiv.8326202.v1
   for GFN-FF:
   * S. Spicher and S. Grimme, Angew. Chem. Int. Ed., 2020, 59, 15665-15673.
     DOI: 10.1002/anie.202004239
   
   for ALPB and GBSA implicit solvation:
   * S. Ehlert, M. Stahn, S. Spicher, S. Grimme, J. Chem. Theory Comput.,
     2021, 17, 4250-4261. DOI: 10.1021/acs.jctc.1c00471
   
   for ddCOSMO and CPCM-X implicit solvation:
   * M. Stahn, S. Ehlert, S. Grimme, J. Phys. Chem. A,
     2023, XX, XXXX-XXXX. DOI: 10.1021/acs.jpca.3c04382
   
   for DFT-D4:
   * E. Caldeweyher, C. Bannwarth and S. Grimme, J. Chem. Phys., 2017,
     147, 034112. DOI: 10.1063/1.4993215
   * E. Caldeweyher, S. Ehlert, A. Hansen, H. Neugebauer, S. Spicher,
     C. Bannwarth and S. Grimme, J. Chem. Phys., 2019, 150, 154122.
     DOI: 10.1063/1.5090222
   * E. Caldeweyher, J.-M. Mewes, S. Ehlert and S. Grimme, Phys. Chem. Chem. Phys.
     2020, 22, 8499-8512. DOI: 10.1039/D0CP00502A
   
   for sTDA-xTB:
   * S. Grimme and C. Bannwarth, J. Chem. Phys., 2016, 145, 054103.
     DOI: 10.1063/1.4959605
   
   in the mass-spec context:
   * V. Asgeirsson, C. Bauer and S. Grimme, Chem. Sci., 2017, 8, 4879.
     DOI: 10.1039/c7sc00601b
   * J. Koopman and S. Grimme, ACS Omega 2019, 4, 12, 15120-15133.
     DOI: 10.1021/acsomega.9b02011
   
   for metadynamics refer to:
   * S. Grimme, J. Chem. Theory Comput., 2019, 155, 2847-2862
     DOI: 10.1021/acs.jctc.9b00143
   
   for SPH calculations refer to:
   * S. Spicher and S. Grimme, J. Chem. Theory Comput., 2021, 17, 1701-1714
     DOI: 10.1021/acs.jctc.0c01306
   
   for ONIOM refer to:
   * C. Plett, A. Katbashev, S. Ehlert, S. Grimme, M. Bursch,
     Phys. Chem. Chem. Phys., 2023, 25, 17860-17868. DOI: 10.1039/D3CP02178E
   
   for DIPRO refer to:
   * J. Kohn, N. Gildemeister, S. Grimme, D. Fazzi, A. Hansen,
     J. Chem. Phys., 2023, just accepted.
   
   for PTB refer to:
   * S. Grimme, M. Mueller, A. Hansen, J. Chem. Phys., 2023, 158, 124111.
     DOI: 10.1063/5.0137838
   
   with help from (in alphabetical order)
   P. Atkinson, C. Bannwarth, F. Bohle, G. Brandenburg, E. Caldeweyher
   M. Checinski, S. Dohm, S. Ehlert, S. Ehrlich, I. Gerasimov, C. Hölzer
   A. Katbashev, J. Kohn, J. Koopman, C. Lavigne, S. Lehtola, F. März, M. Müller,
   F. Musil, H. Neugebauer, J. Pisarek, C. Plett, P. Pracht, F. Pultar,
   J. Seibert, P. Shushkov, S. Spicher, M. Stahn, M. Steiner, T. Strunk,
   J. Stückrath, T. Rose, and J. Unsleber
   
 * started run on 2025/04/09 at 05:21:04.075     
   ID    Z sym.   atoms
    1    6 C      1, 2, 7, 8, 10, 15, 16, 18, 19
    2    8 O      3, 6, 14, 17
    3   15 P      4, 12
    4   16 S      5, 9, 11, 13
    5    1 H      20-41

           -------------------------------------------------
          |                Calculation Setup                |
           -------------------------------------------------

          program call               : /srv/scratch/z5358697/.xtb/bin/xtb solv.coord --gfn2 --sp --chrg 0 --norestart --parallel 1 --alpb water reference -I xtb_sp-xcontrol-inp
          hostname                   : k163
          coordinate file            : solv.coord
          omp threads                :                     1


           -------------------------------------------------
          |                 G F N 2 - x T B                 |
           -------------------------------------------------

        Reference                      10.1021/acs.jctc.8b01176
      * Hamiltonian:
        H0-scaling (s, p, d)           1.850000    2.230000    2.230000
        zeta-weighting                 0.500000
      * Dispersion:
        s8                             2.700000
        a1                             0.520000
        a2                             5.000000
        s9                             5.000000
      * Repulsion:
        kExp                           1.500000    1.000000
        rExp                           1.000000
      * Coulomb:
        alpha                          2.000000
        third order                    shell-resolved
        anisotropic                    true
        a3                             3.000000
        a5                             4.000000
        cn-shift                       1.200000
        cn-exp                         4.000000
        max-rad                        5.000000

      * Solvation model:               ALPB
        Solvent                        water
        Parameter file                 internal GFN2-xTB/ALPB
        Dielectric constant                8.0200E+01
        Reference state                gsolv=reference [X=1]
        Free energy shift                  2.8945E-03 Eh       1.8164E+00 kcal/mol
        Temperature                        2.9815E+02 K
        Density                            1.0000E+00 kg/L
        Solvent mass                       1.8000E+01 g/mol
        Interaction kernel             P16
        Born radius scaling (c1)           1.4744E+00
        Born radii integrator          GBOBC
        Born offset                        0.0000E+00 a0       0.0000E+00 AA
        H-bond correction              true
        Ion screening                  false
        Surface tension                    1.0000E-05 Eh       1.5569E+01 dyn/cm
        Grid points                               974 per atom

          ...................................................
          :                      SETUP                      :
          :.................................................:
          :  # basis functions                 134          :
          :  # atomic orbitals                 128          :
          :  # shells                           66          :
          :  # electrons                       116          :
          :  max. iterations                   250          :
          :  Hamiltonian                  GFN2-xTB          :
          :  restarted?                      false          :
          :  GBSA solvation                   true          :
          :  PC potential                    false          :
          :  electronic temp.          300.0000000     K    :
          :  accuracy                    1.0000000          :
          :  -> integral cutoff          0.2500000E+02      :
          :  -> integral neglect         0.1000000E-07      :
          :  -> SCF convergence          0.1000000E-05 Eh   :
          :  -> wf. convergence          0.1000000E-03 e    :
          :  Broyden damping             0.4000000          :
          :  net charge                          0          :
          :  unpaired electrons                  0          :
          ...................................................

 iter      E             dE          RMSdq      gap      omega  full diag
   1    -65.4480207 -0.654480E+02  0.672E+00    4.19       0.0  T
   2    -65.5631169 -0.115096E+00  0.392E+00    3.58       1.0  T
   3    -65.5814163 -0.182993E-01  0.104E+00    3.09       1.0  T
   4    -65.5849679 -0.355164E-02  0.481E-01    3.05       1.0  T
   5    -65.5856596 -0.691727E-03  0.267E-01    3.11       1.0  T
   6    -65.5858554 -0.195817E-03  0.116E-01    3.11       1.0  T
   7    -65.5859024 -0.469440E-04  0.430E-02    3.13       1.0  T
   8    -65.5859069 -0.450062E-05  0.170E-02    3.13       1.0  T
   9    -65.5859077 -0.833728E-06  0.573E-03    3.13       2.7  T
  10    -65.5859077  0.174497E-07  0.294E-03    3.13       5.3  T
  11    -65.5859078 -0.625540E-07  0.850E-04    3.13      18.4  T
  12    -65.5859078 -0.195961E-08  0.384E-04    3.13      40.7  T

   *** convergence criteria satisfied after 12 iterations ***

         #    Occupation            Energy/Eh            Energy/eV
      -------------------------------------------------------------
         1        2.0000           -0.7678115             -20.8932
       ...           ...                  ...                  ...
        52        2.0000           -0.4486476             -12.2083
        53        2.0000           -0.4187829             -11.3957
        54        2.0000           -0.4126064             -11.2276
        55        2.0000           -0.3951245             -10.7519
        56        2.0000           -0.3926231             -10.6838
        57        2.0000           -0.3916810             -10.6582
        58        2.0000           -0.3897977             -10.6069 (HOMO)
        59                         -0.2746492              -7.4736 (LUMO)
        60                         -0.2487196              -6.7680
        61                         -0.2272918              -6.1849
        62                         -0.1984058              -5.3989
        63                         -0.1735790              -4.7233
       ...                                ...                  ...
       128                          1.3044389              35.4956
      -------------------------------------------------------------
                  HL-Gap            0.1151484 Eh            3.1333 eV
             Fermi-level           -0.3322234 Eh           -9.0403 eV

 SCC (total)                   0 d,  0 h,  0 min,  0.067 sec
 SCC setup                      ...        0 min,  0.003 sec (  3.850%)
 Dispersion                     ...        0 min,  0.000 sec (  0.501%)
 classical contributions        ...        0 min,  0.000 sec (  0.085%)
 integral evaluation            ...        0 min,  0.016 sec ( 24.129%)
 iterations                     ...        0 min,  0.025 sec ( 37.962%)
 molecular gradient             ...        0 min,  0.022 sec ( 33.143%)
 printout                       ...        0 min,  0.000 sec (  0.307%)

         :::::::::::::::::::::::::::::::::::::::::::::::::::::
         ::                     SUMMARY                     ::
         :::::::::::::::::::::::::::::::::::::::::::::::::::::
         :: total energy             -65.025033706268 Eh    ::
         :: total w/o Gsasa/hb       -65.028394442896 Eh    ::
         :: gradient norm              0.000190366454 Eh/a0 ::
         :: HOMO-LUMO gap              3.133347844165 eV    ::
         ::.................................................::
         :: SCC energy               -65.584885641511 Eh    ::
         :: -> isotropic ES            0.121248422713 Eh    ::
         :: -> anisotropic ES         -0.012336543992 Eh    ::
         :: -> anisotropic XC          0.030867679668 Eh    ::
         :: -> dispersion             -0.053743546149 Eh    ::
         :: -> Gsolv                  -0.016964986466 Eh    ::
         ::    -> Gelec               -0.020325723094 Eh    ::
         ::    -> Gsasa                0.004392299039 Eh    ::
         ::    -> Ghb                 -0.003926111571 Eh    ::
         ::    -> Gshift               0.002894549160 Eh    ::
         :: repulsion energy           0.559851935244 Eh    ::
         :: add. restraining           0.000000000000 Eh    ::
         :: total charge              -0.000000000000 e     ::
         :::::::::::::::::::::::::::::::::::::::::::::::::::::

           -------------------------------------------------
          |                Property Printout                |
           -------------------------------------------------

    * Orbital Energies and Occupations

         #    Occupation            Energy/Eh            Energy/eV
      -------------------------------------------------------------
         1        2.0000           -0.7678115             -20.8932
       ...           ...                  ...                  ...
        46        2.0000           -0.4681979             -12.7403
        47        2.0000           -0.4609776             -12.5438
        48        2.0000           -0.4560673             -12.4102
        49        2.0000           -0.4555026             -12.3949
        50        2.0000           -0.4540665             -12.3558
        51        2.0000           -0.4507361             -12.2652
        52        2.0000           -0.4486476             -12.2083
        53        2.0000           -0.4187829             -11.3957
        54        2.0000           -0.4126064             -11.2276
        55        2.0000           -0.3951245             -10.7519
        56        2.0000           -0.3926231             -10.6838
        57        2.0000           -0.3916810             -10.6582
        58        2.0000           -0.3897977             -10.6069 (HOMO)
        59                         -0.2746492              -7.4736 (LUMO)
        60                         -0.2487196              -6.7680
        61                         -0.2272918              -6.1849
        62                         -0.1984058              -5.3989
        63                         -0.1735790              -4.7233
        64                         -0.1690304              -4.5996
        65                         -0.1628404              -4.4311
        66                         -0.1596860              -4.3453
        67                         -0.1350781              -3.6757
        68                         -0.1284480              -3.4952
        69                         -0.0470453              -1.2802
       ...                                ...                  ...
       128                          1.3044389              35.4956
      -------------------------------------------------------------
                  HL-Gap            0.1151484 Eh            3.1333 eV
             Fermi-level           -0.3322234 Eh           -9.0403 eV

     #   Z          covCN         q      C6AA      α(0)
     1   6 C        3.751    -0.130    23.061     6.848
     2   6 C        3.863     0.074    19.310     6.249
     3   8 O        1.655    -0.263    18.380     5.787
     4  15 P        3.900     0.370   144.843    21.619
     5  16 S        0.926    -0.471   160.018    21.396
     6   8 O        1.655    -0.270    18.494     5.805
     7   6 C        3.865     0.088    19.087     6.213
     8   6 C        3.751    -0.122    22.897     6.824
     9  16 S        1.995    -0.116   145.892    20.329
    10   6 C        3.817     0.033    20.013     6.367
    11  16 S        2.028    -0.158   147.705    20.455
    12  15 P        3.886     0.380   144.462    21.591
    13  16 S        0.927    -0.457   159.343    21.351
    14   8 O        1.655    -0.253    18.202     5.759
    15   6 C        3.872     0.088    19.089     6.212
    16   6 C        3.751    -0.130    23.060     6.848
    17   8 O        1.655    -0.254    18.233     5.764
    18   6 C        3.885     0.074    19.292     6.244
    19   6 C        3.751    -0.128    23.014     6.842
    20   1 H        0.925     0.056     2.243     2.342
    21   1 H        0.925     0.087     1.912     2.162
    22   1 H        0.925     0.071     2.072     2.251
    23   1 H        0.924     0.066     2.132     2.283
    24   1 H        0.924     0.092     1.860     2.133
    25   1 H        0.924     0.067     2.116     2.275
    26   1 H        0.924     0.057     2.230     2.335
    27   1 H        0.925     0.055     2.255     2.348
    28   1 H        0.925     0.070     2.081     2.256
    29   1 H        0.925     0.085     1.926     2.170
    30   1 H        0.925     0.112     1.675     2.024
    31   1 H        0.925     0.108     1.717     2.049
    32   1 H        0.924     0.081     1.966     2.193
    33   1 H        0.924     0.051     2.302     2.373
    34   1 H        0.925     0.082     1.962     2.190
    35   1 H        0.925     0.062     2.172     2.305
    36   1 H        0.925     0.072     2.060     2.245
    37   1 H        0.924     0.095     1.834     2.118
    38   1 H        0.924     0.065     2.141     2.288
    39   1 H        0.925     0.069     2.097     2.265
    40   1 H        0.925     0.086     1.922     2.168
    41   1 H        0.925     0.054     2.266     2.354

 Mol. C6AA /au·bohr⁶  :      26410.122950
 Mol. C8AA /au·bohr⁸  :     862629.508222
 Mol. α(0) /au        :        257.631328


Wiberg/Mayer (AO) data.
largest (>0.10) Wiberg bond orders for each atom

 ---------------------------------------------------------------------------
     #   Z sym  total        # sym  WBO       # sym  WBO       # sym  WBO
 ---------------------------------------------------------------------------
     1   6 C    3.986 --     2 C    1.022    22 H    0.982    21 H    0.976
                            20 H    0.975
     2   6 C    3.887 --     1 C    1.022    23 H    0.968    24 H    0.965
                             3 O    0.886
     3   8 O    2.407 --     4 P    1.325     2 C    0.886
     4  15 P    5.298 --     5 S    1.513     3 O    1.325     6 O    1.307
                             9 S    1.005
     5  16 S    1.838 --     4 P    1.513     9 S    0.134
     6   8 O    2.381 --     4 P    1.307     7 C    0.877
     7   6 C    3.895 --     8 C    1.020    25 H    0.971    26 H    0.964
                             6 O    0.877
     8   6 C    3.985 --     7 C    1.020    27 H    0.982    28 H    0.982
                            29 H    0.974
     9  16 S    2.294 --     4 P    1.005    10 C    0.976     5 S    0.134
    10   6 C    3.950 --    11 S    0.991     9 S    0.976    31 H    0.958
                            30 H    0.954
    11  16 S    2.268 --    10 C    0.991    12 P    0.948    13 S    0.112
    12  15 P    5.283 --    13 S    1.545    14 O    1.320    17 O    1.317
                            11 S    0.948
    13  16 S    1.839 --    12 P    1.545    11 S    0.112
    14   8 O    2.411 --    12 P    1.320    15 C    0.886
    15   6 C    3.891 --    16 C    1.020    32 H    0.966    33 H    0.966
                            14 O    0.886
    16   6 C    3.985 --    15 C    1.020    36 H    0.983    35 H    0.980
                            34 H    0.976
    17   8 O    2.408 --    12 P    1.317    18 C    0.887
    18   6 C    3.887 --    19 C    1.022    38 H    0.967    37 H    0.964
                            17 O    0.887
    19   6 C    3.987 --    18 C    1.022    39 H    0.982    40 H    0.976
                            41 H    0.975
    20   1 H    0.997 --     1 C    0.975
    21   1 H    0.992 --     1 C    0.976
    22   1 H    0.995 --     1 C    0.982
    23   1 H    0.996 --     2 C    0.968
    24   1 H    0.991 --     2 C    0.965
    25   1 H    0.995 --     7 C    0.971
    26   1 H    0.997 --     7 C    0.964
    27   1 H    0.997 --     8 C    0.982
    28   1 H    0.995 --     8 C    0.982
    29   1 H    0.991 --     8 C    0.974
    30   1 H    0.987 --    10 C    0.954
    31   1 H    0.986 --    10 C    0.958
    32   1 H    0.993 --    15 C    0.966
    33   1 H    0.997 --    15 C    0.966
    34   1 H    0.992 --    16 C    0.976
    35   1 H    0.996 --    16 C    0.980
    36   1 H    0.995 --    16 C    0.983
    37   1 H    0.991 --    18 C    0.964
    38   1 H    0.996 --    18 C    0.967
    39   1 H    0.995 --    19 C    0.982
    40   1 H    0.992 --    19 C    0.976
    41   1 H    0.997 --    19 C    0.975
 ---------------------------------------------------------------------------

Topologies differ in total number of bonds
Writing topology from bond orders to xtbtopo.mol

molecular dipole:
                 x           y           z       tot (Debye)
 q only:        0.738      -1.417       1.148
   full:        0.943      -1.481       1.296       5.546
molecular quadrupole (traceless):
                xx          xy          yy          xz          yz          zz
 q only:        8.037      11.411       2.322      19.103       8.303     -10.358
  q+dip:        7.767      18.416       2.193      19.867       7.889      -9.960
   full:        9.161      18.312       1.976      20.140       7.975     -11.138


           -------------------------------------------------
          | TOTAL ENERGY              -65.025033706268 Eh   |
          | GRADIENT NORM               0.000190366454 Eh/α |
          | HOMO-LUMO GAP               3.133347844165 eV   |
           -------------------------------------------------

------------------------------------------------------------------------
 * finished run on 2025/04/09 at 05:21:04.209     
------------------------------------------------------------------------
 total:
 * wall-time:     0 d,  0 h,  0 min,  0.133 sec
 *  cpu-time:     0 d,  0 h,  0 min,  0.072 sec
 * ratio c/w:     0.544 speedup
 SCF:
 * wall-time:     0 d,  0 h,  0 min,  0.067 sec
 *  cpu-time:     0 d,  0 h,  0 min,  0.059 sec
 * ratio c/w:     0.875 speedup

