
                                 *****************
                                 * O   R   C   A *
                                 *****************

                                            #,                                       
                                            ###                                      
                                            ####                                     
                                            #####                                    
                                            ######                                   
                                           ########,                                 
                                     ,,################,,,,,                         
                               ,,#################################,,                 
                          ,,##########################################,,             
                       ,#########################################, ''#####,          
                    ,#############################################,,   '####,        
                  ,##################################################,,,,####,       
                ,###########''''           ''''###############################       
              ,#####''   ,,,,##########,,,,          '''####'''          '####       
            ,##' ,,,,###########################,,,                        '##       
           ' ,,###''''                  '''############,,,                           
         ,,##''                                '''############,,,,        ,,,,,,###''
      ,#''                                            '''#######################'''  
     '                                                          ''''####''''         
             ,#######,   #######,   ,#######,      ##                                
            ,#'     '#,  ##    ##  ,#'     '#,    #''#        ,####,   ,####,        
            ##       ##  ##   ,#'  ##            #'  '#       #'       #'  '#        
            ##       ##  #######   ##           ,######,      #####,   #    #        
            '#,     ,#'  ##    ##  '#,     ,#' ,#      #,     #,   #   #,  ,#        
             '#######'   ##     ##  '#######'  #'      '#     '####' # '####'        



                #########################################################
                #                        -***-                          #
                #          Department of theory and spectroscopy        #
                #                                                       #
                #                      Frank Neese                      #
                #                                                       #
                #     Directorship, Architecture, Infrastructure        #
                #                    SHARK, DRIVERS                     #
                #        Core code/Algorithms in most modules           #
                #                                                       #
                #        Max Planck Institute fuer Kohlenforschung      #
                #                Kaiser Wilhelm Platz 1                 #
                #                 D-45470 Muelheim/Ruhr                 #
                #                      Germany                          #
                #                                                       #
                #                  All rights reserved                  #
                #                        -***-                          #
                #########################################################


                         Program Version 6.0.0  -   RELEASE  -


 With contributions from (in alphabetic order):
   Daniel Aravena         : Magnetic Suceptibility
   Michael Atanasov       : Ab Initio Ligand Field Theory (pilot matlab implementation)
   Alexander A. Auer      : GIAO ZORA, VPT2 properties, NMR spectrum
   Ute Becker             : All parallelization in ORCA, NUMFREQ, NUMCALC
   Giovanni Bistoni       : ED, misc. LED, open-shell LED, HFLD
   Martin Brehm           : Molecular dynamics
   Dmytro Bykov           : pre 5.0 version of the SCF Hessian
   Marcos Casanova-Páez   : Triplet and SCS-CIS(D). UHF-(DLPNO)-IP/EA/STEOM-CCSD. UHF-CVS-IP/STEOM-CCSD
   Vijay G. Chilkuri      : MRCI spin determinant printing, contributions to CSF-ICE
   Pauline Colinet        : FMM embedding
   Dipayan Datta          : RHF DLPNO-CCSD density
   Achintya Kumar Dutta   : EOM-CC, STEOM-CC
   Nicolas Foglia         : Exact transition moments, OPA infrastructure, MCD improvements
   Dmitry Ganyushin       : Spin-Orbit,Spin-Spin,Magnetic field MRCI
   Miquel Garcia          : C-PCM and meta-GGA Hessian, CCSD/C-PCM, Gaussian charge scheme
   Tiago L. C. Gouveia    : GS-ROHF, GS-ROCIS
   Yang Guo               : DLPNO-NEVPT2, F12-NEVPT2, CIM, IAO-localization
   Andreas Hansen         : Spin unrestricted coupled pair/coupled cluster methods
   Ingolf Harden          : AUTO-CI MPn and infrastructure 
   Benjamin Helmich-Paris : MC-RPA, TRAH-(SCF,CASSCF), AVAS, COSX integrals, SCF dyn. polar.
   Lee Huntington         : MR-EOM, pCC
   Robert Izsak           : Overlap fitted RIJCOSX, COSX-SCS-MP3, EOM
   Riya Kayal             : Wick's Theorem for AUTO-CI, AUTO-CI UHF-CCSDT
   Emily Kempfer          : AUTO-CI, RHF CISDT and CCSDT
   Christian Kollmar      : KDIIS, OOCD, Brueckner-CCSD(T), CCSD density, CASPT2, CASPT2-K, improved NEVPT2
   Axel Koslowski         : Symmetry handling
   Simone Kossmann        : Meta GGA functionals, TD-DFT gradient, OOMP2, (MP2 Hessian; deprecated post 5.0)
   Lucas Lang             : DCDCAS
   Marvin Lechner         : AUTO-CI (C++ implementation), FIC-MRCC
   Spencer Leger          : CASSCF response
   Dagmar Lenk            : GEPOL surface, SMD, ORCA-2-JSON
   Dimitrios Liakos       : Extrapolation schemes; Compound Job, initial MDCI parallelization
   Dimitrios Manganas     : Further ROCIS development; embedding schemes. LFT, Crystal Embedding
   Dimitrios Pantazis     : SARC Basis sets
   Anastasios Papadopoulos: AUTO-CI, single reference methods and gradients
   Taras Petrenko         : pre 6.0 DFT Hessian and TD-DFT gradient, (ASA, deprecated), ECA, 1-Electron XAS/XES, NRVS
   Peter Pinski           : DLPNO-MP2, DLPNO-MP2 Gradient
   Christoph Reimann      : Effective Core Potentials
   Marius Retegan         : Local ZFS, SOC
   Christoph Riplinger    : Optimizer, TS searches, QM/MM, DLPNO-CCSD(T), (RO)-DLPNO pert. Triples
   Michael Roemelt        : Original ROCIS implementation
   Masaaki Saitow         : Open-shell DLPNO-CCSD energy and density
   Barbara Sandhoefer     : DKH picture change effects
   Kantharuban Sivalingam : CASSCF convergence/infrastructure, NEVPT2 and variants, FIC-MRCI
   Bernardo de Souza      : ESD, SOC TD-DFT
   Georgi Stoychev        : AutoAux, RI-MP2 NMR, DLPNO-MP2 response, X2C
   Van Anh Tran           : RI-MP2 g-tensors
   Willem Van den Heuvel  : Paramagnetic NMR
   Zikuan Wang            : NOTCH, Electric field optimization 
   Frank Wennmohs         : Technical directorship and infrastructure
   Hang Xu                : AUTO-CI-Response properties 


 We gratefully acknowledge several colleagues who have allowed us to
 interface, adapt or use parts of their codes:
   Stefan Grimme, W. Hujo, H. Kruse, P. Pracht,  : VdW corrections, initial TS optimization,
                  C. Bannwarth, S. Ehlert,         DFT functionals, gCP, sTDA/sTD-DF
                  L. Wittmann, M. Mueller
   Ed Valeev, F. Pavosevic, A. Kumar             : LibInt (2-el integral package), F12 methods
   Garnet Chan, S. Sharma, J. Yang, R. Olivares  : DMRG
   Ulf Ekstrom                                   : XCFun DFT Library
   Mihaly Kallay                                 : mrcc  (arbitrary order and MRCC methods)
   Frank Weinhold                                : gennbo (NPA and NBO analysis)
   Simon Mueller                                 : openCOSMO-RS
   Christopher J. Cramer and Donald G. Truhlar   : smd solvation model
   Lars Goerigk                                  : TD-DFT with DH, B97 family of functionals
   V. Asgeirsson, H. Jonsson                     : NEB implementation
   FAccTs GmbH                                   : IRC, NEB, NEB-TS, DLPNO-Multilevel, CI-OPT
                                                   MM, QMMM, 2- and 3-layer-ONIOM, Crystal-QMMM,
                                                   LR-CPCM, SF, NACMEs, symmetry and pop. for TD-DFT,
                                                   nearIR, NL-DFT gradient (VV10), updates on ESD,
                                                   ML-optimized integration grids, MBIS, APM,
                                                   GOAT, DOCKER, SOLVATOR, interface openCOSMO-RS
   S Lehtola, MJT Oliveira, MAL Marques          : LibXC Library
   Liviu Ungur et al                             : ANISO software


 Your calculation uses the libint2 library for the computation of 2-el integrals
 For citations please refer to: http://libint.valeyev.net

 Your ORCA version has been built with support for libXC version: 6.2.2
 For citations please refer to: https://libxc.gitlab.io

 This ORCA versions uses:
   CBLAS   interface :  Fast vector & matrix operations
   LAPACKE interface :  Fast linear algebra routines
   SCALAPACK package :  Parallel linear algebra routines
   Shared memory     :  Shared parallel matrices
   BLAS/LAPACK       :  OpenBLAS 0.3.27  USE64BITINT DYNAMIC_ARCH NO_AFFINITY SapphireRapids SINGLE_THREADED
        Core in use  :  SapphireRapids
   Copyright (c) 2011-2014, The OpenBLAS Project


Your calculation utilizes the geometrical counterpoise correction gCP
Please cite in your paper:
H.Kruse, S. Grimme J.Chem.Phys., 136, (2012), 154101 
   

Your calculation utilizes the atom-pairwise dispersion correction
based on EEQ partial charges (D4)


================================================================================

----- Orbital basis set information -----
Your calculation utilizes the basis: def2-SV(P)
   F. Weigend and R. Ahlrichs, Phys. Chem. Chem. Phys. 7, 3297 (2005).

----- AuxJ basis set information -----
Your calculation utilizes the auxiliary basis: def2/J
   F. Weigend, Phys. Chem. Chem. Phys. 8, 1057 (2006).

================================================================================
                                        WARNINGS
                       Please study these warnings very carefully!
================================================================================


================================================================================
                                       INPUT FILE
================================================================================
NAME = sp.inp
|  1> ! pbe def2-sv(p) def2/J RI DEFGRID1 loosescf d4 GCP(DFT/SV(P)) printgap
|  2> %output
|  3>     printlevel normal
|  4> end
|  5> * xyz 0 1
|  6> C 5.2378209378 -1.3406141804 -2.0653197048
|  7> C 3.7446495178 -1.3032409082 -1.8096341571
|  8> O 3.5210521615 -0.5541169351 -0.6003269897
|  9> P 2.0609212574 -0.0771456233 -0.1749325863
| 10> S 1.1210329897 0.8840790419 -1.6073414769
| 11> O 2.3991912338 0.6682978655 1.1711859892
| 12> C 2.6068530843 2.0925700199 1.2427820668
| 13> C 3.8622999609 2.5135923486 0.5095241678
| 14> S 1.1587673583 -1.8551757297 0.5247844535
| 15> C -0.2779921807 -1.9569713138 -0.6003464847
| 16> S -1.8837304515 -1.8583214224 0.2296183829
| 17> P -2.0440182083 0.2492093557 0.4940140931
| 18> S -0.7100539609 1.12574445 1.6274130875
| 19> O -3.5370246293 0.3792681422 1.0190425293
| 20> C -3.906861878 -0.0151076475 2.356646054
| 21> C -5.2677820973 0.5800677524 2.6545241177
| 22> O -2.1292975542 0.8811743483 -0.9393783686
| 23> C -3.1216696467 0.4851656909 -1.9261986233
| 24> C -2.5352115811 0.7313144709 -3.3002079001
| 25> H 5.7456248167 -1.7935574287 -1.2188501458
| 26> H 5.4316299395 -1.9257966041 -2.9581270784
| 27> H 5.6191005349 -0.3333437501 -2.2060196024
| 28> H 3.3395140648 -2.3098910253 -1.6692279391
| 29> H 3.2077908788 -0.8104848155 -2.6274927954
| 30> H 1.7216334297 2.593065694 0.8363274665
| 31> H 2.6680553421 2.2895462715 2.3138963123
| 32> H 3.7504060355 2.3171745279 -0.5564603294
| 33> H 4.0262068696 3.576173066 0.6587117361
| 34> H 4.7168413627 1.9554240659 0.8827850744
| 35> H -0.2560035339 -2.935470513 -1.0719078967
| 36> H -0.1960845876 -1.1512849298 -1.3360699073
| 37> H -3.9296896824 -1.1074132883 2.3941799118
| 38> H -3.1441051488 0.3522879555 3.0510701144
| 39> H -5.5737090664 0.2855730332 3.6529127856
| 40> H -5.2210646167 1.6639982909 2.5982981767
| 41> H -5.9951679461 0.219978037 1.9330562
| 42> H -3.368544914 -0.5692624727 -1.7734495923
| 43> H -4.0095846908 1.0944437312 -1.7513260182
| 44> H -2.2827308986 1.7815716203 -3.4144785406
| 45> H -1.6273377884 0.149391001 -3.4363621536
| 46> H -3.262373107 0.4483304559 -4.0541187487
| 47> *
| 48> 
| 49>                          ****END OF INPUT****
================================================================================

                       ****************************
                       * Single Point Calculation *
                       ****************************

---------------------------------
CARTESIAN COORDINATES (ANGSTROEM)
---------------------------------
  C      5.237821   -1.340614   -2.065320
  C      3.744650   -1.303241   -1.809634
  O      3.521052   -0.554117   -0.600327
  P      2.060921   -0.077146   -0.174933
  S      1.121033    0.884079   -1.607341
  O      2.399191    0.668298    1.171186
  C      2.606853    2.092570    1.242782
  C      3.862300    2.513592    0.509524
  S      1.158767   -1.855176    0.524784
  C     -0.277992   -1.956971   -0.600346
  S     -1.883730   -1.858321    0.229618
  P     -2.044018    0.249209    0.494014
  S     -0.710054    1.125744    1.627413
  O     -3.537025    0.379268    1.019043
  C     -3.906862   -0.015108    2.356646
  C     -5.267782    0.580068    2.654524
  O     -2.129298    0.881174   -0.939378
  C     -3.121670    0.485166   -1.926199
  C     -2.535212    0.731314   -3.300208
  H      5.745625   -1.793557   -1.218850
  H      5.431630   -1.925797   -2.958127
  H      5.619101   -0.333344   -2.206020
  H      3.339514   -2.309891   -1.669228
  H      3.207791   -0.810485   -2.627493
  H      1.721633    2.593066    0.836327
  H      2.668055    2.289546    2.313896
  H      3.750406    2.317175   -0.556460
  H      4.026207    3.576173    0.658712
  H      4.716841    1.955424    0.882785
  H     -0.256004   -2.935471   -1.071908
  H     -0.196085   -1.151285   -1.336070
  H     -3.929690   -1.107413    2.394180
  H     -3.144105    0.352288    3.051070
  H     -5.573709    0.285573    3.652913
  H     -5.221065    1.663998    2.598298
  H     -5.995168    0.219978    1.933056
  H     -3.368545   -0.569262   -1.773450
  H     -4.009585    1.094444   -1.751326
  H     -2.282731    1.781572   -3.414479
  H     -1.627338    0.149391   -3.436362
  H     -3.262373    0.448330   -4.054119

----------------------------
CARTESIAN COORDINATES (A.U.)
----------------------------
  NO LB      ZA    FRAG     MASS         X           Y           Z
   0 C     6.0000    0    12.011    9.898047   -2.533394   -3.902889
   1 C     6.0000    0    12.011    7.076362   -2.462768   -3.419713
   2 O     8.0000    0    15.999    6.653824   -1.047129   -1.134454
   3 P    15.0000    0    30.974    3.894577   -0.145784   -0.330575
   4 S    16.0000    0    32.060    2.118445    1.670667   -3.037435
   5 O     8.0000    0    15.999    4.533814    1.262900    2.213221
   6 C     6.0000    0    12.011    4.926238    3.954384    2.348518
   7 C     6.0000    0    12.011    7.298689    4.750001    0.962861
   8 S    16.0000    0    32.060    2.189753   -3.505774    0.991699
   9 C     6.0000    0    12.011   -0.525329   -3.698140   -1.134490
  10 S    16.0000    0    32.060   -3.559735   -3.511719    0.433916
  11 P    15.0000    0    30.974   -3.862635    0.470937    0.933551
  12 S    16.0000    0    32.060   -1.341808    2.127349    3.075365
  13 O     8.0000    0    15.999   -6.684008    0.716713    1.925711
  14 C     6.0000    0    12.011   -7.382899   -0.028549    4.453416
  15 C     6.0000    0    12.011   -9.954665    1.096169    5.016324
  16 O     8.0000    0    15.999   -4.023789    1.665178   -1.775168
  17 C     6.0000    0    12.011   -5.899101    0.916830   -3.639988
  18 C     6.0000    0    12.011   -4.790856    1.381984   -6.236489
  19 H     1.0000    0     1.008   10.857657   -3.389332   -2.303293
  20 H     1.0000    0     1.008   10.264293   -3.639228   -5.590050
  21 H     1.0000    0     1.008   10.618561   -0.629928   -4.168773
  22 H     1.0000    0     1.008    6.310767   -4.365061   -3.154384
  23 H     1.0000    0     1.008    6.061846   -1.531594   -4.965242
  24 H     1.0000    0     1.008    3.253416    4.900184    1.580430
  25 H     1.0000    0     1.008    5.041894    4.326615    4.372630
  26 H     1.0000    0     1.008    7.087240    4.378825   -1.051558
  27 H     1.0000    0     1.008    7.608428    6.757988    1.244785
  28 H     1.0000    0     1.008    8.913538    3.695216    1.668222
  29 H     1.0000    0     1.008   -0.483777   -5.547235   -2.025612
  30 H     1.0000    0     1.008   -0.370546   -2.175613   -2.524806
  31 H     1.0000    0     1.008   -7.426037   -2.092708    4.524344
  32 H     1.0000    0     1.008   -5.941498    0.665728    5.765687
  33 H     1.0000    0     1.008  -10.532784    0.539655    6.903005
  34 H     1.0000    0     1.008   -9.866382    3.144501    4.910072
  35 H     1.0000    0     1.008  -11.329226    0.415698    3.652947
  36 H     1.0000    0     1.008   -6.365627   -1.075750   -3.351334
  37 H     1.0000    0     1.008   -7.577017    2.068199   -3.309527
  38 H     1.0000    0     1.008   -4.313736    3.366682   -6.452429
  39 H     1.0000    0     1.008   -3.075223    0.282308   -6.493783
  40 H     1.0000    0     1.008   -6.164992    0.847222   -7.661174

--------------------------------
INTERNAL COORDINATES (ANGSTROEM)
--------------------------------
 C      0   0   0     0.000000000000     0.00000000     0.00000000
 C      1   0   0     1.515365550051     0.00000000     0.00000000
 O      2   1   0     1.440002197895   107.91039577     0.00000000
 P      3   2   1     1.593877124446   121.47051808   168.23789818
 S      4   3   2     1.964468895814   112.96165716   308.34066040
 O      4   3   2     1.575483351621    99.95865603   180.07225889
 C      6   4   3     1.441110895206   122.75250659    95.78177780
 C      7   6   4     1.513629349502   111.73757438   292.94738227
 S      4   3   2     2.113025473749   103.16130825    75.19424248
 C      9   4   3     1.827719875130   100.29039582   238.64705979
 S     10   9   4     1.810240005313   114.33149369   242.70754554
 P     11  10   9     2.130089959882   100.22857877    80.66005572
 S     12  11  10     1.957643395869   117.61935212   297.07742101
 O     12  11  10     1.587966725064   101.11762398   171.81268060
 C     14  12  11     1.442738730095   121.67915013    73.48637787
 C     15  14  12     1.514948494431   107.76939848   164.65779056
 O     12  11  10     1.568842333687   106.81240769    64.86794038
 C     17  12  11     1.454455032579   123.18290799    54.90882006
 C     18  17  12     1.514075221822   107.88883990   207.65833856
 H      1   2   3     1.086063110468   109.84615437    58.37039247
 H      1   2   3     1.084944885467   109.15765813   178.37444330
 H      1   2   3     1.086169559556   110.17419599   298.42874355
 H      2   1   3     1.094163196049   111.33425203   241.32944547
 H      2   1   3     1.095407922832   111.59470320   119.08458408
 H      7   6   4     1.095132457189   108.46718018    56.02362946
 H      7   6   4     1.090793787554   103.61169911   171.86490611
 H      8   7   6     1.089689478292   109.79109544    65.17612687
 H      8   7   6     1.085449301555   109.32694303   184.76852206
 H      8   7   6     1.086791858452   110.05599240   305.30144550
 H     10   9   4     1.086422730207   107.54473482   126.01658534
 H     10   9   4     1.094133610549   108.30530343     5.14285692
 H     15  14  12     1.093188690052   108.07831131   285.32548489
 H     15  14  12     1.094989558263   108.52308283    43.57293192
 H     16  15  14     1.084941649238   109.12356999   179.26083942
 H     16  15  14     1.086392788879   110.07021373   299.20722926
 H     16  15  14     1.085942324639   109.92644095    59.25951593
 H     18  17  12     1.093662843965   108.76942114   329.08103900
 H     18  17  12     1.090959799418   107.12742338    87.24618127
 H     19  18  17     1.086206404963   110.04123447   300.64831787
 H     19  18  17     1.086925815793   110.49760157    59.92566848
 H     19  18  17     1.085000186697   109.18233656   180.36277115

---------------------------
INTERNAL COORDINATES (A.U.)
---------------------------
 C      0   0   0     0.000000000000     0.00000000     0.00000000
 C      1   0   0     2.863625882376     0.00000000     0.00000000
 O      2   1   0     2.721209786266   107.91039577     0.00000000
 P      3   2   1     3.011991256325   121.47051808   168.23789818
 S      4   3   2     3.712308211694   112.96165716   308.34066040
 O      4   3   2     2.977232063116    99.95865603   180.07225889
 C      6   4   3     2.723304920548   122.75250659    95.78177780
 C      7   6   4     2.860344938825   111.73757438   292.94738227
 S      4   3   2     3.993039459385   103.16130825    75.19424248
 C      9   4   3     3.453890013520   100.29039582   238.64705979
 S     10   9   4     3.420857846710   114.33149369   242.70754554
 P     11  10   9     4.025286664793   100.22857877    80.66005572
 S     12  11  10     3.699409886071   117.61935212   297.07742101
 O     12  11  10     3.000822220152   101.11762398   171.81268060
 C     14  12  11     2.726381082682   121.67915013    73.48637787
 C     15  14  12     2.862837761471   107.76939848   164.65779056
 O     12  11  10     2.964682357970   106.81240769    64.86794038
 C     17  12  11     2.748521685678   123.18290799    54.90882006
 C     18  17  12     2.861187515400   107.88883990   207.65833856
 H      1   2   3     2.052361842940   109.84615437    58.37039247
 H      1   2   3     2.050248703932   109.15765813   178.37444330
 H      1   2   3     2.052563002563   110.17419599   298.42874355
 H      2   1   3     2.067668786348   111.33425203   241.32944547
 H      2   1   3     2.070020979081   111.59470320   119.08458408
 H      7   6   4     2.069500424455   108.46718018    56.02362946
 H      7   6   4     2.061301527060   103.61169911   171.86490611
 H      8   7   6     2.059214684988   109.79109544    65.17612687
 H      8   7   6     2.051201912194   109.32694303   184.76852206
 H      8   7   6     2.053738977050   110.05599240   305.30144550
 H     10   9   4     2.053041425758   107.54473482   126.01658534
 H     10   9   4     2.067612877856   108.30530343     5.14285692
 H     15  14  12     2.065827236899   108.07831131   285.32548489
 H     15  14  12     2.069230384621   108.52308283    43.57293192
 H     16  15  14     2.050242588344   109.12356999   179.26083942
 H     16  15  14     2.052984844848   110.07021373   299.20722926
 H     16  15  14     2.052133590801   109.92644095    59.25951593
 H     18  17  12     2.066723257939   108.76942114   329.08103900
 H     18  17  12     2.061615244017   107.12742338    87.24618127
 H     19  18  17     2.052632630290   110.04123447   300.64831787
 H     19  18  17     2.053992119738   110.49760157    59.92566848
 H     19  18  17     2.050353208110   109.18233656   180.36277115

---------------------
BASIS SET INFORMATION
---------------------
There are 5 groups of distinct atoms

 Group   1 Type C   : 7s4p1d contracted to 3s2p1d pattern {511/31/1}
 Group   2 Type O   : 7s4p1d contracted to 3s2p1d pattern {511/31/1}
 Group   3 Type P   : 10s7p1d contracted to 4s3p1d pattern {5311/511/1}
 Group   4 Type S   : 10s7p1d contracted to 4s3p1d pattern {5311/511/1}
 Group   5 Type H   : 4s contracted to 2s pattern {31}

Atom   0C    basis set group =>   1
Atom   1C    basis set group =>   1
Atom   2O    basis set group =>   2
Atom   3P    basis set group =>   3
Atom   4S    basis set group =>   4
Atom   5O    basis set group =>   2
Atom   6C    basis set group =>   1
Atom   7C    basis set group =>   1
Atom   8S    basis set group =>   4
Atom   9C    basis set group =>   1
Atom  10S    basis set group =>   4
Atom  11P    basis set group =>   3
Atom  12S    basis set group =>   4
Atom  13O    basis set group =>   2
Atom  14C    basis set group =>   1
Atom  15C    basis set group =>   1
Atom  16O    basis set group =>   2
Atom  17C    basis set group =>   1
Atom  18C    basis set group =>   1
Atom  19H    basis set group =>   5
Atom  20H    basis set group =>   5
Atom  21H    basis set group =>   5
Atom  22H    basis set group =>   5
Atom  23H    basis set group =>   5
Atom  24H    basis set group =>   5
Atom  25H    basis set group =>   5
Atom  26H    basis set group =>   5
Atom  27H    basis set group =>   5
Atom  28H    basis set group =>   5
Atom  29H    basis set group =>   5
Atom  30H    basis set group =>   5
Atom  31H    basis set group =>   5
Atom  32H    basis set group =>   5
Atom  33H    basis set group =>   5
Atom  34H    basis set group =>   5
Atom  35H    basis set group =>   5
Atom  36H    basis set group =>   5
Atom  37H    basis set group =>   5
Atom  38H    basis set group =>   5
Atom  39H    basis set group =>   5
Atom  40H    basis set group =>   5
---------------------------------
AUXILIARY/J BASIS SET INFORMATION
---------------------------------
There are 5 groups of distinct atoms

 Group   1 Type C   : 12s5p4d2f1g contracted to 6s4p3d1f1g pattern {711111/2111/211/2/1}
 Group   2 Type O   : 12s5p4d2f1g contracted to 6s4p3d1f1g pattern {711111/2111/211/2/1}
 Group   3 Type P   : 14s5p5d2f1g contracted to 8s4p3d1f1g pattern {71111111/2111/311/2/1}
 Group   4 Type S   : 14s5p5d2f1g contracted to 8s4p3d1f1g pattern {71111111/2111/311/2/1}
 Group   5 Type H   : 5s2p1d contracted to 3s1p1d pattern {311/2/1}

Atom   0C    basis set group =>   1
Atom   1C    basis set group =>   1
Atom   2O    basis set group =>   2
Atom   3P    basis set group =>   3
Atom   4S    basis set group =>   4
Atom   5O    basis set group =>   2
Atom   6C    basis set group =>   1
Atom   7C    basis set group =>   1
Atom   8S    basis set group =>   4
Atom   9C    basis set group =>   1
Atom  10S    basis set group =>   4
Atom  11P    basis set group =>   3
Atom  12S    basis set group =>   4
Atom  13O    basis set group =>   2
Atom  14C    basis set group =>   1
Atom  15C    basis set group =>   1
Atom  16O    basis set group =>   2
Atom  17C    basis set group =>   1
Atom  18C    basis set group =>   1
Atom  19H    basis set group =>   5
Atom  20H    basis set group =>   5
Atom  21H    basis set group =>   5
Atom  22H    basis set group =>   5
Atom  23H    basis set group =>   5
Atom  24H    basis set group =>   5
Atom  25H    basis set group =>   5
Atom  26H    basis set group =>   5
Atom  27H    basis set group =>   5
Atom  28H    basis set group =>   5
Atom  29H    basis set group =>   5
Atom  30H    basis set group =>   5
Atom  31H    basis set group =>   5
Atom  32H    basis set group =>   5
Atom  33H    basis set group =>   5
Atom  34H    basis set group =>   5
Atom  35H    basis set group =>   5
Atom  36H    basis set group =>   5
Atom  37H    basis set group =>   5
Atom  38H    basis set group =>   5
Atom  39H    basis set group =>   5
Atom  40H    basis set group =>   5
------------------------------------------------------------------------------
                             ORCA STARTUP CALCULATIONS
                           -- RI-GTO INTEGRALS CHOSEN --
------------------------------------------------------------------------------
------------------------------------------------------------------------------
                   ___                                                        
                  /   \      - P O W E R E D   B Y -                         
                 /     \                                                     
                 |  |  |   _    _      __       _____    __    __             
                 |  |  |  | |  | |    /  \     |  _  \  |  |  /  |          
                  \  \/   | |  | |   /    \    | | | |  |  | /  /          
                 / \  \   | |__| |  /  /\  \   | |_| |  |  |/  /          
                |  |  |   |  __  | /  /__\  \  |    /   |      \           
                |  |  |   | |  | | |   __   |  |    \   |  |\   \          
                \     /   | |  | | |  |  |  |  | |\  \  |  | \   \       
                 \___/    |_|  |_| |__|  |__|  |_| \__\ |__|  \__/        
                                                                              
                      - O R C A' S   B I G   F R I E N D -                    
                                      &                                       
                       - I N T E G R A L  F E E D E R -                       
                                                                              
 v1 FN, 2020, v2 2021, v3 2022-2024                                           
------------------------------------------------------------------------------


----------------------
SHARK INTEGRAL PACKAGE
----------------------

Number of atoms                             ...     41
Number of basis functions                   ...    334
Number of shells                            ...    170
Maximum angular momentum                    ...      2
Integral batch strategy                     ... SHARK/LIBINT Hybrid
RI-J (if used) integral strategy            ... SPLIT-RIJ (Revised 2003 algorithm where possible)
Printlevel                                  ...      1
Contraction scheme used                     ... SEGMENTED contraction
Prescreening option                         ... SCHWARTZ
   Thresh                                   ... 1.000e-09
   Tcut                                     ... 1.000e-10
   Tpresel                                  ... 1.000e-10 
Coulomb Range Separation                    ... NOT USED
Exchange Range Separation                   ... NOT USED
Multipole approximations                    ... NOT USED
Finite Nucleus Model                        ... NOT USED
CABS basis                                  ... NOT available
Auxiliary Coulomb fitting basis             ... AVAILABLE
   # of basis functions in Aux-J            ...   1185
   # of shells in Aux-J                     ...    407
   Maximum angular momentum in Aux-J        ...      4
Auxiliary J/K fitting basis                 ... NOT available
Auxiliary Correlation fitting basis         ... NOT available
Auxiliary 'external' fitting basis          ... NOT available

Checking pre-screening integrals            ... done (  0.0 sec) Dimension = 170
Check shell pair data                       ... done (  0.0 sec)
Shell pair information
Shell pair cut-off parameter TPreSel        ...   1.0e-10
Total number of shell pairs                 ...     14535
Shell pairs after pre-screening             ...      9871
Total number of primitive shell pairs       ...     62501
Primitive shell pairs kept                  ...     24464
          la=0 lb=0:   3792 shell pairs
          la=1 lb=0:   3354 shell pairs
          la=1 lb=1:    793 shell pairs
          la=2 lb=0:   1245 shell pairs
          la=2 lb=1:    577 shell pairs
          la=2 lb=2:    110 shell pairs

Calculating one electron integrals          ... done (  0.0 sec)
Calculating RI/J V-Matrix + Cholesky decomp.... done (  0.1 sec)
Calculating Nuclear repulsion               ... done (  0.0 sec) ENN=   2759.202328852065 Eh

Diagonalization of the overlap matrix:
Smallest eigenvalue                        ... 3.413e-03
Time for diagonalization                   ...    0.010 sec
Threshold for overlap eigenvalues          ... 1.000e-07
Number of eigenvalues below threshold      ... 0
Time for construction of square roots      ...    0.033 sec
Total time needed                          ...    0.053 sec

-------------------
DFT GRID GENERATION
-------------------

General Integration Accuracy     IntAcc      ... 4.159
Radial Grid Type                 RadialGrid  ... OptM3 with GC (2021)
Angular Grid (max. ang.)         AngularGrid ... 3 (Lebedev-194)
Angular grid pruning method      GridPruning ... 4 (adaptive)
Weight generation scheme         WeightScheme... mBecke (2022)
Basis function cutoff            BFCut       ... 1.0000e-10
Integration weight cutoff        WCut        ... 1.0000e-14
Partially contracted basis set               ... off
Rotationally invariant grid construction     ... off
Angular grids for H and He will be reduced by one unit

Total number of grid points                  ...    97600
Total number of batches                      ...     1548
Average number of points per batch           ...       63
Average number of grid points per atom       ...     2380
Initializing property integral containers    ... done (  0.0 sec)

SHARK setup successfully completed in   1.5 seconds

Maximum memory used throughout the entire STARTUP-calculation: 51.2 MB
-------------------------------------------------------------------------------
                                 ORCA GUESS
                   Start orbitals & Density for SCF / CASSCF
-------------------------------------------------------------------------------

------------
SCF SETTINGS
------------
Hamiltonian:
 Density Functional     Method          .... DFT(GTOs)
 Exchange Functional    Exchange        .... PBE
   PBE kappa parameter   XKappa         ....  0.804000
   PBE mue parameter    XMuePBE         ....  0.219520
 Correlation Functional Correlation     .... PBE
   PBE beta parameter  CBetaPBE         ....  0.066725
 LDA part of GGA corr.  LDAOpt          .... PW91-LDA
 Gradients option       PostSCFGGA      .... off
   NL short-range parameter             ....  6.400000
 RI-approximation to the Coulomb term is turned on
   Number of AuxJ basis functions       .... 1185


General Settings:
 Integral files         IntName         .... sp
 Hartree-Fock type      HFTyp           .... RHF
 Total Charge           Charge          ....    0
 Multiplicity           Mult            ....    1
 Number of Electrons    NEL             ....  202
 Basis Dimension        Dim             ....  334
 Nuclear Repulsion      ENuc            ....   2759.2023288521 Eh

Convergence Acceleration:
 AO-DIIS                CNVDIIS         .... on
   Start iteration      DIISMaxIt       ....    12
   Startup error        DIISStart       ....  0.200000
   # of expansion vecs  DIISMaxEq       ....     5
   Bias factor          DIISBfac        ....   1.050
   Max. coefficient     DIISMaxC        ....  10.000
 MO-DIIS                CNVKDIIS        .... off
 Trust-Rad. Augm. Hess. CNVTRAH         .... auto
   Auto Start mean grad. ratio tolernc. ....  1.125000
   Auto Start start iteration           ....    50
   Auto Start num. interpolation iter.  ....    10
   Max. Number of Micro iterations      ....    24
   Max. Number of Macro iterations      .... Maxiter - #DIIS iter
   Number of Davidson start vectors     ....     2
   Converg. threshold    (grad. norm)   ....   1.000e-04
   Grad. Scal. Fac. for Micro threshold ....   0.100
   Minimum threshold for Micro iter.    ....   1.000e-02
   NR start threshold (gradient norm)   ....   1.000e-04
   Initial trust radius                 ....   0.400
   Minimum AH scaling param. (alpha)    ....   1.000
   Maximum AH scaling param. (alpha)    .... 1000.000
   Quad. conv. algorithm                .... NR
   White noise on init. David. guess    .... on
   Maximum white noise                  ....   0.010
   Pseudo random numbers                .... off
   Inactive MOs                         .... canonical
   Orbital update algorithm             .... Taylor
   Preconditioner                       .... Diag
   Full preconditioner red. dimension   ....   250
 SOSCF                  CNVSOSCF        .... on
   Start iteration      SOSCFMaxIt      ....   150
   Startup grad/error   SOSCFStart      ....  0.003300
   Hessian update       SOSCFHessUp     .... L-BFGS
 Level Shifting         CNVShift        .... on
   Level shift para.    LevelShift      ....    0.2500
   Turn off err/grad.   ShiftErr        ....    0.0010
 Zerner damping         CNVZerner       .... off
 Static damping         CNVDamp         .... on
   Fraction old density DampFac         ....    0.7000
   Max. Damping (<1)    DampMax         ....    0.9800
   Min. Damping (>=0)   DampMin         ....    0.0000
   Turn off err/grad.   DampErr         ....    0.1000

SCF Procedure:
 Maximum # iterations   MaxIter         ....   125
 SCF integral mode      SCFMode         .... Direct
   Integral package                     .... SHARK and LIBINT hybrid scheme
 Reset frequency        DirectResetFreq ....    20
 Integral Threshold     Thresh          ....  1.000e-09 Eh
 Primitive CutOff       TCut            ....  1.000e-10 Eh

Convergence Tolerance:
 Convergence Check Mode ConvCheckMode   .... Total+1el-Energy
 Convergence forced     ConvForced      .... 0
 Energy Change          TolE            ....  1.000e-05 Eh
 1-El. energy change                    ....  1.000e-02 Eh
 Orbital Gradient       TolG            ....  1.000e-04
 Orbital Rotation angle TolX            ....  1.000e-04
 DIIS Error             TolErr          ....  5.000e-04

------------------------------
INITIAL GUESS: MODEL POTENTIAL
------------------------------
Loading Hartree-Fock densities                     ... done
Calculating cut-offs                               ... done
Initializing the effective Hamiltonian             ... done
Setting up the integral package (SHARK)            ... done
Starting the Coulomb interaction                   ... done (   0.6 sec)
Making the grid                                    ... done (   0.6 sec)
Mapping shells                                     ... done
Starting the XC term evaluation                    ... done (   0.3 sec)
  promolecular density results
     # of electrons  =    201.987441712
     EX              =   -229.993543487
     EC              =     -7.280989418
     EX+EC           =   -237.274532905
Transforming the Hamiltonian                       ... done (   0.0 sec)
Diagonalizing the Hamiltonian                      ... done (   0.0 sec)
Back transforming the eigenvectors                 ... done (   0.0 sec)
Now organizing SCF variables                       ... done
                      ------------------
                      INITIAL GUESS DONE (   1.6 sec)
                      ------------------
             **** ENERGY FILE WAS UPDATED (sp.en.tmp) ****
Finished Guess after   1.8 sec
Maximum memory used throughout the entire GUESS-calculation: 38.7 MB

-------------------------------------------------------------------------------------------
                                      ORCA LEAN-SCF
                              memory conserving SCF solver
-------------------------------------------------------------------------------------------

----------------------------------------D-I-I-S--------------------------------------------
Iteration    Energy (Eh)           Delta-E    RMSDP     MaxDP     DIISErr   Damp  Time(sec)
-------------------------------------------------------------------------------------------
               ***  Starting incremental Fock matrix formation  ***
    1    -2929.1864492073523252     0.00e+00  2.74e-03  1.41e-01  1.85e-01  0.700   2.2
    2    -2929.4135718810734943    -2.27e-01  1.77e-03  7.21e-02  7.48e-02  0.700   2.0
                               ***Turning on AO-DIIS***
    3    -2929.4844658985462047    -7.09e-02  6.98e-04  1.94e-02  2.22e-02  0.700   1.9
    4    -2929.5297212345426487    -4.53e-02  1.07e-03  3.63e-02  1.06e-02  0.000   1.9
    5    -2929.6357697725866274    -1.06e-01  3.17e-04  1.31e-02  8.30e-03  0.000   1.9
                              *** Initializing SOSCF ***
---------------------------------------S-O-S-C-F--------------------------------------
Iteration    Energy (Eh)           Delta-E    RMSDP     MaxDP     MaxGrad    Time(sec)
--------------------------------------------------------------------------------------
    6    -2929.6368896717262942    -1.12e-03  1.10e-04  3.39e-03  2.32e-03     1.8
               *** Restarting incremental Fock matrix formation ***
    7    -2929.6370227575212084    -1.33e-04  7.77e-05  2.03e-03  2.39e-04     2.1
    8    -2929.6370254595335609    -2.70e-06  3.29e-05  1.04e-03  2.54e-04     1.8
                 **** Energy Check signals convergence ****

               *****************************************************
               *                     SUCCESS                       *
               *           SCF CONVERGED AFTER   8 CYCLES          *
               *****************************************************

             **** ENERGY FILE WAS UPDATED (sp.en.tmp) ****

----------------
TOTAL SCF ENERGY
----------------

Total Energy       :      -2929.63702545953356 Eh          -79719.47632 eV

Components:
Nuclear Repulsion  :       2759.20232885206542 Eh           75081.71245 eV
Electronic Energy  :      -5688.83935431159989 Eh         -154801.18877 eV
One Electron Energy:      -9537.94194934804000 Eh         -259540.59523 eV
Two Electron Energy:       3849.10259503644056 Eh          104739.40646 eV

Virial components:
Potential Energy   :      -5848.94212887011236 Eh         -159157.80675 eV
Kinetic Energy     :       2919.30510341057925 Eh           79438.33043 eV
Virial Ratio       :          2.00353917171483

DFT components:
N(Alpha)           :      101.000002005619 electrons
N(Beta)            :      101.000002005619 electrons
N(Total)           :      202.000004011239 electrons
E(X)               :     -231.806093739362 Eh       
E(C)               :       -7.292400708762 Eh       
E(XC)              :     -239.098494448125 Eh       

---------------
SCF CONVERGENCE
---------------

  Last Energy change         ...    2.7020e-06  Tolerance :   1.0000e-05
  Last MAX-Density change    ...    1.0386e-03  Tolerance :   1.0000e-03
  Last RMS-Density change    ...    3.2865e-05  Tolerance :   1.0000e-04
  Last DIIS Error            ...    2.3156e-03  Tolerance :   5.0000e-04
  Last Orbital Gradient      ...    2.5415e-04  Tolerance :   1.0000e-04
  Last Orbital Rotation      ...    3.7082e-04  Tolerance :   1.0000e-04


----------------
ORBITAL ENERGIES
----------------

  NO   OCC          E(Eh)            E(eV) 
   0   2.0000     -88.040206     -2395.6958 
   1   2.0000     -88.036175     -2395.5861 
   2   2.0000     -87.983727     -2394.1589 
   3   2.0000     -87.974867     -2393.9178 
   4   2.0000     -76.420109     -2079.4969 
   5   2.0000     -76.419957     -2079.4927 
   6   2.0000     -18.789397      -511.2855 
   7   2.0000     -18.788979      -511.2741 
   8   2.0000     -18.782706      -511.1034 
   9   2.0000     -18.781049      -511.0583 
  10   2.0000      -9.955238      -270.8958 
  11   2.0000      -9.953121      -270.8382 
  12   2.0000      -9.952086      -270.8100 
  13   2.0000      -9.946751      -270.6649 
  14   2.0000      -9.943253      -270.5697 
  15   2.0000      -9.887944      -269.0646 
  16   2.0000      -9.885273      -268.9919 
  17   2.0000      -9.884783      -268.9786 
  18   2.0000      -9.876529      -268.7540 
  19   2.0000      -7.685409      -209.1306 
  20   2.0000      -7.681600      -209.0270 
  21   2.0000      -7.628638      -207.5858 
  22   2.0000      -7.619919      -207.3485 
  23   2.0000      -6.417664      -174.6335 
  24   2.0000      -6.417573      -174.6310 
  25   2.0000      -5.713043      -155.4598 
  26   2.0000      -5.709808      -155.3718 
  27   2.0000      -5.709459      -155.3623 
  28   2.0000      -5.706205      -155.2737 
  29   2.0000      -5.702715      -155.1788 
  30   2.0000      -5.698435      -155.0623 
  31   2.0000      -5.657340      -153.9441 
  32   2.0000      -5.649754      -153.7376 
  33   2.0000      -5.648925      -153.7151 
  34   2.0000      -5.648479      -153.7029 
  35   2.0000      -5.640506      -153.4860 
  36   2.0000      -5.640000      -153.4722 
  37   2.0000      -4.640657      -126.2787 
  38   2.0000      -4.639747      -126.2539 
  39   2.0000      -4.639603      -126.2500 
  40   2.0000      -4.639239      -126.2401 
  41   2.0000      -4.638481      -126.2195 
  42   2.0000      -4.637529      -126.1936 
  43   2.0000      -0.985902       -26.8278 
  44   2.0000      -0.979483       -26.6531 
  45   2.0000      -0.942625       -25.6501 
  46   2.0000      -0.936699       -25.4889 
  47   2.0000      -0.757492       -20.6124 
  48   2.0000      -0.719047       -19.5663 
  49   2.0000      -0.708563       -19.2810 
  50   2.0000      -0.690557       -18.7910 
  51   2.0000      -0.682459       -18.5707 
  52   2.0000      -0.670353       -18.2412 
  53   2.0000      -0.645411       -17.5625 
  54   2.0000      -0.630460       -17.1557 
  55   2.0000      -0.595081       -16.1930 
  56   2.0000      -0.579512       -15.7693 
  57   2.0000      -0.569471       -15.4961 
  58   2.0000      -0.562951       -15.3187 
  59   2.0000      -0.557153       -15.1609 
  60   2.0000      -0.509352       -13.8602 
  61   2.0000      -0.496693       -13.5157 
  62   2.0000      -0.481326       -13.0975 
  63   2.0000      -0.468981       -12.7616 
  64   2.0000      -0.454802       -12.3758 
  65   2.0000      -0.443389       -12.0652 
  66   2.0000      -0.436847       -11.8872 
  67   2.0000      -0.430793       -11.7225 
  68   2.0000      -0.427327       -11.6282 
  69   2.0000      -0.415925       -11.3179 
  70   2.0000      -0.403530       -10.9806 
  71   2.0000      -0.391456       -10.6520 
  72   2.0000      -0.389927       -10.6105 
  73   2.0000      -0.379760       -10.3338 
  74   2.0000      -0.375802       -10.2261 
  75   2.0000      -0.368502       -10.0274 
  76   2.0000      -0.362347        -9.8600 
  77   2.0000      -0.354429        -9.6445 
  78   2.0000      -0.353183        -9.6106 
  79   2.0000      -0.348148        -9.4736 
  80   2.0000      -0.345176        -9.3927 
  81   2.0000      -0.340248        -9.2586 
  82   2.0000      -0.337951        -9.1961 
  83   2.0000      -0.335123        -9.1192 
  84   2.0000      -0.329963        -8.9788 
  85   2.0000      -0.313310        -8.5256 
  86   2.0000      -0.306732        -8.3466 
  87   2.0000      -0.299207        -8.1418 
  88   2.0000      -0.296553        -8.0696 
  89   2.0000      -0.294746        -8.0204 
  90   2.0000      -0.278995        -7.5918 
  91   2.0000      -0.269747        -7.3402 
  92   2.0000      -0.267230        -7.2717 
  93   2.0000      -0.257878        -7.0172 
  94   2.0000      -0.253008        -6.8847 
  95   2.0000      -0.236458        -6.4343 
  96   2.0000      -0.219364        -5.9692 
  97   2.0000      -0.205877        -5.6022 
  98   2.0000      -0.202524        -5.5110 
  99   2.0000      -0.186203        -5.0668 
 100   2.0000      -0.183377        -4.9899 
 101   0.0000      -0.035163        -0.9568 
 102   0.0000      -0.027095        -0.7373 
 103   0.0000      -0.008817        -0.2399 
 104   0.0000       0.006333         0.1723 
 105   0.0000       0.026320         0.7162 
 106   0.0000       0.031494         0.8570 
 107   0.0000       0.036203         0.9851 
 108   0.0000       0.042509         1.1567 
 109   0.0000       0.048001         1.3062 
 110   0.0000       0.050704         1.3797 
 111   0.0000       0.053283         1.4499 
*Only the first 10 virtual orbitals were printed.

                    ********************************
                    * MULLIKEN POPULATION ANALYSIS *
                    ********************************

-----------------------
MULLIKEN ATOMIC CHARGES
-----------------------
   0 C :   -0.279227
   1 C :   -0.005540
   2 O :   -0.373968
   3 P :    0.616806
   4 S :   -0.322560
   5 O :   -0.360035
   6 C :   -0.005529
   7 C :   -0.303639
   8 S :   -0.071196
   9 C :   -0.365541
  10 S :   -0.115136
  11 P :    0.599931
  12 S :   -0.304105
  13 O :   -0.387853
  14 C :   -0.013113
  15 C :   -0.280821
  16 O :   -0.348364
  17 C :   -0.013903
  18 C :   -0.284428
  19 H :    0.117147
  20 H :    0.108614
  21 H :    0.118063
  22 H :    0.090616
  23 H :    0.096975
  24 H :    0.124721
  25 H :    0.105967
  26 H :    0.122831
  27 H :    0.109899
  28 H :    0.115001
  29 H :    0.179883
  30 H :    0.200641
  31 H :    0.104622
  32 H :    0.107962
  33 H :    0.112630
  34 H :    0.121999
  35 H :    0.113776
  36 H :    0.099324
  37 H :    0.108527
  38 H :    0.124091
  39 H :    0.127148
  40 H :    0.107781
Sum of atomic charges:   -0.0000000

--------------------------------
MULLIKEN REDUCED ORBITAL CHARGES
--------------------------------
  0 C s       :     3.089888  s :     3.089888
      pz      :     1.066257  p :     3.161458
      px      :     1.011863
      py      :     1.083338
      dz2     :     0.005003  d :     0.027881
      dxz     :     0.005124
      dyz     :     0.005751
      dx2y2   :     0.006153
      dxy     :     0.005849

  1 C s       :     3.064660  s :     3.064660
      pz      :     0.830397  p :     2.880749
      px      :     1.071558
      py      :     0.978794
      dz2     :     0.014696  d :     0.060130
      dxz     :     0.012290
      dyz     :     0.014103
      dx2y2   :     0.009527
      dxy     :     0.009514

  2 O s       :     3.768358  s :     3.768358
      pz      :     1.475067  p :     4.592659
      px      :     1.474452
      py      :     1.643140
      dz2     :     0.003074  d :     0.012951
      dxz     :     0.002342
      dyz     :     0.002291
      dx2y2   :     0.003089
      dxy     :     0.002156

  3 P s       :     5.204941  s :     5.204941
      pz      :     2.831033  p :     8.592776
      px      :     2.842065
      py      :     2.919677
      dz2     :     0.121297  d :     0.585476
      dxz     :     0.127505
      dyz     :     0.112772
      dx2y2   :     0.104811
      dxy     :     0.119091

  4 S s       :     5.923793  s :     5.923793
      pz      :     3.332198  p :    10.354694
      px      :     3.555616
      py      :     3.466880
      dz2     :     0.009046  d :     0.044073
      dxz     :     0.011332
      dyz     :     0.011565
      dx2y2   :     0.005098
      dxy     :     0.007033

  5 O s       :     3.748164  s :     3.748164
      pz      :     1.518345  p :     4.598562
      px      :     1.753080
      py      :     1.327137
      dz2     :     0.003868  d :     0.013309
      dxz     :     0.002049
      dyz     :     0.003364
      dx2y2   :     0.002261
      dxy     :     0.001768

  6 C s       :     3.085994  s :     3.085994
      pz      :     1.085429  p :     2.858997
      px      :     1.062441
      py      :     0.711128
      dz2     :     0.014279  d :     0.060538
      dxz     :     0.005457
      dyz     :     0.009013
      dx2y2   :     0.016619
      dxy     :     0.015171

  7 C s       :     3.097242  s :     3.097242
      pz      :     1.084843  p :     3.178455
      px      :     1.036427
      py      :     1.057185
      dz2     :     0.009391  d :     0.027942
      dxz     :     0.004682
      dyz     :     0.001990
      dx2y2   :     0.007103
      dxy     :     0.004775

  8 S s       :     5.880739  s :     5.880739
      pz      :     3.504626  p :    10.118312
      px      :     3.229145
      py      :     3.384541
      dz2     :     0.009553  d :     0.072145
      dxz     :     0.020837
      dyz     :     0.011328
      dx2y2   :     0.017047
      dxy     :     0.013379

  9 C s       :     3.222284  s :     3.222284
      pz      :     1.053721  p :     3.103590
      px      :     0.886479
      py      :     1.163391
      dz2     :     0.004957  d :     0.039667
      dxz     :     0.010218
      dyz     :     0.008175
      dx2y2   :     0.012688
      dxy     :     0.003629

 10 S s       :     5.877885  s :     5.877885
      pz      :     3.678455  p :    10.163036
      px      :     3.230267
      py      :     3.254314
      dz2     :     0.009314  d :     0.074214
      dxz     :     0.015157
      dyz     :     0.008237
      dx2y2   :     0.029848
      dxy     :     0.011658

 11 P s       :     5.218746  s :     5.218746
      pz      :     2.851476  p :     8.586047
      px      :     2.839872
      py      :     2.894699
      dz2     :     0.139542  d :     0.595276
      dxz     :     0.121352
      dyz     :     0.104696
      dx2y2   :     0.140193
      dxy     :     0.089493

 12 S s       :     5.910107  s :     5.910107
      pz      :     3.440068  p :    10.350942
      px      :     3.397822
      py      :     3.513051
      dz2     :     0.005854  d :     0.043056
      dxz     :     0.013189
      dyz     :     0.007297
      dx2y2   :     0.007379
      dxy     :     0.009338

 13 O s       :     3.768077  s :     3.768077
      pz      :     1.410100  p :     4.606867
      px      :     1.449756
      py      :     1.747012
      dz2     :     0.003517  d :     0.012909
      dxz     :     0.002423
      dyz     :     0.002060
      dx2y2   :     0.002833
      dxy     :     0.002076

 14 C s       :     3.074281  s :     3.074281
      pz      :     0.766839  p :     2.878946
      px      :     1.057736
      py      :     1.054372
      dz2     :     0.017151  d :     0.059886
      dxz     :     0.015672
      dyz     :     0.009792
      dx2y2   :     0.011800
      dxy     :     0.005471

 15 C s       :     3.091316  s :     3.091316
      pz      :     1.060344  p :     3.161681
      px      :     1.022764
      py      :     1.078573
      dz2     :     0.006310  d :     0.027823
      dxz     :     0.006351
      dyz     :     0.002401
      dx2y2   :     0.008584
      dxy     :     0.004177

 16 O s       :     3.762349  s :     3.762349
      pz      :     1.309952  p :     4.572579
      px      :     1.584805
      py      :     1.677823
      dz2     :     0.003143  d :     0.013435
      dxz     :     0.002728
      dyz     :     0.003366
      dx2y2   :     0.001960
      dxy     :     0.002239

 17 C s       :     3.079571  s :     3.079571
      pz      :     0.893477  p :     2.875442
      px      :     0.923733
      py      :     1.058232
      dz2     :     0.014305  d :     0.058890
      dxz     :     0.015515
      dyz     :     0.008296
      dx2y2   :     0.010204
      dxy     :     0.010571

 18 C s       :     3.092641  s :     3.092641
      pz      :     1.004012  p :     3.164036
      px      :     1.060028
      py      :     1.099995
      dz2     :     0.005912  d :     0.027752
      dxz     :     0.007113
      dyz     :     0.003517
      dx2y2   :     0.005522
      dxy     :     0.005688

 19 H s       :     0.882853  s :     0.882853

 20 H s       :     0.891386  s :     0.891386

 21 H s       :     0.881937  s :     0.881937

 22 H s       :     0.909384  s :     0.909384

 23 H s       :     0.903025  s :     0.903025

 24 H s       :     0.875279  s :     0.875279

 25 H s       :     0.894033  s :     0.894033

 26 H s       :     0.877169  s :     0.877169

 27 H s       :     0.890101  s :     0.890101

 28 H s       :     0.884999  s :     0.884999

 29 H s       :     0.820117  s :     0.820117

 30 H s       :     0.799359  s :     0.799359

 31 H s       :     0.895378  s :     0.895378

 32 H s       :     0.892038  s :     0.892038

 33 H s       :     0.887370  s :     0.887370

 34 H s       :     0.878001  s :     0.878001

 35 H s       :     0.886224  s :     0.886224

 36 H s       :     0.900676  s :     0.900676

 37 H s       :     0.891473  s :     0.891473

 38 H s       :     0.875909  s :     0.875909

 39 H s       :     0.872852  s :     0.872852

 40 H s       :     0.892219  s :     0.892219


------------------------
MULLIKEN OVERLAP CHARGES
------------------------
B(  0-C ,  1-C ) :   0.8699 B(  0-C ,  2-O ) :  -0.1153 B(  0-C , 19-H ) :   0.7401 
B(  0-C , 20-H ) :   0.7014 B(  0-C , 21-H ) :   0.7498 B(  1-C ,  2-O ) :   0.5745 
B(  1-C ,  3-P ) :  -0.0913 B(  1-C , 22-H ) :   0.7072 B(  1-C , 23-H ) :   0.6925 
B(  2-O ,  3-P ) :   0.6179 B(  2-O ,  4-S ) :  -0.0766 B(  2-O ,  5-O ) :  -0.0699 
B(  2-O ,  8-S ) :  -0.0708 B(  2-O , 22-H ) :  -0.0697 B(  2-O , 23-H ) :  -0.0739 
B(  3-P ,  4-S ) :   0.9362 B(  3-P ,  5-O ) :   0.7014 B(  3-P ,  6-C ) :  -0.0988 
B(  3-P ,  8-S ) :   0.4889 B(  3-P ,  9-C ) :  -0.0542 B(  4-S ,  5-O ) :  -0.0576 
B(  4-S ,  8-S ) :  -0.0870 B(  4-S ,  9-C ) :  -0.0610 B(  4-S , 23-H ) :   0.0753 
B(  4-S , 30-H ) :   0.1257 B(  5-O ,  6-C ) :   0.5582 B(  5-O ,  7-C ) :  -0.0895 
B(  5-O ,  8-S ) :  -0.0591 B(  5-O , 24-H ) :  -0.0646 B(  5-O , 25-H ) :  -0.0583 
B(  6-C ,  7-C ) :   0.9093 B(  6-C , 24-H ) :   0.7283 B(  6-C , 25-H ) :   0.7334 
B(  7-C , 24-H ) :  -0.0729 B(  7-C , 25-H ) :  -0.0502 B(  7-C , 26-H ) :   0.7249 
B(  7-C , 27-H ) :   0.6996 B(  7-C , 28-H ) :   0.7256 B(  8-S ,  9-C ) :   0.4905 
B(  8-S , 10-S ) :  -0.1503 B(  8-S , 29-H ) :  -0.0596 B(  8-S , 30-H ) :  -0.0647 
B(  9-C , 10-S ) :   0.4364 B(  9-C , 11-P ) :  -0.0543 B(  9-C , 29-H ) :   0.7190 
B(  9-C , 30-H ) :   0.6048 B( 10-S , 11-P ) :   0.5620 B( 10-S , 12-S ) :  -0.0800 
B( 10-S , 13-O ) :  -0.0770 B( 10-S , 16-O ) :  -0.0717 B( 10-S , 29-H ) :  -0.0674 
B( 10-S , 36-H ) :   0.0642 B( 11-P , 12-S ) :   0.9724 B( 11-P , 13-O ) :   0.6027 
B( 11-P , 14-C ) :  -0.0809 B( 11-P , 16-O ) :   0.6248 B( 11-P , 17-C ) :  -0.0575 
B( 12-S , 13-O ) :  -0.0699 B( 12-S , 16-O ) :  -0.0637 B( 12-S , 32-H ) :   0.0687 
B( 13-O , 14-C ) :   0.5557 B( 13-O , 15-C ) :  -0.1169 B( 13-O , 16-O ) :  -0.0530 
B( 13-O , 31-H ) :  -0.0647 B( 13-O , 32-H ) :  -0.0725 B( 14-C , 15-C ) :   0.8565 
B( 14-C , 31-H ) :   0.7356 B( 14-C , 32-H ) :   0.6950 B( 15-C , 31-H ) :  -0.0552 
B( 15-C , 33-H ) :   0.7000 B( 15-C , 34-H ) :   0.7415 B( 15-C , 35-H ) :   0.7405 
B( 16-O , 17-C ) :   0.5210 B( 16-O , 18-C ) :  -0.1094 B( 16-O , 36-H ) :  -0.0651 
B( 16-O , 37-H ) :  -0.0582 B( 17-C , 18-C ) :   0.8545 B( 17-C , 36-H ) :   0.6981 
B( 17-C , 37-H ) :   0.7388 B( 18-C , 36-H ) :  -0.0546 B( 18-C , 37-H ) :  -0.0554 
B( 18-C , 38-H ) :   0.7431 B( 18-C , 39-H ) :   0.7542 B( 18-C , 40-H ) :   0.6985 
B( 19-H , 21-H ) :  -0.0547 B( 22-H , 23-H ) :  -0.0810 B( 24-H , 25-H ) :  -0.0637 
B( 26-H , 28-H ) :  -0.0533 B( 31-H , 32-H ) :  -0.0753 B( 34-H , 35-H ) :  -0.0545 
B( 36-H , 37-H ) :  -0.0737 


                     *******************************
                     * LOEWDIN POPULATION ANALYSIS *
                     *******************************

----------------------
LOEWDIN ATOMIC CHARGES
----------------------
   0 C :   -0.350162
   1 C :   -0.124877
   2 O :   -0.251982
   3 P :    0.574147
   4 S :   -0.304283
   5 O :   -0.229450
   6 C :   -0.115187
   7 C :   -0.365832
   8 S :    0.084435
   9 C :   -0.484170
  10 S :    0.059905
  11 P :    0.561479
  12 S :   -0.302274
  13 O :   -0.253886
  14 C :   -0.119533
  15 C :   -0.350652
  16 O :   -0.227830
  17 C :   -0.115018
  18 C :   -0.351553
  19 H :    0.127215
  20 H :    0.129030
  21 H :    0.127386
  22 H :    0.103319
  23 H :    0.103633
  24 H :    0.112895
  25 H :    0.120268
  26 H :    0.121467
  27 H :    0.129705
  28 H :    0.125509
  29 H :    0.135389
  30 H :    0.118948
  31 H :    0.109033
  32 H :    0.110581
  33 H :    0.131183
  34 H :    0.129758
  35 H :    0.125552
  36 H :    0.101637
  37 H :    0.116906
  38 H :    0.131416
  39 H :    0.127287
  40 H :    0.128608

-------------------------------
LOEWDIN REDUCED ORBITAL CHARGES
-------------------------------
  0 C s       :     2.950227  s :     2.950227
      pz      :     1.124665  p :     3.330728
      px      :     1.073050
      py      :     1.133013
      dz2     :     0.012825  d :     0.069208
      dxz     :     0.012264
      dyz     :     0.013915
      dx2y2   :     0.017355
      dxy     :     0.012848

  1 C s       :     2.929637  s :     2.929637
      pz      :     0.910803  p :     3.061500
      px      :     1.105906
      py      :     1.044792
      dz2     :     0.033613  d :     0.133740
      dxz     :     0.025519
      dyz     :     0.030754
      dx2y2   :     0.024936
      dxy     :     0.018917

  2 O s       :     3.508087  s :     3.508087
      pz      :     1.520694  p :     4.720097
      px      :     1.537474
      py      :     1.661929
      dz2     :     0.005971  d :     0.023798
      dxz     :     0.003951
      dyz     :     0.004407
      dx2y2   :     0.005816
      dxy     :     0.003654

  3 P s       :     5.057111  s :     5.057111
      pz      :     2.838877  p :     8.558561
      px      :     2.833918
      py      :     2.885766
      dz2     :     0.167572  d :     0.810181
      dxz     :     0.173067
      dyz     :     0.161326
      dx2y2   :     0.144889
      dxy     :     0.163328

  4 S s       :     5.765056  s :     5.765056
      pz      :     3.393351  p :    10.480461
      px      :     3.574973
      py      :     3.512137
      dz2     :     0.010801  d :     0.058766
      dxz     :     0.016033
      dyz     :     0.017036
      dx2y2   :     0.005707
      dxy     :     0.009188

  5 O s       :     3.490230  s :     3.490230
      pz      :     1.579662  p :     4.715197
      px      :     1.749005
      py      :     1.386531
      dz2     :     0.007125  d :     0.024023
      dxz     :     0.002787
      dyz     :     0.006394
      dx2y2   :     0.004397
      dxy     :     0.003319

  6 C s       :     2.927610  s :     2.927610
      pz      :     1.129641  p :     3.053164
      px      :     1.116903
      py      :     0.806621
      dz2     :     0.032015  d :     0.134412
      dxz     :     0.013517
      dyz     :     0.018264
      dx2y2   :     0.037197
      dxy     :     0.033419

  7 C s       :     2.952745  s :     2.952745
      pz      :     1.128662  p :     3.343765
      px      :     1.095010
      py      :     1.120094
      dz2     :     0.022156  d :     0.069322
      dxz     :     0.012387
      dyz     :     0.004696
      dx2y2   :     0.017819
      dxy     :     0.012264

  8 S s       :     5.647841  s :     5.647841
      pz      :     3.527779  p :    10.176423
      px      :     3.256361
      py      :     3.392283
      dz2     :     0.011214  d :     0.091301
      dxz     :     0.027100
      dyz     :     0.013388
      dx2y2   :     0.022434
      dxy     :     0.017165

  9 C s       :     3.064606  s :     3.064606
      pz      :     1.113949  p :     3.332171
      px      :     1.021777
      py      :     1.196445
      dz2     :     0.009401  d :     0.087393
      dxz     :     0.023603
      dyz     :     0.019021
      dx2y2   :     0.028890
      dxy     :     0.006478

 10 S s       :     5.641296  s :     5.641296
      pz      :     3.665052  p :    10.204516
      px      :     3.273075
      py      :     3.266390
      dz2     :     0.011877  d :     0.094283
      dxz     :     0.019416
      dyz     :     0.009617
      dx2y2   :     0.039714
      dxy     :     0.013660

 11 P s       :     5.054876  s :     5.054876
      pz      :     2.816377  p :     8.555031
      px      :     2.835992
      py      :     2.902663
      dz2     :     0.194875  d :     0.828614
      dxz     :     0.162523
      dyz     :     0.146443
      dx2y2   :     0.206650
      dxy     :     0.118124

 12 S s       :     5.763824  s :     5.763824
      pz      :     3.483904  p :    10.480400
      px      :     3.435004
      py      :     3.561492
      dz2     :     0.006394  d :     0.058051
      dxz     :     0.019124
      dyz     :     0.010423
      dx2y2   :     0.008445
      dxy     :     0.013664

 13 O s       :     3.503926  s :     3.503926
      pz      :     1.457578  p :     4.726368
      px      :     1.519376
      py      :     1.749415
      dz2     :     0.007057  d :     0.023593
      dxz     :     0.004708
      dyz     :     0.003530
      dx2y2   :     0.005515
      dxy     :     0.002782

 14 C s       :     2.930059  s :     2.930059
      pz      :     0.853687  p :     3.056024
      px      :     1.098572
      py      :     1.103765
      dz2     :     0.038809  d :     0.133451
      dxz     :     0.033803
      dyz     :     0.020747
      dx2y2   :     0.027786
      dxy     :     0.012307

 15 C s       :     2.950547  s :     2.950547
      pz      :     1.122018  p :     3.331018
      px      :     1.081707
      py      :     1.127293
      dz2     :     0.015962  d :     0.069087
      dxz     :     0.015861
      dyz     :     0.005517
      dx2y2   :     0.021118
      dxy     :     0.010628

 16 O s       :     3.503527  s :     3.503527
      pz      :     1.386224  p :     4.700239
      px      :     1.609453
      py      :     1.704562
      dz2     :     0.006461  d :     0.024064
      dxz     :     0.005188
      dyz     :     0.006576
      dx2y2   :     0.002829
      dxy     :     0.003010

 17 C s       :     2.932170  s :     2.932170
      pz      :     0.956268  p :     3.052196
      px      :     0.978769
      py      :     1.117159
      dz2     :     0.033337  d :     0.130652
      dxz     :     0.034784
      dyz     :     0.015892
      dx2y2   :     0.022971
      dxy     :     0.023668

 18 C s       :     2.949661  s :     2.949661
      pz      :     1.072663  p :     3.332891
      px      :     1.120557
      py      :     1.139671
      dz2     :     0.016498  d :     0.069001
      dxz     :     0.018263
      dyz     :     0.007467
      dx2y2   :     0.013172
      dxy     :     0.013600

 19 H s       :     0.872785  s :     0.872785

 20 H s       :     0.870970  s :     0.870970

 21 H s       :     0.872614  s :     0.872614

 22 H s       :     0.896681  s :     0.896681

 23 H s       :     0.896367  s :     0.896367

 24 H s       :     0.887105  s :     0.887105

 25 H s       :     0.879732  s :     0.879732

 26 H s       :     0.878533  s :     0.878533

 27 H s       :     0.870295  s :     0.870295

 28 H s       :     0.874491  s :     0.874491

 29 H s       :     0.864611  s :     0.864611

 30 H s       :     0.881052  s :     0.881052

 31 H s       :     0.890967  s :     0.890967

 32 H s       :     0.889419  s :     0.889419

 33 H s       :     0.868817  s :     0.868817

 34 H s       :     0.870242  s :     0.870242

 35 H s       :     0.874448  s :     0.874448

 36 H s       :     0.898363  s :     0.898363

 37 H s       :     0.883094  s :     0.883094

 38 H s       :     0.868584  s :     0.868584

 39 H s       :     0.872713  s :     0.872713

 40 H s       :     0.871392  s :     0.871392


---------------------------------
LOEWDIN BOND ORDERS (THRESH 0.050000)
---------------------------------
B(  0-C ,  1-C ) :   1.1553 B(  0-C ,  2-O ) :   0.0584 B(  0-C , 19-H ) :   0.9370 
B(  0-C , 20-H ) :   0.9299 B(  0-C , 21-H ) :   0.9375 B(  1-C ,  2-O ) :   1.0880 
B(  1-C ,  3-P ) :   0.0669 B(  1-C , 22-H ) :   0.9136 B(  1-C , 23-H ) :   0.9063 
B(  2-O ,  3-P ) :   1.2526 B(  2-O ,  4-S ) :   0.0891 B(  2-O ,  5-O ) :   0.0517 
B(  2-O ,  8-S ) :   0.0660 B(  3-P ,  4-S ) :   1.6850 B(  3-P ,  5-O ) :   1.3108 
B(  3-P ,  6-C ) :   0.0660 B(  3-P ,  8-S ) :   1.0685 B(  4-S ,  5-O ) :   0.0869 
B(  4-S ,  8-S ) :   0.1332 B(  4-S , 30-H ) :   0.0813 B(  5-O ,  6-C ) :   1.0785 
B(  5-O ,  7-C ) :   0.0593 B(  6-C ,  7-C ) :   1.1584 B(  6-C , 24-H ) :   0.9071 
B(  6-C , 25-H ) :   0.9172 B(  7-C , 26-H ) :   0.9279 B(  7-C , 27-H ) :   0.9259 
B(  7-C , 28-H ) :   0.9359 B(  8-S ,  9-C ) :   1.1650 B(  8-S , 10-S ) :   0.0984 
B(  9-C , 10-S ) :   1.1757 B(  9-C , 29-H ) :   0.9260 B(  9-C , 30-H ) :   0.8904 
B( 10-S , 11-P ) :   1.0281 B( 10-S , 12-S ) :   0.1234 B( 10-S , 13-O ) :   0.0614 
B( 10-S , 16-O ) :   0.0729 B( 11-P , 12-S ) :   1.7789 B( 11-P , 13-O ) :   1.2613 
B( 11-P , 14-C ) :   0.0664 B( 11-P , 16-O ) :   1.3202 B( 11-P , 17-C ) :   0.0655 
B( 12-S , 13-O ) :   0.0883 B( 12-S , 16-O ) :   0.0744 B( 13-O , 14-C ) :   1.0805 
B( 13-O , 15-C ) :   0.0587 B( 14-C , 15-C ) :   1.1563 B( 14-C , 31-H ) :   0.9174 
B( 14-C , 32-H ) :   0.9056 B( 15-C , 33-H ) :   0.9290 B( 15-C , 34-H ) :   0.9366 
B( 15-C , 35-H ) :   0.9374 B( 16-O , 17-C ) :   1.0616 B( 16-O , 18-C ) :   0.0579 
B( 17-C , 18-C ) :   1.1584 B( 17-C , 36-H ) :   0.9071 B( 17-C , 37-H ) :   0.9182 
B( 18-C , 38-H ) :   0.9356 B( 18-C , 39-H ) :   0.9342 B( 18-C , 40-H ) :   0.9283 


------------------------------------------
LOEWDIN REDUCED ORBITAL POPULATIONS PER MO
-------------------------------------------
THRESHOLD FOR PRINTING IS 0.1%%
                      0         1         2         3         4         5   
                 -88.04021 -88.03617 -87.98373 -87.97487 -76.42011 -76.41996
                   2.00000   2.00000   2.00000   2.00000   2.00000   2.00000
                  --------  --------  --------  --------  --------  --------
 3 P  s               0.0       0.0       0.0       0.0     100.0       0.0
 4 S  s               0.0       0.0     100.0       0.0       0.0       0.0
 8 S  s               0.0     100.0       0.0       0.0       0.0       0.0
10 S  s             100.0       0.0       0.0       0.0       0.0       0.0
11 P  s               0.0       0.0       0.0       0.0       0.0     100.0
12 S  s               0.0       0.0       0.0     100.0       0.0       0.0

                      6         7         8         9        10        11   
                 -18.78940 -18.78898 -18.78271 -18.78105  -9.95524  -9.95312
                   2.00000   2.00000   2.00000   2.00000   2.00000   2.00000
                  --------  --------  --------  --------  --------  --------
 2 O  s               0.0       0.0       0.0      99.9       0.0       0.0
 5 O  s               0.0       0.0      99.9       0.0       0.0       0.0
 9 C  s               0.0       0.0       0.0       0.0      99.8       0.0
13 O  s              99.2       0.7       0.0       0.0       0.0       0.0
16 O  s               0.7      99.2       0.0       0.0       0.0       0.0
17 C  s               0.0       0.0       0.0       0.0       0.0      99.7

                     12        13        14        15        16        17   
                  -9.95209  -9.94675  -9.94325  -9.88794  -9.88527  -9.88478
                   2.00000   2.00000   2.00000   2.00000   2.00000   2.00000
                  --------  --------  --------  --------  --------  --------
 0 C  s               0.0       0.0       0.0       0.0       0.0      99.7
 0 C  px              0.0       0.1       0.0       0.0       0.0       0.0
 1 C  s               0.0      99.7       0.0       0.0       0.0       0.0
 1 C  px              0.0       0.0       0.0       0.0       0.0       0.1
 6 C  s               0.0       0.0      99.7       0.0       0.0       0.0
14 C  s              99.6       0.0       0.0       0.0       0.0       0.0
15 C  s               0.0       0.0       0.0      99.7       0.0       0.0
18 C  s               0.0       0.0       0.0       0.0      99.7       0.0

                     18        19        20        21        22        23   
                  -9.87653  -7.68541  -7.68160  -7.62864  -7.61992  -6.41766
                   2.00000   2.00000   2.00000   2.00000   2.00000   2.00000
                  --------  --------  --------  --------  --------  --------
 3 P  s               0.0       0.0       0.0       0.0       0.0       0.2
 4 S  s               0.0       0.0       0.0      99.9       0.0       0.0
 7 C  s              99.7       0.0       0.0       0.0       0.0       0.0
 8 S  s               0.0       0.0      99.7       0.0       0.0       0.0
 9 C  px              0.0       0.1       0.1       0.0       0.0       0.0
10 S  s               0.0      99.7       0.0       0.0       0.0       0.0
11 P  s               0.0       0.0       0.0       0.0       0.0      99.1
12 S  s               0.0       0.0       0.0       0.0      99.9       0.0
13 O  px              0.0       0.0       0.0       0.0       0.0       0.2
16 O  pz              0.0       0.0       0.0       0.0       0.0       0.2

                     24        25        26        27        28        29   
                  -6.41757  -5.71304  -5.70981  -5.70946  -5.70621  -5.70272
                   2.00000   2.00000   2.00000   2.00000   2.00000   2.00000
                  --------  --------  --------  --------  --------  --------
 2 O  px              0.2       0.0       0.0       0.0       0.0       0.0
 3 P  s              99.2       0.0       0.0       0.0       0.0       0.0
 5 O  pz              0.2       0.0       0.0       0.0       0.0       0.0
 8 S  pz              0.0       0.0       0.0       3.5      52.8       0.0
 8 S  px              0.0       0.0       0.0      62.2       8.4       0.0
 8 S  py              0.0       0.0       0.0      34.2      38.8       0.0
10 S  pz              0.0      14.2       5.1       0.0       0.0      80.7
10 S  px              0.0      42.6      38.8       0.0       0.0      18.5
10 S  py              0.0      43.2      56.0       0.0       0.0       0.8
11 P  s               0.2       0.0       0.0       0.0       0.0       0.0

                     30        31        32        33        34        35   
                  -5.69844  -5.65734  -5.64975  -5.64892  -5.64848  -5.64051
                   2.00000   2.00000   2.00000   2.00000   2.00000   2.00000
                  --------  --------  --------  --------  --------  --------
 4 S  pz              0.0      54.8      10.5       0.0      34.7       0.0
 4 S  px              0.0      16.3      23.8       0.0      60.0       0.0
 4 S  py              0.0      28.9      65.8       0.0       5.3       0.0
 8 S  pz             43.7       0.0       0.0       0.0       0.0       0.0
 8 S  px             29.4       0.0       0.0       0.0       0.0       0.0
 8 S  py             26.9       0.0       0.0       0.0       0.0       0.0
12 S  pz              0.0       0.0       0.0      35.3       0.0      41.5
12 S  px              0.0       0.0       0.0      38.9       0.0      55.8
12 S  py              0.0       0.0       0.0      25.7       0.0       2.7

                     36        37        38        39        40        41   
                  -5.64000  -4.64066  -4.63975  -4.63960  -4.63924  -4.63848
                   2.00000   2.00000   2.00000   2.00000   2.00000   2.00000
                  --------  --------  --------  --------  --------  --------
 3 P  pz              0.0       0.0      71.6       0.0       5.2      23.2
 3 P  px              0.0       0.0      11.4       0.0      86.1       2.4
 3 P  py              0.0       0.0      16.9       0.0       8.6      74.4
11 P  pz              0.0      57.1       0.0       1.9       0.0       0.0
11 P  px              0.0      27.2       0.0      51.2       0.0       0.0
11 P  py              0.0      15.6       0.0      46.9       0.0       0.0
12 S  pz             23.2       0.0       0.0       0.0       0.0       0.0
12 S  px              5.2       0.0       0.0       0.0       0.0       0.0
12 S  py             71.5       0.0       0.0       0.0       0.0       0.0

                     42        43        44        45        46        47   
                  -4.63753  -0.98590  -0.97948  -0.94262  -0.93670  -0.75749
                   2.00000   2.00000   2.00000   2.00000   2.00000   2.00000
                  --------  --------  --------  --------  --------  --------
 0 C  s               0.0       0.0       0.2       0.0       0.4       0.2
 0 C  pz              0.0       0.0       0.1       0.0       0.1       0.0
 0 C  px              0.0       0.0       0.3       0.0       0.5       0.0
 1 C  s               0.0       0.0       3.0       0.0       5.2       0.4
 1 C  pz              0.0       0.0       2.2       0.0       3.1       0.0
 1 C  px              0.0       0.0       0.2       0.0       0.1       0.0
 1 C  py              0.0       0.0       0.9       0.0       1.2       0.0
 1 C  dz2             0.0       0.0       0.1       0.0       0.1       0.0
 1 C  dyz             0.0       0.0       0.2       0.0       0.2       0.0
 2 O  s               0.0       0.0      26.1       0.0      32.7       0.2
 2 O  pz              0.0       0.0       0.1       0.0       0.9       0.2
 2 O  px              0.0       0.0       1.4       0.0       0.4       0.2
 2 O  py              0.0       0.0       0.0       0.0       0.2       0.0
 3 P  s               0.0       0.0      14.3       0.0       0.0       2.5
 3 P  pz              0.0       0.0       1.2       0.0       5.5       0.0
 3 P  px              0.0       0.0       3.7       0.0       2.1       1.1
 3 P  py              0.0       0.0       0.1       0.0       3.0       1.0
 3 P  dz2             0.0       0.0       0.1       0.0       1.0       0.0
 3 P  dxz             0.0       0.0       0.0       0.0       0.7       0.0
 3 P  dyz             0.0       0.0       0.7       0.0       0.4       0.1
 3 P  dx2y2           0.0       0.0       0.1       0.0       0.8       0.0
 3 P  dxy             0.0       0.0       0.1       0.0       0.6       0.1
 4 S  s               0.0       0.0       0.3       0.0       0.0       0.6
 4 S  pz              0.0       0.0       0.2       0.0       0.0       0.1
 4 S  px              0.0       0.0       0.1       0.0       0.0       0.0
 5 O  s               0.0       0.0      30.8       0.0      27.9       0.1
 5 O  pz              0.0       0.0       1.8       0.0       0.4       0.1
 5 O  py              0.0       0.0       0.0       0.0       0.6       0.5
 6 C  s               0.0       0.0       3.6       0.0       4.1       0.4
 6 C  py              0.0       0.0       3.9       0.0       3.5       0.0
 6 C  dx2y2           0.0       0.0       0.2       0.0       0.2       0.0
 7 C  s               0.0       0.0       0.3       0.0       0.3       0.1
 7 C  px              0.0       0.0       0.3       0.0       0.3       0.0
 7 C  py              0.0       0.0       0.2       0.0       0.1       0.0
 8 S  s               0.0       0.0       0.3       0.0       0.0      17.6
 8 S  pz              0.0       0.0       0.0       0.0       0.0       1.3
 8 S  px              0.0       0.0       0.1       0.0       0.0       1.2
 8 S  py              0.0       0.0       0.3       0.0       0.0       0.2
 8 S  dxz             0.0       0.0       0.0       0.0       0.0       0.2
 9 C  s               0.0       0.0       0.0       0.0       0.0      27.1
 9 C  pz              0.0       0.0       0.0       0.0       0.0       2.0
10 S  s               0.0       0.3       0.0       0.0       0.0      19.3
10 S  pz              0.0       0.0       0.0       0.0       0.0       0.4
10 S  px              0.0       0.0       0.0       0.0       0.0       2.2
10 S  py              0.0       0.4       0.0       0.0       0.0       0.2
10 S  dxz             0.0       0.0       0.0       0.0       0.0       0.2
11 P  s               0.0      14.3       0.0       0.0       0.0       2.4
11 P  pz             40.9       1.1       0.0       7.5       0.0       0.0
11 P  px             21.5       3.3       0.0       3.1       0.0       0.4
11 P  py             37.5       0.5       0.0       0.5       0.0       1.6
11 P  dz2             0.0       0.2       0.0       1.4       0.0       0.1
11 P  dxz             0.0       0.2       0.0       0.6       0.0       0.0
11 P  dyz             0.0       0.3       0.0       0.5       0.0       0.0
[...]
 1 C  dx2y2           0.0       0.2       0.5       0.2
 1 C  dxy             0.0       0.1       0.2       0.1
 2 O  s               0.0       0.1       0.2       0.0
 2 O  pz              0.0       0.4       1.7       0.7
 2 O  px              0.0       0.3       1.3       0.6
 2 O  py              0.0       0.2       0.9       0.4
 2 O  dz2             0.0       4.9      15.4       6.2
 2 O  dyz             0.1       3.6      11.7       4.0
 2 O  dx2y2           0.0       1.7       9.3       4.3
 2 O  dxy             0.0       0.0       0.5       0.4
 3 P  s               0.0       0.5       0.0       0.0
 3 P  pz              0.0       0.1       1.0       0.6
 3 P  px              0.0       0.3       0.3       0.2
 3 P  py              0.0       0.1       0.6       0.3
 3 P  dz2             0.0       0.1       0.2       0.1
 3 P  dxz             0.0       0.1       0.6       0.3
 3 P  dyz             0.0       0.5       0.1       0.1
 3 P  dx2y2           0.0       0.0       0.1       0.1
 3 P  dxy             0.0       0.0       0.3       0.2
 5 O  s               0.0       2.3       0.3       0.2
 5 O  pz              0.0       0.4       0.6       0.4
 5 O  px              0.0       0.2       0.0       0.0
 5 O  py              0.0       3.8       0.8       0.6
 5 O  dz2             0.1      20.6       7.1       4.5
 5 O  dxz             0.0       0.2       0.3       0.3
 5 O  dyz             0.0       0.0       4.9       2.7
 5 O  dx2y2           0.1      37.1       0.6       0.6
 5 O  dxy             0.0       2.5       0.0       0.0
 6 C  s               0.0       1.7       0.1       0.1
 6 C  px              0.0       0.1       0.0       0.0
 6 C  py              0.0       3.0       0.2       0.2
 6 C  dz2             0.0       2.6       0.2       0.1
 6 C  dyz             0.0       0.1       0.2       0.1
 6 C  dx2y2           0.0       7.7       0.3       0.3
 6 C  dxy             0.0       0.5       0.0       0.0
 7 C  dxy             0.0       0.2       0.0       0.0
11 P  s               0.8       0.0       0.0       0.0
11 P  pz              0.0       0.0       0.7       1.9
11 P  px              0.7       0.0       0.3       0.6
11 P  py              0.0       0.0       0.1       0.1
11 P  dz2             0.0       0.0       0.2       0.6
11 P  dxz             0.0       0.0       0.3       0.6
11 P  dyz             0.0       0.0       0.1       0.2
11 P  dx2y2           0.2       0.0       0.1       0.3
11 P  dxy             0.1       0.0       0.0       0.0
13 O  pz              0.8       0.0       0.9       1.8
13 O  px              0.7       0.0       0.7       1.6
13 O  dz2             6.9       0.1       9.8      18.5
13 O  dxz             0.6       0.1       0.0       0.0
13 O  dyz             1.5       0.0       2.3       4.2
13 O  dx2y2           3.4       0.0       2.5       6.4
13 O  dxy             0.0       0.0       0.5       0.9
14 C  s               0.2       0.0       0.3       0.6
14 C  pz              0.3       0.0       0.5       0.9
14 C  px              0.1       0.0       0.1       0.2
14 C  dz2             0.6       0.0       1.2       2.0
14 C  dxz             0.6       0.0       0.6       1.1
14 C  dyz             0.1       0.0       0.2       0.4
14 C  dxy             0.1       0.0       0.1       0.3
15 C  dxz             0.1       0.0       0.1       0.2
16 O  s               2.7       0.0       0.2       0.6
16 O  pz              2.3       0.0       0.8       2.1
16 O  px              1.2       0.0       0.1       0.2
16 O  dz2             1.1       0.0       2.6       6.7
16 O  dxz            36.5       0.4       1.0       1.9
16 O  dyz             7.6       0.0       3.5       8.9
16 O  dx2y2           7.1       0.0       0.5       1.4
16 O  dxy             6.2       0.0       0.2       0.4
17 C  s               1.4       0.0       0.1       0.2
17 C  pz              1.7       0.0       0.1       0.3
17 C  px              1.1       0.0       0.0       0.1
17 C  py              0.2       0.0       0.0       0.0
17 C  dz2             0.2       0.0       0.1       0.2
17 C  dxz             8.1       0.1       0.4       0.8
17 C  dyz             1.2       0.0       0.1       0.1
17 C  dx2y2           1.0       0.0       0.0       0.0
17 C  dxy             1.0       0.0       0.0       0.0
18 C  pz              0.1       0.0       0.0       0.0
18 C  dz2             0.4       0.0       0.1       0.1


                      *****************************
                      * MAYER POPULATION ANALYSIS *
                      *****************************

  NA   - Mulliken gross atomic population
  ZA   - Total nuclear charge
  QA   - Mulliken gross atomic charge
  VA   - Mayer's total valence
  BVA  - Mayer's bonded valence
  FA   - Mayer's free valence

  ATOM       NA         ZA         QA         VA         BVA        FA
  0 C      6.2792     6.0000    -0.2792     4.0088     4.0088     0.0000
  1 C      6.0055     6.0000    -0.0055     3.9660     3.9660    -0.0000
  2 O      8.3740     8.0000    -0.3740     2.1614     2.1614     0.0000
  3 P     14.3832    15.0000     0.6168     4.9758     4.9758     0.0000
  4 S     16.3226    16.0000    -0.3226     2.1003     2.1003    -0.0000
  5 O      8.3600     8.0000    -0.3600     2.2003     2.2003    -0.0000
  6 C      6.0055     6.0000    -0.0055     3.9852     3.9852    -0.0000
  7 C      6.3036     6.0000    -0.3036     3.9941     3.9941     0.0000
  8 S     16.0712    16.0000    -0.0712     2.2661     2.2661    -0.0000
  9 C      6.3655     6.0000    -0.3655     3.8190     3.8190    -0.0000
 10 S     16.1151    16.0000    -0.1151     2.2686     2.2686     0.0000
 11 P     14.4001    15.0000     0.5999     5.0088     5.0088    -0.0000
 12 S     16.3041    16.0000    -0.3041     2.0603     2.0603     0.0000
 13 O      8.3879     8.0000    -0.3879     2.1466     2.1466     0.0000
 14 C      6.0131     6.0000    -0.0131     3.9701     3.9701     0.0000
 15 C      6.2808     6.0000    -0.2808     4.0016     4.0016     0.0000
 16 O      8.3484     8.0000    -0.3484     2.1760     2.1760     0.0000
 17 C      6.0139     6.0000    -0.0139     3.9851     3.9851    -0.0000
 18 C      6.2844     6.0000    -0.2844     4.0024     4.0024     0.0000
 19 H      0.8829     1.0000     0.1171     0.9588     0.9588    -0.0000
 20 H      0.8914     1.0000     0.1086     0.9546     0.9546     0.0000
 21 H      0.8819     1.0000     0.1181     0.9597     0.9597    -0.0000
 22 H      0.9094     1.0000     0.0906     0.9703     0.9703     0.0000
 23 H      0.9030     1.0000     0.0970     0.9943     0.9943    -0.0000
 24 H      0.8753     1.0000     0.1247     0.9790     0.9790    -0.0000
 25 H      0.8940     1.0000     0.1060     0.9510     0.9510    -0.0000
 26 H      0.8772     1.0000     0.1228     0.9832     0.9832    -0.0000
 27 H      0.8901     1.0000     0.1099     0.9542     0.9542     0.0000
 28 H      0.8850     1.0000     0.1150     0.9602     0.9602     0.0000
 29 H      0.8201     1.0000     0.1799     0.9324     0.9324    -0.0000
 30 H      0.7994     1.0000     0.2006     0.9929     0.9929    -0.0000
 31 H      0.8954     1.0000     0.1046     0.9522     0.9522     0.0000
 32 H      0.8920     1.0000     0.1080     0.9934     0.9934     0.0000
 33 H      0.8874     1.0000     0.1126     0.9545     0.9545    -0.0000
 34 H      0.8780     1.0000     0.1220     0.9599     0.9599     0.0000
 35 H      0.8862     1.0000     0.1138     0.9587     0.9587     0.0000
 36 H      0.9007     1.0000     0.0993     0.9845     0.9845    -0.0000
 37 H      0.8915     1.0000     0.1085     0.9519     0.9519     0.0000
 38 H      0.8759     1.0000     0.1241     0.9583     0.9583    -0.0000
 39 H      0.8729     1.0000     0.1271     0.9673     0.9673    -0.0000
 40 H      0.8922     1.0000     0.1078     0.9532     0.9532    -0.0000

  Mayer bond orders larger than 0.100000
B(  0-C ,  1-C ) :   1.1611 B(  0-C , 19-H ) :   0.9506 B(  0-C , 20-H ) :   0.9425 
B(  0-C , 21-H ) :   0.9522 B(  1-C ,  2-O ) :   0.9165 B(  1-C , 22-H ) :   0.9219 
B(  1-C , 23-H ) :   0.9096 B(  2-O ,  3-P ) :   1.0869 B(  3-P ,  4-S ) :   1.5841 
B(  3-P ,  5-O ) :   1.1580 B(  3-P ,  8-S ) :   0.9546 B(  4-S ,  8-S ) :   0.1183 
B(  4-S , 30-H ) :   0.1119 B(  5-O ,  6-C ) :   0.8953 B(  6-C ,  7-C ) :   1.1633 
B(  6-C , 24-H ) :   0.9148 B(  6-C , 25-H ) :   0.9356 B(  7-C , 26-H ) :   0.9349 
B(  7-C , 27-H ) :   0.9386 B(  7-C , 28-H ) :   0.9451 B(  8-S ,  9-C ) :   1.0067 
B(  9-C , 10-S ) :   0.9951 B(  9-C , 29-H ) :   0.9122 B(  9-C , 30-H ) :   0.8450 
B( 10-S , 11-P ) :   0.9500 B( 10-S , 12-S ) :   0.1108 B( 11-P , 12-S ) :   1.6768 
B( 11-P , 13-O ) :   1.0773 B( 11-P , 16-O ) :   1.1422 B( 13-O , 14-C ) :   0.9067 
B( 14-C , 15-C ) :   1.1603 B( 14-C , 31-H ) :   0.9294 B( 14-C , 32-H ) :   0.9094 
B( 15-C , 33-H ) :   0.9418 B( 15-C , 34-H ) :   0.9509 B( 15-C , 35-H ) :   0.9511 
B( 16-O , 17-C ) :   0.8890 B( 17-C , 18-C ) :   1.1621 B( 17-C , 36-H ) :   0.9095 
B( 17-C , 37-H ) :   0.9320 B( 18-C , 38-H ) :   0.9480 B( 18-C , 39-H ) :   0.9476 
B( 18-C , 40-H ) :   0.9401 

-------
TIMINGS
-------

Total SCF time: 0 days 0 hours 0 min 16 sec 

Total time                  ....      16.196 sec
Sum of individual times     ....      15.666 sec  ( 96.7%)

SCF preparation             ....       0.268 sec  (  1.7%)
Fock matrix formation       ....      14.226 sec  ( 87.8%)
  Startup                   ....       0.062 sec  (  0.4% of F)
  Split-RI-J                ....       8.478 sec  ( 59.6% of F)
  XC integration            ....       5.200 sec  ( 36.6% of F)
    XC Preparation          ....       0.000 sec  (  0.0% of XC)
    Basis function eval.    ....       1.982 sec  ( 38.1% of XC)
    Density eval.           ....       0.984 sec  ( 18.9% of XC)
    XC-Functional eval.     ....       0.404 sec  (  7.8% of XC)
    XC-Potential eval.      ....       1.143 sec  ( 22.0% of XC)
Diagonalization             ....       0.000 sec  (  0.0%)
Density matrix formation    ....       0.218 sec  (  1.3%)
Total Energy calculation    ....       0.030 sec  (  0.2%)
Population analysis         ....       0.216 sec  (  1.3%)
Orbital Transformation      ....       0.094 sec  (  0.6%)
Orbital Orthonormalization  ....       0.000 sec  (  0.0%)
DIIS solution               ....       0.454 sec  (  2.8%)
  MO trafo                  ....       0.000 sec  (  0.0 % of DIIS)
  Orb grad                  ....       0.000 sec  (  0.0 % of DIIS)
  Energy W gradient         ....       0.000 sec  (  0.0 % of DIIS)
  DIIS error                ....       0.021 sec  (  4.7 % of DIIS)
  DIIS work                 ....       0.364 sec  ( 80.1 % of DIIS)
  Form Q                    ....       0.000 sec  (  0.0 % of DIIS)
  Form QpQm                 ....       0.000 sec  (  0.0 % of DIIS)
  Exp/Cayley                ....       0.000 sec  (  0.0 % of DIIS)
  Orb update                ....       0.000 sec  (  0.0 % of DIIS)
  Wake-sleep                ....       0.022 sec  (  4.9 % of DIIS)
SOSCF solution              ....       0.159 sec  (  1.0%)
  MO trafo                  ....       0.076 sec  ( 47.8 % of SOSCF)
  Orb grad                  ....       0.001 sec  (  0.8 % of SOSCF)
  Rot update                ....       0.041 sec  ( 25.6 % of SOSCF)
  Step                      ....       0.041 sec  ( 25.7 % of SOSCF)
Finished LeanSCF after  16.3 sec

Maximum memory used throughout the entire LEANSCF-calculation: 33.9 MB


-------------------------------------------------------------------------------
                          DFT DISPERSION CORRECTION                            
                                                                               
                                DFTD4 V3.4.0                                   
-------------------------------------------------------------------------------
The PBE functional is recognized
Active option DFTDOPT                   ...         5   

-------------------------   ----------------
Dispersion correction           -0.064646558
-------------------------   ----------------

------------------   -----------------
gCP correction             0.183381767
------------------   -----------------

-------------------------   --------------------
FINAL SINGLE POINT ENERGY     -2929.518290249905
-------------------------   --------------------


------------------------------------------------------------------------------
                              ORCA PROPERTY CALCULATIONS
------------------------------------------------------------------------------

GBWName                                 ... sp.gbw
Number of atoms                         ...     41
Number of basis functions               ...    334
Max core memory                         ...   1024 MB

Electric properties:
Dipole moment                           ... YES
Quadrupole moment                       ...  NO
Static polarizability (Dipole/Dipole)   ...  NO
Static polarizability (Dipole/Quad.)    ...  NO
Static polarizability (Quad./Quad.)     ...  NO
Static polarizability (Velocity)        ...  NO

Atomic electric properties:
Dipole moment                           ...  NO
Quadrupole moment                       ...  NO
Static polarizability                   ...  NO

Choice of electric origin               ... Center of mass
Position of electric origin             ...     0.000000     0.000000    -0.000006

General magnetic properties:
Magnetizability                         ...  NO

EPR properties:
g-Tensor (aka g-matrix)                 ...  NO
Zero-Field splitting spin-orbit         ...  NO
Zero-field splitting spin-spin          ...  NO
Hyperfine couplings                     ...  NO (   0 nuclei)
Quadrupole couplings                    ...  NO (   0 nuclei)
Contact density                         ...  NO (   0 nuclei)

NMR properties:
Chemical shifts                         ...  NO (   0 nuclei)
Spin-rotation constants                 ...  NO (   0 nuclei)
Spin-spin couplings                     ...  NO (   0 nuclei,    0 pairs)

Choice of magnetic origin               ... GIAO
Position of magnetic origin             ...     0.000000     0.000000     0.000000

Properties with geometric perturbations:
SCF Hessian                             ...  NO
IR spectrum                             ...  NO
VCD spectrum                            ...  NO
X-ray spectroscopy properties:
SCF XES/XAS/RIXS spectra                ...  NO


-------------
DIPOLE MOMENT
-------------

Method             : SCF
Type of density    : Electron Density
Multiplicity       :   1
Irrep              :   0
Energy             : -2929.6370254595335609 Eh
Relativity type    : 
Basis              : AO
                                X                 Y                 Z
Electronic contribution:     -1.776249835      -5.887720684       8.802847217
Nuclear contribution   :      1.274042309       5.348374851      -9.447549405
                        -----------------------------------------
Total Dipole Moment    :     -0.502207526      -0.539345832      -0.644702188
                        -----------------------------------------
Magnitude (a.u.)       :      0.979156391
Magnitude (Debye)      :      2.488817755



--------------------
Rotational spectrum 
--------------------
 
Rotational constants in cm-1:             0.012775             0.004801             0.004530 
Rotational constants in MHz :           382.987852           143.932362           135.797198 

Dipole components along the rotational axes: 
x,y,z [a.u.] :    -0.334363    -0.914667    -0.101646 
x,y,z [Debye]:    -0.849884    -2.324900    -0.258363 

 

Dipole moment calculation done in   0.0 sec 

Maximum memory used throughout the entire PROP-calculation: 23.3 MB

--------------------------------
SUGGESTED CITATIONS FOR THIS RUN
--------------------------------

Below you find a list of papers that are relevant to this ORCA run
We neither can nor want to force you to cite these papers, but we appreciate if you do
You receive ORCA, which is the product of decades of hard work by many enthusiastic individuals, for free
The only thing we kindly ask in return is that you cite our papers,
We deeply appreciate it, if you show your appreciation for ORCA by not just citing the generic ORCA reference.

Please note that relegating all ORCA citations to the supporting information does *not* help us.
SI sections are not indexed - citations you put there will not count into any citation statistics
But we need these citations in order to attract the funding resources that allow us to do what we are doing

Therefore, if you are a happy ORCA user, please consider citing a few of the papers listed below in the main body of your paper

In addition to the list printed below, the program has created the file sp.bibtex that contains the list in bibtex format
You can import this file easily into all common literature databanks and citation aid programs


List of essential papers. We consider these as the minimum necessary citations

  1. Neese,F.
     Software update: the ORCA program system, version 5.0
     WIRES Comput. Molec. Sci., 2022 12(1)e1606
     doi.org/10.1002/wcms.1606

List of papers to cite with high priority. The work reported in these papers was absolutely
necessary for this run to complete.
Our perspective: the developers of density functionals and basis sets usually get cited in chemistry papers
Good! But without the algorithms to do something with them, the functionals or basis sets would not do anything.
Hence, in our opinion, the algorithm design and method developments papers are equally worthy of getting cited

  1. Neese,F.
     An improvement of the resolution of the identity approximation for the formation of the Coulomb matrix
     J. Comp. Chem., 2003 24(14)1740-1747
     doi.org/10.1002/jcc.10318
  2. Neese,F.
     The SHARK Integral Generation and Digestion System
     J. Comp. Chem., 2022  1-16
     doi.org/10.1002/jcc.26942
  3. Caldeweyher,E.; Bannwarth,C.; Grimme,S.
     Extension of the D3 dispersion coefficient model
     J. Chem. Phys., 2017 147 034112-XXXX
     doi.org/10.1063/1.4993215
  4. Caldeweyher,E.; Ehlert,S.; Hansen,A.; Neugebauer,H.; Spicher,S.; Bannwarth,C.; Grimme,S.
     A generally applicable atomic-charge dependent London dispersion correction
     J. Chem. Phys., 2019 150 154122-XXXX
     doi.org/10.1063/1.5090222
  5. Caldeweyher,E.; Mewes,J.; Ehlert,S.; Grimme,S.
     Extension and evaluation of the D4 London-dispersion model for periodic systems
     Phys. Chem. Chem. Phys., 2020 22(16)8499-8512
     doi.org/10.1039/D0CP00502A

List of suggested additional citations. These are papers that are important in the 'surrounding' of 
of this run, or papers that preceded the highly important papers. If you like your results we are grateful for a citation.

  1. Neese,F.
     The ORCA program system
     WIRES Comput. Molec. Sci., 2012 2(1)73-78
     doi.org/10.1002/wcms.81
  2. Neese,F.
     Software update: the ORCA program system, version 4.0
     WIRES Comput. Molec. Sci., 2018 8(1)1-6
     doi.org/10.1002/wcms.1327
  3. Neese,F.; Wennmohs,F.; Becker,U.; Riplinger,C.
     The ORCA quantum chemistry program package
     J. Chem. Phys., 2020 152 Art. No. L224108
     doi.org/10.1063/5.0004608

List of optional additional citations

  1. Neese,F.
     Approximate second-order SCF convergence for spin unrestricted wavefunctions
     Chem. Phys. Lett., 2000 325(1-3)93-98
     doi.org/10.1016/s0009-2614(00)00662-x

Timings for individual modules:

Sum of individual times          ...       19.845 sec (=   0.331 min)
Startup calculation              ...        1.571 sec (=   0.026 min)   7.9 %
SCF iterations                   ...       18.163 sec (=   0.303 min)  91.5 %
Property calculations            ...        0.111 sec (=   0.002 min)   0.6 %
                             ****ORCA TERMINATED NORMALLY****
TOTAL RUN TIME: 0 days 0 hours 0 minutes 20 seconds 684 msec
