 Entering Gaussian System
 *********************************************
 Gaussian 98:
 frequency output generated by the xtb code
 *********************************************
                         Standard orientation:
 --------------------------------------------------------------------
  Center     Atomic     Atomic              Coordinates (Angstroms)
  Number     Number      Type              X           Y           Z
 --------------------------------------------------------------------
    1          6             0        3.203310   -2.683674   -1.583454
    2          6             0        4.338810   -1.831097   -1.060404
    3          8             0        4.002047   -0.420208   -1.029044
    4         15             0        2.867732    0.229289   -0.154656
    5         16             0        3.201821    2.124211    0.211126
    6          8             0        2.872738   -0.717284    1.126064
    7          6             0        2.112059   -0.440253    2.317058
    8          6             0        1.012251   -1.470579    2.483160
    9         16             0        1.045145   -0.142300   -1.220896
   10          6             0        0.172002    1.402544   -0.876305
   11         16             0       -0.773812    1.374892    0.673321
   12         15             0       -2.353809    0.153923   -0.016680
   13         16             0       -3.001445    0.473779   -1.844391
   14          8             0       -3.453115    0.253021    1.125964
   15          6             0       -4.541855    1.191419    1.093902
   16          6             0       -4.083257    2.617247    1.324332
   17          8             0       -1.725300   -1.275403    0.252803
   18          6             0       -2.192017   -2.466532   -0.415239
   19          6             0       -3.566174   -2.884890    0.064859
   20          1             0        2.888534   -2.338079   -2.564853
   21          1             0        3.537483   -3.714136   -1.656144
   22          1             0        2.352090   -2.632948   -0.907052
   23          1             0        5.206039   -1.863879   -1.721487
   24          1             0        4.626724   -2.135093   -0.052504
   25          1             0        2.830492   -0.494486    3.137766
   26          1             0        1.707466    0.575761    2.264833
   27          1             0        0.302454   -1.411604    1.661264
   28          1             0        1.439618   -2.468997    2.511514
   29          1             0        0.485893   -1.278187    3.412403
   30          1             0       -0.511790    1.573735   -1.707720
   31          1             0        0.898879    2.211988   -0.784448
   32          1             0       -5.047429    1.103644    0.126701
   33          1             0       -5.203730    0.850748    1.891484
   34          1             0       -4.952592    3.262751    1.404150
   35          1             0       -3.498448    2.685708    2.237985
   36          1             0       -3.469883    2.954665    0.489823
   37          1             0       -2.196780   -2.278747   -1.493576
   38          1             0       -1.436131   -3.215123   -0.174780
   39          1             0       -3.574044   -2.983016    1.147109
   40          1             0       -4.306267   -2.141053   -0.227279
   41          1             0       -3.827975   -3.837030   -0.386622
 --------------------------------------------------------------------
     1 basis functions        1 primitive gaussians
     1 alpha electrons        1 beta electrons
 
 Harmonic frequencies (cm**-1), IR intensities (km*mol⁻¹),
 Raman scattering activities (A**4/amu), Raman depolarization ratios,
 reduced masses (AMU), force constants (mDyne/A) and normal coordinates:
                      1                      2                      3
                        a                      a                      a 
 Frequencies --    45.7572                48.4137                51.9978
 Red. masses --    24.2696                23.6998                20.4939
 Frc consts  --     0.0000                 0.0000                 0.0000
 IR Inten    --     1.1044                 5.0801                 4.2685
 Raman Activ --     0.0000                 0.0000                 0.0000
 Depolar     --     0.0000                 0.0000                 0.0000
 Atom AN      X      Y      Z        X      Y      Z        X      Y      Z
   1   6     0.01  -0.04  -0.00     0.21   0.01   0.03     0.06   0.09  -0.23
   2   6     0.02  -0.05  -0.02     0.16   0.05   0.07     0.04   0.10  -0.21
   3   8     0.05  -0.05  -0.06     0.12   0.04   0.10    -0.03   0.10  -0.11
   4  15     0.19   0.02   0.00     0.05  -0.05   0.08    -0.00  -0.07   0.05
   5  16     0.24   0.09  -0.37    -0.22   0.01  -0.00    -0.15  -0.08   0.25
   6   8     0.29   0.14   0.09     0.11   0.01   0.09     0.16  -0.14  -0.03
   7   6     0.12   0.07   0.00     0.02  -0.03   0.04     0.15  -0.18  -0.01
   8   6     0.13   0.03  -0.11     0.02  -0.03  -0.04     0.11  -0.15  -0.07
   9  16    -0.02  -0.16   0.43     0.10  -0.36   0.10    -0.13  -0.16   0.29
  10   6    -0.00  -0.08   0.20     0.02  -0.18  -0.19    -0.01  -0.02  -0.00
  11  16    -0.19  -0.08   0.22     0.02   0.09  -0.32    -0.16   0.27  -0.08
  12  15    -0.16   0.01   0.00    -0.09   0.09  -0.07    -0.04   0.08  -0.01
  13  16     0.01   0.17  -0.03    -0.48   0.16   0.08     0.10  -0.28  -0.12
  14   8    -0.18  -0.05  -0.07     0.09   0.04   0.10    -0.09   0.13  -0.07
  15   6    -0.13  -0.01  -0.06     0.05  -0.00   0.17    -0.05   0.14  -0.11
  16   6    -0.10  -0.03  -0.02     0.03   0.01   0.15    -0.03   0.13  -0.10
  17   8    -0.14  -0.01  -0.04     0.01   0.08  -0.17    -0.01   0.10   0.19
  18   6    -0.08   0.02  -0.10    -0.00   0.06  -0.13     0.10   0.04   0.16
  19   6    -0.09  -0.02  -0.15     0.03   0.03  -0.06     0.08  -0.01   0.09
  20   1     0.00  -0.01  -0.00     0.06   0.01   0.01     0.01   0.03  -0.06
  21   1    -0.00  -0.01   0.00     0.07   0.01   0.01     0.03   0.03  -0.08
  22   1     0.00  -0.01   0.00     0.06  -0.01   0.01     0.02   0.01  -0.06
  23   1     0.01  -0.02  -0.01     0.05   0.03   0.02     0.01   0.05  -0.07
  24   1     0.01  -0.01  -0.00     0.04   0.01   0.02     0.03   0.01  -0.07
  25   1     0.01   0.02   0.02    -0.01  -0.01   0.02     0.04  -0.07  -0.00
  26   1     0.02   0.02  -0.01     0.01  -0.01   0.01     0.05  -0.05   0.02
  27   1     0.06   0.01  -0.05     0.01  -0.00  -0.02     0.03  -0.02  -0.02
  28   1     0.05   0.01  -0.03     0.00  -0.01  -0.02     0.02  -0.05  -0.04
  29   1     0.02  -0.00  -0.04    -0.01  -0.02  -0.01     0.04  -0.06  -0.02
  30   1     0.02  -0.02   0.05     0.01  -0.09  -0.06     0.01  -0.01  -0.02
  31   1     0.00  -0.03   0.07     0.00  -0.05  -0.09     0.01  -0.01  -0.01
  32   1    -0.03   0.01  -0.02    -0.00  -0.00   0.06    -0.00   0.04  -0.04
  33   1    -0.05  -0.00  -0.02     0.03  -0.01   0.06    -0.03   0.05  -0.04
  34   1    -0.02  -0.00  -0.01     0.01  -0.00   0.05    -0.00   0.04  -0.03
  35   1    -0.03  -0.02  -0.00     0.02   0.01   0.04    -0.01   0.03  -0.03
  36   1    -0.02  -0.01  -0.00    -0.00   0.00   0.03    -0.00   0.04  -0.03
  37   1    -0.02   0.02  -0.03    -0.02   0.02  -0.04     0.04   0.00   0.05
  38   1    -0.02   0.00  -0.03     0.01   0.02  -0.05     0.03   0.02   0.07
  39   1    -0.03  -0.02  -0.04     0.03   0.00  -0.02     0.01  -0.00   0.02
  40   1    -0.03  -0.01  -0.04     0.00   0.01  -0.00     0.02  -0.01   0.01
  41   1    -0.02  -0.00  -0.05     0.01   0.01  -0.02     0.04  -0.00   0.02
                      4                      5                      6
                        a                      a                      a 
 Frequencies --    52.1800                71.1672                68.3942
 Red. masses --    17.1797                23.3284                15.4435
 Frc consts  --     0.0000                 0.0000                 0.0000
 IR Inten    --     0.6051                 0.4199                 1.6608
 Raman Activ --     0.0000                 0.0000                 0.0000
 Depolar     --     0.0000                 0.0000                 0.0000
 Atom AN      X      Y      Z        X      Y      Z        X      Y      Z
   1   6     0.15   0.12  -0.04    -0.08   0.04  -0.04    -0.19   0.08  -0.07
   2   6     0.13   0.14  -0.02    -0.01  -0.05  -0.05    -0.14  -0.04   0.01
   3   8     0.12   0.15   0.02     0.11  -0.03   0.02    -0.02  -0.01   0.11
   4  15     0.06   0.09  -0.01     0.22   0.03   0.05    -0.01   0.07   0.09
   5  16    -0.15   0.11   0.10     0.42  -0.04   0.23     0.03   0.10  -0.12
   6   8     0.06   0.03  -0.03     0.05  -0.04  -0.01    -0.01   0.11   0.11
   7   6     0.03  -0.02  -0.03     0.04  -0.01  -0.02    -0.08   0.06   0.06
   8   6     0.03  -0.03  -0.07    -0.00   0.03  -0.04    -0.05   0.01  -0.01
   9  16     0.17  -0.04  -0.14     0.22   0.23  -0.03    -0.01  -0.01   0.11
  10   6    -0.00  -0.11   0.00     0.06   0.10   0.00     0.00   0.02  -0.03
  11  16     0.12  -0.38   0.07    -0.17   0.03  -0.16    -0.12   0.07  -0.13
  12  15    -0.07  -0.11   0.04    -0.14  -0.01  -0.18     0.01  -0.10  -0.11
  13  16     0.06  -0.06  -0.00    -0.32  -0.09  -0.13     0.09  -0.33  -0.19
  14   8    -0.07   0.09  -0.01    -0.05  -0.04  -0.07    -0.00  -0.05  -0.09
  15   6     0.04   0.20  -0.05    -0.07  -0.07   0.03     0.16   0.15   0.11
  16   6     0.18   0.16  -0.07    -0.10  -0.07   0.09     0.37   0.03   0.44
  17   8    -0.24  -0.15   0.07    -0.03   0.02  -0.14    -0.01  -0.06   0.01
  18   6    -0.32  -0.09   0.07    -0.15  -0.05   0.09     0.02  -0.04  -0.03
  19   6    -0.35   0.04   0.09    -0.06  -0.01   0.38    -0.04   0.01  -0.16
  20   1     0.04   0.04  -0.01    -0.03   0.03  -0.01    -0.04   0.05  -0.01
  21   1     0.05   0.04  -0.02    -0.04   0.01  -0.03    -0.07   0.02  -0.04
  22   1     0.05   0.02  -0.01    -0.02   0.02  -0.00    -0.06   0.02  -0.02
  23   1     0.04   0.05  -0.01    -0.01  -0.03  -0.02    -0.04  -0.02   0.01
  24   1     0.04   0.03  -0.01    -0.00  -0.03  -0.02    -0.05  -0.04   0.00
  25   1     0.01  -0.01  -0.01     0.01  -0.01  -0.00    -0.03   0.02   0.03
  26   1     0.01  -0.01  -0.00     0.02   0.00  -0.01    -0.03   0.01   0.01
  27   1     0.01  -0.00  -0.02     0.00   0.01  -0.01    -0.01   0.00  -0.01
  28   1     0.01  -0.01  -0.02    -0.01   0.00  -0.01    -0.00   0.01  -0.01
  29   1     0.00  -0.01  -0.02    -0.00   0.01  -0.01    -0.02  -0.01  -0.00
  30   1    -0.02  -0.04   0.01     0.04   0.04  -0.02     0.01   0.00  -0.02
  31   1    -0.02  -0.02  -0.00     0.01   0.03   0.03     0.00   0.00  -0.00
  32   1     0.01   0.07  -0.02    -0.03  -0.01   0.01     0.04   0.13   0.02
  33   1    -0.00   0.08  -0.02    -0.01  -0.04   0.01     0.03   0.02   0.01
  34   1     0.07   0.07  -0.03    -0.03  -0.03   0.04     0.13   0.04   0.18
  35   1     0.05   0.03  -0.02    -0.02  -0.03   0.02     0.11  -0.08   0.13
  36   1     0.06   0.02  -0.02    -0.04  -0.00   0.03     0.11   0.04   0.15
  37   1    -0.09  -0.03   0.02    -0.10  -0.04   0.02     0.03  -0.01  -0.01
  38   1    -0.11  -0.05   0.02    -0.03  -0.01   0.01    -0.01  -0.02   0.01
  39   1    -0.10   0.02   0.03     0.04   0.03   0.11    -0.04  -0.00  -0.05
  40   1    -0.08   0.03   0.02    -0.04  -0.02   0.12     0.01   0.02  -0.06
  41   1    -0.13   0.02   0.03    -0.04  -0.02   0.15    -0.01   0.01  -0.06
                      7                      8                      9
                        a                      a                      a 
 Frequencies --    74.3860                65.7738                74.7280
 Red. masses --    18.7535                12.2984                13.8800
 Frc consts  --     0.0000                 0.0000                 0.0000
 IR Inten    --     2.3678                 5.0198                 4.4739
 Raman Activ --     0.0000                 0.0000                 0.0000
 Depolar     --     0.0000                 0.0000                 0.0000
 Atom AN      X      Y      Z        X      Y      Z        X      Y      Z
   1   6    -0.00   0.03  -0.03     0.04  -0.05   0.27    -0.12   0.20  -0.46
   2   6     0.00  -0.04   0.06     0.04   0.03   0.13    -0.11  -0.05  -0.09
   3   8     0.09  -0.03   0.08     0.01   0.03   0.02     0.08  -0.01   0.19
   4  15     0.11   0.06   0.01    -0.02   0.06  -0.03     0.01  -0.01   0.12
   5  16     0.25   0.05  -0.06    -0.08   0.11  -0.19    -0.07   0.04  -0.13
   6   8    -0.02   0.04   0.01     0.02   0.06  -0.01    -0.03   0.08   0.16
   7   6    -0.20  -0.06  -0.08    -0.22  -0.19  -0.11    -0.15   0.08   0.06
   8   6    -0.11  -0.18  -0.25    -0.04  -0.42  -0.35    -0.13   0.05  -0.02
   9  16     0.13   0.12  -0.05    -0.03  -0.00   0.01     0.07  -0.20   0.08
  10   6     0.02   0.05  -0.02     0.00   0.01  -0.02     0.05  -0.10  -0.06
  11  16     0.01   0.08  -0.05     0.04   0.07  -0.01     0.18  -0.00  -0.04
  12  15    -0.02  -0.03   0.18     0.06   0.06  -0.03     0.15   0.01   0.03
  13  16    -0.25  -0.36   0.21     0.21   0.10  -0.08     0.19   0.08   0.03
  14   8     0.07   0.12   0.20    -0.00   0.01  -0.07     0.11  -0.01   0.02
  15   6    -0.01   0.02   0.02    -0.02  -0.02  -0.03    -0.03  -0.16  -0.05
  16   6    -0.12   0.09  -0.18    -0.07  -0.04   0.18    -0.23  -0.10  -0.03
  17   8    -0.03  -0.02   0.21     0.04   0.05  -0.00     0.09  -0.01  -0.02
  18   6     0.07   0.03   0.02    -0.03   0.01   0.11    -0.08   0.00   0.07
  19   6    -0.05   0.07  -0.31     0.03   0.01   0.28    -0.10   0.15   0.16
  20   1     0.02   0.02  -0.01    -0.01  -0.04   0.07     0.01   0.13  -0.12
  21   1    -0.01   0.00  -0.01     0.02  -0.01   0.10    -0.06   0.05  -0.19
  22   1    -0.01   0.01  -0.02     0.02  -0.00   0.09    -0.06   0.03  -0.16
  23   1     0.01  -0.02   0.04     0.00  -0.00   0.02    -0.00  -0.00   0.01
  24   1    -0.02  -0.02   0.02     0.03   0.04   0.04    -0.09  -0.09  -0.03
  25   1    -0.09  -0.00   0.00    -0.10  -0.03  -0.00    -0.06   0.04   0.03
  26   1    -0.08  -0.03  -0.03    -0.12  -0.08  -0.02    -0.05   0.02  -0.00
  27   1    -0.01  -0.06  -0.09     0.01  -0.13  -0.12    -0.02   0.00  -0.02
  28   1    -0.00  -0.04  -0.07     0.04  -0.10  -0.12    -0.03   0.02   0.01
  29   1    -0.07  -0.08  -0.08    -0.05  -0.18  -0.11    -0.06   0.01  -0.02
  30   1     0.01   0.01  -0.01    -0.00   0.00  -0.00     0.00  -0.05  -0.01
  31   1     0.00   0.02  -0.00     0.00   0.00  -0.01     0.01  -0.02  -0.04
  32   1     0.00  -0.04   0.01     0.01   0.02  -0.02     0.01  -0.07  -0.02
  33   1    -0.00   0.03   0.02    -0.02  -0.04  -0.03    -0.01  -0.07  -0.02
  34   1    -0.05   0.01  -0.08    -0.03  -0.02   0.06    -0.09  -0.06  -0.03
  35   1    -0.04   0.08  -0.05    -0.04  -0.04   0.07    -0.09  -0.00   0.00
  36   1    -0.04   0.00  -0.06    -0.00   0.02   0.08    -0.06  -0.01   0.00
  37   1     0.09   0.02   0.01    -0.04  -0.01   0.03    -0.03  -0.01   0.02
  38   1    -0.00  -0.00   0.04     0.00   0.01   0.02    -0.04  -0.02   0.02
  39   1    -0.09  -0.00  -0.09     0.04   0.02   0.08    -0.02   0.06   0.05
  40   1     0.02   0.04  -0.12    -0.00  -0.01   0.09    -0.01   0.05   0.04
  41   1    -0.00   0.03  -0.13     0.00  -0.01   0.10    -0.05   0.04   0.07
                     10                     11                     12
                        a                      a                      a 
 Frequencies --    69.9179                76.2471                88.8737
 Red. masses --    10.9013                11.2337                12.6013
 Frc consts  --     0.0000                 0.0000                 0.0000
 IR Inten    --     0.7912                 0.3046                 1.4809
 Raman Activ --     0.0000                 0.0000                 0.0000
 Depolar     --     0.0000                 0.0000                 0.0000
 Atom AN      X      Y      Z        X      Y      Z        X      Y      Z
   1   6    -0.21   0.10  -0.08    -0.36   0.05   0.30    -0.35   0.11   0.12
   2   6    -0.14  -0.02  -0.04    -0.16   0.02  -0.10    -0.14  -0.04  -0.09
   3   8    -0.02   0.01   0.07    -0.05   0.06  -0.07     0.08   0.02   0.06
   4  15    -0.01   0.05   0.09     0.01   0.06   0.03     0.07   0.03   0.02
   5  16    -0.02   0.08  -0.01    -0.12   0.08   0.11    -0.05   0.04   0.03
   6   8     0.01   0.07   0.08     0.16   0.03   0.01     0.05   0.03   0.02
   7   6    -0.11  -0.03   0.01     0.17  -0.07   0.05     0.08  -0.01   0.05
   8   6    -0.05  -0.12  -0.11     0.20  -0.11   0.01     0.14  -0.06   0.09
   9  16    -0.01  -0.01   0.11     0.01  -0.03   0.09     0.19  -0.06  -0.15
  10   6    -0.02  -0.01   0.05     0.01   0.00  -0.05     0.03  -0.09  -0.09
  11  16    -0.02  -0.08   0.08     0.03   0.06  -0.08     0.18  -0.16  -0.07
  12  15    -0.01  -0.03  -0.02     0.11  -0.06  -0.04    -0.05   0.06   0.03
  13  16    -0.15   0.14   0.06    -0.02  -0.05   0.01    -0.00   0.03   0.02
  14   8     0.02  -0.06   0.01     0.14  -0.10   0.03    -0.04   0.22   0.00
  15   6     0.13   0.08   0.05     0.06  -0.15   0.03    -0.10   0.11  -0.13
  16   6     0.36   0.08  -0.40     0.00  -0.10  -0.17    -0.26   0.12   0.15
  17   8     0.03  -0.02  -0.12     0.13  -0.04  -0.11    -0.16   0.00   0.11
  18   6     0.06  -0.04  -0.09    -0.09  -0.01  -0.01     0.06   0.02  -0.07
  19   6     0.22  -0.25   0.18    -0.22   0.32  -0.09     0.16  -0.31  -0.07
  20   1    -0.06   0.05  -0.01    -0.18   0.00   0.11    -0.16   0.06   0.06
  21   1    -0.08   0.02  -0.05    -0.12   0.01   0.07    -0.13   0.03  -0.01
  22   1    -0.05   0.03  -0.01    -0.04   0.03   0.16    -0.05   0.04   0.10
  23   1    -0.04  -0.01  -0.02    -0.10  -0.02  -0.10    -0.08  -0.04  -0.08
  24   1    -0.04  -0.03  -0.02     0.04   0.02  -0.05     0.01  -0.03  -0.05
  25   1    -0.05   0.00   0.02     0.06  -0.03   0.01     0.03   0.01   0.01
  26   1    -0.05  -0.02   0.00     0.04  -0.02   0.04     0.01  -0.01   0.02
  27   1     0.00  -0.04  -0.05     0.05  -0.02   0.01     0.03  -0.02   0.04
  28   1     0.01  -0.02  -0.03     0.06  -0.03  -0.02     0.05  -0.01   0.01
  29   1    -0.04  -0.05  -0.04     0.06  -0.05   0.01     0.05  -0.03   0.04
  30   1    -0.01  -0.01   0.01     0.00  -0.01  -0.02    -0.01  -0.04  -0.02
  31   1    -0.01  -0.00   0.01     0.00   0.00  -0.02    -0.01  -0.01  -0.04
  32   1    -0.03  -0.02   0.05    -0.01  -0.08   0.03     0.03   0.05  -0.07
  33   1     0.08   0.10   0.08     0.05  -0.03   0.04    -0.07  -0.01  -0.09
  34   1     0.13   0.06  -0.10    -0.01  -0.04  -0.05    -0.09   0.01   0.01
  35   1     0.16   0.07  -0.16     0.02   0.01  -0.07    -0.14   0.01   0.08
  36   1     0.06  -0.05  -0.18    -0.03  -0.05  -0.08    -0.02   0.08   0.10
  37   1    -0.05   0.01  -0.02     0.01  -0.03  -0.01    -0.00   0.05  -0.01
  38   1     0.06   0.01  -0.08    -0.08  -0.04   0.04     0.06   0.03  -0.06
  39   1     0.13  -0.09   0.05    -0.10   0.13  -0.02     0.07  -0.14  -0.02
  40   1     0.02  -0.10   0.11    -0.01   0.12  -0.07     0.01  -0.11   0.03
  41   1     0.07  -0.08   0.05    -0.10   0.09   0.00     0.09  -0.08  -0.06
                     13                     14                     15
                        a                      a                      a 
 Frequencies --    91.4994               122.0647               126.2780
 Red. masses --    10.9724                12.9527                12.9460
 Frc consts  --     0.0000                 0.0000                 0.0000
 IR Inten    --     2.8453                 2.7681                 6.0667
 Raman Activ --     0.0000                 0.0000                 0.0000
 Depolar     --     0.0000                 0.0000                 0.0000
 Atom AN      X      Y      Z        X      Y      Z        X      Y      Z
   1   6     0.10  -0.00  -0.18     0.08  -0.07   0.00     0.00  -0.09  -0.10
   2   6    -0.02  -0.03   0.14    -0.01   0.02   0.05    -0.15  -0.10   0.25
   3   8    -0.04  -0.04   0.10    -0.11  -0.00  -0.05    -0.11  -0.09  -0.02
   4  15    -0.07   0.04   0.04    -0.06   0.03   0.03    -0.03   0.03   0.03
   5  16     0.06   0.06  -0.19     0.05   0.02  -0.01    -0.22   0.09  -0.04
   6   8    -0.10   0.04   0.03     0.02   0.01   0.02     0.18   0.04   0.03
   7   6     0.03  -0.06   0.13     0.05  -0.03   0.05     0.26  -0.16   0.12
   8   6     0.40  -0.42   0.40     0.02   0.00   0.02    -0.01   0.09  -0.19
   9  16    -0.02   0.12  -0.09    -0.11   0.05   0.11    -0.01   0.15  -0.03
  10   6    -0.02   0.06  -0.01     0.03   0.09  -0.03     0.01   0.07   0.06
  11  16    -0.04  -0.01  -0.02     0.03   0.16  -0.07     0.08  -0.08   0.13
  12  15    -0.04   0.02  -0.05     0.13   0.00   0.03     0.10  -0.02  -0.03
  13  16    -0.11   0.02  -0.03     0.20  -0.25  -0.04    -0.26  -0.11   0.09
  14   8    -0.02   0.01  -0.04     0.21   0.13   0.13     0.07   0.05  -0.03
  15   6    -0.01   0.02  -0.03     0.06  -0.03   0.15     0.06   0.05  -0.28
  16   6     0.01   0.02  -0.05    -0.14   0.06  -0.03    -0.00   0.02   0.04
  17   8    -0.00   0.03  -0.03    -0.14  -0.13  -0.08     0.11  -0.01  -0.09
  18   6    -0.02   0.01   0.01    -0.32   0.12  -0.36     0.02  -0.00  -0.03
  19   6    -0.04   0.06   0.00    -0.08  -0.17   0.06     0.04   0.06   0.06
  20   1     0.10   0.01  -0.07     0.04  -0.04  -0.01     0.11  -0.04  -0.07
  21   1     0.03  -0.00  -0.04     0.04  -0.02   0.03    -0.01  -0.03   0.03
  22   1    -0.02  -0.01  -0.11     0.00  -0.02  -0.02    -0.07   0.00  -0.12
  23   1     0.04  -0.01   0.10     0.01   0.01   0.03     0.03  -0.06   0.16
  24   1    -0.08  -0.02   0.06    -0.02   0.02   0.02    -0.15  -0.01   0.11
  25   1     0.05   0.08   0.01     0.02  -0.03   0.01     0.08  -0.18   0.02
  26   1    -0.09  -0.06   0.02     0.03  -0.00   0.03     0.16  -0.01   0.13
  27   1     0.06  -0.19   0.16    -0.00   0.02   0.01     0.01   0.14  -0.06
  28   1     0.21  -0.08   0.09    -0.01  -0.00  -0.02    -0.08  -0.01  -0.13
  29   1     0.16  -0.16   0.15     0.01  -0.01   0.01    -0.00  -0.01  -0.05
  30   1    -0.00   0.02  -0.00     0.01   0.03  -0.01    -0.00   0.03   0.02
  31   1    -0.01   0.02   0.01     0.02   0.02  -0.01     0.00   0.02   0.03
  32   1    -0.01   0.00  -0.01    -0.01  -0.05   0.06     0.11   0.05  -0.13
  33   1    -0.00   0.01  -0.01     0.06  -0.02   0.08    -0.06  -0.01  -0.16
  34   1     0.00   0.01  -0.01    -0.07  -0.02  -0.00    -0.01   0.00  -0.04
  35   1     0.00   0.01  -0.02    -0.02   0.07  -0.02    -0.08  -0.03   0.07
  36   1     0.00   0.00  -0.02    -0.08   0.02  -0.03     0.08   0.04   0.08
  37   1     0.00  -0.01   0.00    -0.23   0.16  -0.08    -0.01  -0.00  -0.01
  38   1    -0.01  -0.00   0.02    -0.05   0.02  -0.29     0.00  -0.01  -0.02
  39   1    -0.02   0.03   0.00     0.11  -0.17   0.01     0.03   0.02   0.02
  40   1    -0.00   0.02  -0.01    -0.08  -0.04   0.19     0.01   0.02   0.03
  41   1    -0.02   0.01   0.01    -0.05  -0.01  -0.06    -0.01   0.02   0.03
                     16                     17                     18
                        a                      a                      a 
 Frequencies --   133.5444               151.0180               155.1885
 Red. masses --    14.4901                17.8116                18.5383
 Frc consts  --     0.0000                 0.0000                 0.0000
 IR Inten    --     8.3894                 8.4734                 7.5821
 Raman Activ --     0.0000                 0.0000                 0.0000
 Depolar     --     0.0000                 0.0000                 0.0000
 Atom AN      X      Y      Z        X      Y      Z        X      Y      Z
   1   6    -0.05  -0.03  -0.07     0.01   0.13   0.07     0.05   0.06   0.04
   2   6    -0.11  -0.13   0.24     0.13   0.08  -0.12     0.04   0.14  -0.09
   3   8     0.04  -0.09   0.04     0.12   0.06   0.19    -0.10   0.10   0.06
   4  15     0.07   0.03  -0.01    -0.05  -0.11   0.10    -0.14   0.04   0.14
   5  16    -0.15   0.06   0.04    -0.05  -0.03  -0.39     0.32   0.02  -0.21
   6   8     0.13   0.02  -0.02    -0.08  -0.12   0.05    -0.08  -0.05   0.05
   7   6     0.19  -0.10   0.05     0.10  -0.23   0.18     0.12  -0.23   0.21
   8   6     0.04   0.04  -0.13    -0.15   0.02   0.07    -0.13   0.00   0.04
   9  16     0.14   0.09  -0.16     0.05   0.08  -0.14    -0.07   0.02   0.01
  10   6    -0.04  -0.01  -0.10     0.03   0.01   0.13    -0.03   0.05  -0.15
  11  16    -0.08   0.06  -0.17     0.04  -0.14   0.21    -0.05   0.16  -0.25
  12  15    -0.16   0.03   0.03    -0.08   0.15  -0.06     0.05  -0.16   0.05
  13  16     0.28   0.16  -0.11    -0.03  -0.25  -0.16     0.03   0.29   0.15
  14   8    -0.11  -0.07   0.03    -0.05   0.02  -0.04     0.04  -0.04   0.03
  15   6    -0.11  -0.07   0.35    -0.07  -0.00   0.17     0.06  -0.02  -0.14
  16   6    -0.03  -0.03  -0.05    -0.05   0.02  -0.03     0.05  -0.03  -0.03
  17   8    -0.14   0.03   0.14     0.05   0.15  -0.06    -0.09  -0.16   0.10
  18   6     0.03  -0.04   0.13     0.05   0.13  -0.03    -0.04  -0.18   0.11
  19   6    -0.02  -0.10  -0.06     0.08   0.13   0.03    -0.09  -0.17  -0.03
  20   1     0.08  -0.01  -0.05    -0.08   0.08   0.06    -0.03   0.02   0.03
  21   1    -0.04  -0.02   0.01    -0.00   0.04  -0.05     0.03   0.03  -0.01
  22   1    -0.07   0.02  -0.10     0.06   0.01   0.09     0.04  -0.01   0.04
  23   1     0.02  -0.08   0.14    -0.01   0.05  -0.10    -0.01   0.07  -0.06
  24   1    -0.13  -0.03   0.10     0.12  -0.01  -0.07     0.06   0.03  -0.04
  25   1     0.06  -0.11   0.00     0.05  -0.18   0.03     0.06  -0.19   0.03
  26   1     0.10  -0.01   0.07     0.10  -0.03   0.13     0.11  -0.03   0.16
  27   1     0.01   0.09  -0.03    -0.06   0.10   0.04    -0.06   0.12   0.04
  28   1    -0.03  -0.01  -0.09    -0.12  -0.03  -0.05    -0.11  -0.03  -0.08
  29   1     0.02  -0.02  -0.03    -0.00  -0.01   0.05     0.01  -0.04   0.04
  30   1    -0.01  -0.02  -0.03     0.01   0.03   0.04    -0.01  -0.00  -0.05
  31   1    -0.03   0.01  -0.03     0.01  -0.00   0.05    -0.01   0.02  -0.05
  32   1    -0.15  -0.06   0.17    -0.09  -0.02   0.09     0.06   0.01  -0.07
  33   1     0.07   0.01   0.19     0.04   0.01   0.10    -0.03  -0.01  -0.08
  34   1     0.00  -0.00   0.05    -0.01   0.00   0.03     0.01  -0.01  -0.04
  35   1     0.09   0.03  -0.08     0.04   0.03  -0.05    -0.02  -0.02   0.02
  36   1    -0.10  -0.05  -0.10    -0.07  -0.01  -0.05     0.05  -0.00   0.02
  37   1     0.05  -0.03   0.03     0.00   0.04  -0.01     0.02  -0.07   0.03
  38   1     0.01   0.01   0.08     0.02   0.04  -0.02    -0.02  -0.05   0.07
  39   1    -0.05  -0.02  -0.02     0.04   0.04   0.01    -0.06  -0.04  -0.01
  40   1    -0.00  -0.04  -0.06     0.02   0.04   0.02    -0.02  -0.05  -0.04
  41   1     0.03  -0.04  -0.02     0.02   0.04   0.02    -0.01  -0.05  -0.01
                     19                     20                     21
                        a                      a                      a 
 Frequencies --   174.1676               182.0311               189.7335
 Red. masses --    20.0904                18.3850                14.8252
 Frc consts  --     0.0000                 0.0000                 0.0000
 IR Inten    --     8.1737                21.5367                 3.6309
 Raman Activ --     0.0000                 0.0000                 0.0000
 Depolar     --     0.0000                 0.0000                 0.0000
 Atom AN      X      Y      Z        X      Y      Z        X      Y      Z
   1   6     0.05  -0.10  -0.03    -0.05   0.13   0.03    -0.11   0.33   0.08
   2   6    -0.11   0.10  -0.01    -0.10   0.10   0.20     0.00   0.05   0.28
   3   8    -0.31   0.06  -0.16    -0.03   0.13  -0.04     0.29   0.12   0.07
   4  15    -0.19   0.14   0.06    -0.09   0.16  -0.10     0.06  -0.03  -0.20
   5  16     0.28   0.06   0.13     0.38   0.04   0.13    -0.00  -0.06  -0.07
   6   8    -0.01   0.12   0.05    -0.13   0.00  -0.16    -0.14  -0.21  -0.28
   7   6    -0.02   0.01   0.06     0.05  -0.08  -0.02     0.04  -0.07  -0.17
   8   6    -0.02  -0.02  -0.05    -0.02   0.00   0.00    -0.02   0.03   0.06
   9  16    -0.11  -0.15   0.08    -0.04  -0.32  -0.05    -0.20  -0.10   0.20
  10   6     0.01  -0.06   0.00    -0.10  -0.22  -0.12     0.05   0.03   0.11
  11  16     0.19  -0.34   0.05     0.11  -0.05   0.00    -0.09   0.01   0.06
  12  15     0.02   0.05  -0.20    -0.09   0.09   0.14     0.09  -0.06  -0.11
  13  16    -0.06  -0.01  -0.21     0.06  -0.12   0.06    -0.04   0.05  -0.06
  14   8     0.18   0.20  -0.00    -0.23  -0.16  -0.04     0.19   0.13   0.03
  15   6     0.03   0.04   0.20    -0.10  -0.02  -0.06     0.09   0.02   0.04
  16   6    -0.16   0.13   0.04     0.10  -0.10  -0.02    -0.08   0.09   0.01
  17   8    -0.01   0.03  -0.10     0.07   0.12   0.03    -0.01  -0.08  -0.07
  18   6     0.12  -0.13   0.12    -0.01   0.22  -0.11     0.01  -0.15   0.05
  19   6     0.04  -0.02  -0.03     0.07   0.16   0.05    -0.03  -0.08  -0.01
  20   1     0.03  -0.07  -0.03     0.05   0.03  -0.01     0.06   0.11  -0.00
  21   1     0.06  -0.02   0.03    -0.03   0.03   0.05    -0.12   0.06   0.06
  22   1    -0.01  -0.04  -0.03    -0.05   0.07  -0.04    -0.07   0.18  -0.03
  23   1    -0.02   0.04   0.01     0.01  -0.01   0.11     0.04  -0.06   0.14
  24   1    -0.04   0.06   0.01    -0.10   0.05   0.08    -0.09   0.02   0.11
  25   1    -0.01  -0.02   0.02     0.04  -0.07  -0.03     0.04  -0.02  -0.07
  26   1    -0.01   0.00   0.04     0.04  -0.01   0.04     0.03  -0.01  -0.05
  27   1    -0.00   0.02  -0.02    -0.04   0.05   0.04    -0.04   0.01   0.05
  28   1    -0.00  -0.00  -0.04    -0.03  -0.01  -0.06    -0.03  -0.00   0.02
  29   1    -0.01  -0.03  -0.01     0.05  -0.03   0.04     0.04   0.04   0.04
  30   1    -0.01  -0.00   0.01    -0.06  -0.10  -0.02     0.03   0.05   0.02
  31   1     0.01  -0.02  -0.00    -0.04  -0.05  -0.08     0.04  -0.01   0.06
  32   1    -0.05  -0.02   0.09    -0.02   0.02  -0.02     0.02  -0.01   0.02
  33   1     0.07  -0.01   0.10    -0.05   0.01  -0.03     0.04  -0.01   0.02
  34   1    -0.08  -0.00   0.04     0.06   0.01  -0.01    -0.05  -0.01   0.01
  35   1    -0.01   0.08  -0.02     0.02  -0.06   0.00    -0.02   0.05   0.00
  36   1    -0.10   0.05  -0.02     0.06  -0.06   0.00    -0.04   0.05  -0.00
  37   1     0.09  -0.11   0.02    -0.05   0.12  -0.02     0.03  -0.08   0.01
  38   1     0.02  -0.02   0.13     0.01   0.05  -0.11    -0.00  -0.03   0.06
  39   1    -0.05   0.07  -0.00     0.07   0.00   0.01    -0.04   0.01  -0.00
  40   1     0.03  -0.02  -0.10     0.01   0.06   0.08    -0.00  -0.03  -0.05
  41   1     0.03  -0.04   0.04    -0.00   0.06  -0.01     0.00  -0.04   0.02
                     22                     23                     24
                        a                      a                      a 
 Frequencies --   236.5014               231.7850               226.6017
 Red. masses --    19.3590                17.3285                10.7090
 Frc consts  --     0.0000                 0.0000                 0.0000
 IR Inten    --    16.3798                17.3542                 8.1191
 Raman Activ --     0.0000                 0.0000                 0.0000
 Depolar     --     0.0000                 0.0000                 0.0000
 Atom AN      X      Y      Z        X      Y      Z        X      Y      Z
   1   6     0.01  -0.07  -0.02    -0.01   0.23   0.04     0.02   0.02   0.00
   2   6     0.01  -0.05  -0.04     0.04   0.11   0.11     0.09  -0.08   0.00
   3   8     0.02  -0.05   0.02    -0.00   0.08   0.11     0.14  -0.09   0.18
   4  15     0.06   0.06  -0.01    -0.22  -0.21   0.07    -0.08  -0.05  -0.16
   5  16     0.01   0.07   0.02     0.15  -0.31  -0.01     0.04  -0.14   0.16
   6   8    -0.06   0.01  -0.03     0.29   0.07   0.20     0.02   0.29   0.08
   7   6     0.00  -0.03   0.01     0.10   0.09   0.06    -0.01   0.19   0.04
   8   6    -0.02  -0.01   0.01     0.15   0.02  -0.14     0.12   0.03  -0.16
   9  16     0.11  -0.00  -0.05    -0.27   0.03  -0.30    -0.25  -0.10  -0.18
  10   6    -0.19  -0.14   0.00    -0.08   0.04  -0.04     0.04   0.01   0.07
  11  16    -0.46  -0.12  -0.06    -0.08  -0.05  -0.03    -0.05   0.07   0.07
  12  15    -0.16  -0.23   0.09    -0.05  -0.05   0.03     0.04   0.00  -0.03
  13  16     0.25   0.06   0.03     0.05   0.01   0.01    -0.03   0.00  -0.00
  14   8     0.08   0.12   0.25    -0.00   0.02   0.05     0.04   0.01  -0.02
  15   6     0.06   0.14   0.04     0.00   0.03   0.01     0.02  -0.01  -0.02
  16   6    -0.10   0.21   0.02    -0.01   0.04   0.01    -0.00  -0.01  -0.01
  17   8     0.22  -0.07  -0.22     0.04  -0.01  -0.04    -0.01  -0.01   0.01
  18   6     0.12  -0.06  -0.13     0.02  -0.00  -0.03    -0.01  -0.02   0.02
  19   6     0.13   0.19   0.06     0.03   0.05   0.01    -0.02  -0.02  -0.00
  20   1    -0.03  -0.00   0.01     0.01   0.10   0.02    -0.07   0.10   0.06
  21   1     0.02  -0.01  -0.04    -0.04   0.06  -0.01     0.02   0.02  -0.13
  22   1     0.02  -0.06   0.02    -0.00   0.08   0.01     0.05  -0.08   0.07
  23   1    -0.01  -0.01  -0.02     0.02   0.03   0.05     0.01  -0.01  -0.02
  24   1     0.02  -0.02  -0.02    -0.00   0.02   0.04     0.05  -0.05  -0.01
  25   1     0.01  -0.03  -0.01    -0.00   0.05   0.05    -0.00   0.04   0.01
  26   1     0.01  -0.01   0.02     0.01   0.02  -0.02    -0.02   0.05   0.04
  27   1    -0.04   0.04   0.03     0.22  -0.15  -0.21    -0.15   0.24   0.13
  28   1    -0.01  -0.01  -0.06     0.08   0.03   0.21     0.07   0.01  -0.45
  29   1     0.04  -0.04   0.03    -0.17   0.13  -0.19     0.25  -0.29   0.14
  30   1    -0.06  -0.08  -0.01    -0.02   0.04  -0.01     0.02   0.06   0.02
  31   1    -0.09  -0.01  -0.01    -0.01  -0.00   0.00     0.04  -0.03   0.05
  32   1     0.06   0.02  -0.01     0.01   0.01   0.00     0.01  -0.00  -0.01
  33   1    -0.01   0.05  -0.01    -0.00   0.01   0.00     0.01  -0.01  -0.01
  34   1    -0.06   0.04  -0.11    -0.01   0.01  -0.02    -0.00  -0.01   0.03
  35   1    -0.13   0.12   0.06    -0.03   0.02   0.01     0.02  -0.01  -0.02
  36   1     0.05   0.05   0.06     0.01   0.01   0.01    -0.02   0.01  -0.01
  37   1     0.02  -0.03  -0.04     0.00   0.00  -0.01    -0.00  -0.01   0.01
  38   1     0.02  -0.03  -0.04     0.00  -0.00  -0.01    -0.00  -0.00   0.01
  39   1     0.08   0.08   0.02     0.02   0.01   0.00    -0.01  -0.02  -0.00
  40   1     0.07   0.10   0.03     0.01   0.02   0.01    -0.00  -0.00   0.01
  41   1    -0.04   0.06   0.05    -0.01   0.02   0.01    -0.01  -0.00  -0.01
                     25                     26                     27
                        a                      a                      a 
 Frequencies --   220.8749               229.6633               233.6377
 Red. masses --     4.5056                 4.4549                 4.6227
 Frc consts  --     0.0000                 0.0000                 0.0000
 IR Inten    --     1.7403                 0.3919                 3.4033
 Raman Activ --     0.0000                 0.0000                 0.0000
 Depolar     --     0.0000                 0.0000                 0.0000
 Atom AN      X      Y      Z        X      Y      Z        X      Y      Z
   1   6    -0.00   0.01  -0.00    -0.02   0.05   0.01    -0.03   0.07   0.02
   2   6     0.01  -0.01  -0.01     0.00   0.06  -0.05     0.03   0.08  -0.13
   3   8     0.02  -0.01   0.02    -0.03   0.05  -0.07    -0.01   0.07  -0.08
   4  15     0.00  -0.01  -0.00    -0.01  -0.07   0.04     0.02  -0.13   0.09
   5  16     0.00  -0.01   0.01    -0.03  -0.07  -0.03    -0.02  -0.13  -0.05
   6   8     0.01   0.01   0.01     0.04   0.00   0.06     0.08  -0.00   0.14
   7   6     0.00   0.01   0.00    -0.05   0.04   0.00    -0.09   0.07   0.03
   8   6     0.01  -0.00  -0.00    -0.01   0.00   0.00    -0.02  -0.00   0.01
   9  16    -0.02   0.02   0.00     0.01   0.02   0.02     0.06   0.05  -0.03
  10   6    -0.02   0.02  -0.02     0.12   0.06   0.04    -0.02  -0.00  -0.03
  11  16     0.09   0.09   0.03     0.01  -0.10  -0.07    -0.01  -0.02  -0.03
  12  15    -0.07   0.15   0.08    -0.10   0.04  -0.08    -0.00  -0.06   0.07
  13  16     0.08  -0.11  -0.02    -0.00   0.04  -0.14     0.04  -0.01   0.09
  14   8    -0.01  -0.04   0.12     0.04  -0.04   0.07    -0.06   0.01  -0.01
  15   6     0.00  -0.03   0.05     0.02  -0.07   0.12    -0.03   0.05  -0.05
  16   6     0.06  -0.04  -0.01     0.06  -0.07  -0.02    -0.03   0.05   0.01
  17   8    -0.10   0.06  -0.17    -0.05   0.06   0.09     0.05  -0.04  -0.05
  18   6    -0.08   0.01  -0.09     0.03   0.03   0.11     0.00  -0.00  -0.08
  19   6    -0.03  -0.11  -0.03     0.00   0.02   0.00     0.03   0.03   0.01
  20   1    -0.00   0.00  -0.00     0.10  -0.11  -0.08     0.23  -0.27  -0.17
  21   1    -0.00   0.00  -0.00    -0.07  -0.02   0.20    -0.15  -0.06   0.44
  22   1     0.00   0.01  -0.00    -0.06   0.18  -0.08    -0.13   0.38  -0.18
  23   1     0.00  -0.00  -0.01    -0.00   0.01  -0.02    -0.00   0.02  -0.06
  24   1     0.01  -0.01  -0.00     0.00   0.02  -0.01     0.03   0.03  -0.04
  25   1     0.00   0.00   0.00    -0.03   0.03   0.01    -0.04   0.05   0.03
  26   1    -0.00   0.00  -0.00    -0.03   0.01  -0.02    -0.04   0.01  -0.03
  27   1    -0.01   0.01   0.01    -0.06   0.05   0.05    -0.10   0.09   0.09
  28   1     0.01  -0.00  -0.02     0.00   0.00  -0.09     0.01   0.00  -0.16
  29   1     0.02  -0.02   0.01     0.06  -0.06   0.05     0.09  -0.11   0.08
  30   1    -0.02  -0.01  -0.00     0.06   0.06  -0.00    -0.01  -0.01  -0.01
  31   1    -0.01   0.01  -0.03     0.05  -0.00   0.06    -0.01   0.01  -0.01
  32   1     0.02  -0.01   0.01    -0.01  -0.03   0.04     0.00   0.02  -0.02
  33   1    -0.02   0.01   0.01     0.01  -0.01   0.05    -0.02   0.01  -0.02
  34   1     0.03   0.04  -0.28     0.03   0.05  -0.42    -0.02  -0.02   0.20
  35   1    -0.20   0.05   0.13    -0.29   0.09   0.18     0.14  -0.04  -0.09
  36   1     0.24  -0.13   0.11     0.33  -0.19   0.15    -0.16   0.10  -0.07
  37   1    -0.03  -0.02  -0.03     0.02   0.00   0.03    -0.01   0.01  -0.02
  38   1    -0.01   0.02  -0.01     0.01   0.01   0.04     0.00  -0.00  -0.04
  39   1    -0.09   0.39   0.03     0.03  -0.24  -0.02     0.00   0.13   0.01
  40   1    -0.11  -0.27  -0.36     0.05   0.13   0.19    -0.01  -0.04  -0.09
  41   1     0.20  -0.25   0.35    -0.09   0.13  -0.21     0.04  -0.05   0.11
                     28                     29                     30
                        a                      a                      a 
 Frequencies --   286.0580               283.4922               306.0764
 Red. masses --    17.3153                14.1095                18.7091
 Frc consts  --     0.0000                 0.0000                 0.0000
 IR Inten    --    15.1463                 7.3855                 6.9946
 Raman Activ --     0.0000                 0.0000                 0.0000
 Depolar     --     0.0000                 0.0000                 0.0000
 Atom AN      X      Y      Z        X      Y      Z        X      Y      Z
   1   6     0.02  -0.01   0.00     0.01   0.13   0.03    -0.01   0.06   0.01
   2   6     0.11  -0.10  -0.04    -0.08   0.13   0.20    -0.05   0.08   0.06
   3   8     0.15  -0.10   0.17    -0.21   0.10  -0.23    -0.11   0.07  -0.13
   4  15     0.10  -0.01   0.03    -0.04  -0.16   0.18     0.01  -0.08   0.14
   5  16     0.02  -0.02   0.02    -0.05  -0.16  -0.14     0.04  -0.09  -0.06
   6   8     0.02  -0.06  -0.03     0.16  -0.23   0.04     0.10  -0.12   0.06
   7   6     0.03   0.02  -0.06    -0.08   0.09  -0.16    -0.04   0.04  -0.05
   8   6     0.03   0.02  -0.03    -0.00   0.04  -0.01    -0.00   0.01   0.01
   9  16    -0.28   0.28   0.30     0.14   0.16   0.16     0.27  -0.01  -0.18
  10   6    -0.44   0.12  -0.32     0.09   0.12  -0.06    -0.33  -0.25   0.02
  11  16     0.26  -0.19  -0.01     0.09  -0.17  -0.19    -0.12   0.29   0.36
  12  15     0.01   0.03  -0.01    -0.09  -0.09   0.05     0.14   0.18  -0.06
  13  16    -0.01  -0.02  -0.03     0.04   0.01   0.05    -0.04  -0.04  -0.08
  14   8    -0.04  -0.00  -0.05    -0.08  -0.02   0.02     0.14   0.03  -0.01
  15   6    -0.03   0.01   0.02    -0.05   0.03   0.00     0.09  -0.04  -0.02
  16   6    -0.01   0.01   0.01    -0.01   0.02   0.00     0.03  -0.03  -0.00
  17   8     0.01   0.02  -0.05     0.02  -0.02   0.03    -0.02   0.06  -0.12
  18   6     0.03  -0.02   0.01     0.03   0.03  -0.05    -0.06  -0.08   0.10
  19   6     0.01   0.02  -0.00     0.05   0.07   0.02    -0.10  -0.14  -0.04
  20   1     0.01   0.00   0.00    -0.10   0.20   0.10    -0.01   0.04   0.02
  21   1    -0.03  -0.01   0.01     0.07   0.08  -0.22     0.01   0.02  -0.03
  22   1     0.01   0.03   0.01     0.05  -0.16   0.09     0.00  -0.02   0.01
  23   1     0.01  -0.01  -0.04     0.02   0.01   0.12     0.01   0.01   0.04
  24   1     0.06  -0.06  -0.03    -0.09   0.09   0.09    -0.04   0.05   0.03
  25   1     0.00   0.02  -0.01    -0.06   0.12  -0.01    -0.03   0.06   0.01
  26   1     0.01   0.01  -0.03    -0.05   0.01  -0.15    -0.02   0.00  -0.07
  27   1    -0.02   0.03   0.01    -0.12   0.10   0.11    -0.05   0.03   0.04
  28   1     0.01   0.01  -0.05     0.01   0.01  -0.17     0.01   0.00  -0.06
  29   1     0.04  -0.02   0.01     0.14  -0.09   0.10     0.05  -0.04   0.04
  30   1    -0.22  -0.14  -0.05     0.04   0.03  -0.03    -0.17  -0.21   0.04
  31   1    -0.20   0.11  -0.24     0.02   0.04   0.01    -0.16   0.00  -0.14
  32   1    -0.02   0.01   0.01    -0.01   0.01  -0.00     0.03  -0.02  -0.01
  33   1     0.01   0.00   0.02    -0.02   0.01  -0.00     0.02  -0.02  -0.01
  34   1    -0.00   0.01  -0.02     0.00   0.01   0.03     0.00  -0.02  -0.01
  35   1    -0.02   0.01   0.01     0.02  -0.00  -0.01    -0.01  -0.00   0.01
  36   1     0.02  -0.01   0.01    -0.02   0.01  -0.01     0.02  -0.00   0.01
  37   1     0.02  -0.02   0.00    -0.00   0.03  -0.01     0.01  -0.08   0.02
  38   1     0.01  -0.00   0.02     0.01   0.00  -0.04    -0.02  -0.01   0.08
  39   1     0.01  -0.05  -0.01     0.03   0.07   0.01    -0.05  -0.13  -0.02
  40   1     0.02   0.04   0.05     0.01   0.01  -0.02    -0.02  -0.02   0.04
  41   1    -0.03   0.04  -0.05     0.01   0.00   0.05    -0.02  -0.00  -0.10
                     31                     32                     33
                        a                      a                      a 
 Frequencies --   321.7838               329.5820               367.9329
 Red. masses --    16.0843                16.1286                15.5714
 Frc consts  --     0.0000                 0.0000                 0.0000
 IR Inten    --    15.6375                 5.6895                 6.1863
 Raman Activ --     0.0000                 0.0000                 0.0000
 Depolar     --     0.0000                 0.0000                 0.0000
 Atom AN      X      Y      Z        X      Y      Z        X      Y      Z
   1   6    -0.00  -0.00   0.00    -0.00  -0.00  -0.00     0.00   0.14   0.02
   2   6     0.01  -0.01  -0.00     0.00  -0.00  -0.00     0.09  -0.03   0.05
   3   8     0.01  -0.01   0.02     0.01  -0.00   0.01     0.04  -0.05  -0.43
   4  15     0.02   0.00   0.02    -0.02   0.00  -0.03     0.28  -0.05  -0.28
   5  16     0.01   0.00  -0.00    -0.01   0.00   0.00    -0.04  -0.09   0.08
   6   8     0.01  -0.02  -0.00    -0.01   0.01  -0.01     0.19   0.36   0.20
   7   6     0.00   0.00  -0.01     0.00   0.00   0.00    -0.15  -0.17   0.19
   8   6     0.00   0.01  -0.01     0.01  -0.00   0.01    -0.27  -0.11   0.25
   9  16    -0.02   0.04   0.02    -0.03   0.01   0.05    -0.10   0.04  -0.02
  10   6    -0.12  -0.03  -0.00     0.11   0.07  -0.00    -0.07   0.02  -0.04
  11  16    -0.24  -0.28  -0.05     0.11  -0.02  -0.08     0.01  -0.02  -0.01
  12  15    -0.06   0.09  -0.12    -0.32   0.25   0.18     0.00   0.00   0.00
  13  16    -0.00   0.09  -0.19     0.16  -0.12  -0.04     0.00   0.00  -0.00
  14   8     0.36   0.11   0.25     0.03   0.05   0.42     0.00   0.00   0.00
  15   6     0.17  -0.19  -0.15    -0.04  -0.05  -0.15     0.00  -0.00  -0.00
  16   6     0.11  -0.21  -0.03     0.09  -0.12  -0.02     0.00  -0.00  -0.00
  17   8    -0.17   0.11   0.39    -0.03   0.17  -0.44    -0.00   0.00   0.00
  18   6    -0.01   0.28   0.03     0.00  -0.15   0.09     0.00   0.00  -0.00
  19   6     0.04   0.06   0.01    -0.05  -0.10  -0.02     0.01   0.00   0.00
  20   1     0.00  -0.00  -0.00    -0.00   0.00   0.00    -0.02   0.12   0.04
  21   1    -0.00  -0.00   0.01    -0.00  -0.00  -0.00    -0.04   0.03  -0.08
  22   1    -0.00   0.01  -0.00     0.00  -0.00   0.00     0.02   0.03   0.04
  23   1    -0.00  -0.00  -0.00    -0.00  -0.00  -0.00     0.06  -0.07   0.06
  24   1     0.01  -0.01  -0.00     0.00  -0.00  -0.00    -0.04   0.05   0.05
  25   1    -0.00   0.00  -0.00     0.00  -0.00  -0.00    -0.05  -0.10   0.06
  26   1     0.00   0.00  -0.01     0.00  -0.00   0.01    -0.05  -0.05   0.12
  27   1    -0.00   0.00   0.00     0.01  -0.00  -0.00    -0.10  -0.04   0.09
  28   1    -0.00   0.00  -0.00     0.00  -0.00   0.01    -0.13  -0.05   0.12
  29   1     0.00   0.00  -0.00    -0.00   0.00  -0.00    -0.04   0.04   0.08
  30   1    -0.03  -0.02  -0.01     0.05   0.05  -0.01    -0.03  -0.01  -0.01
  31   1    -0.05   0.00   0.01     0.05   0.00   0.03    -0.02   0.01  -0.03
  32   1     0.14  -0.07  -0.09     0.11  -0.02  -0.11     0.00  -0.00  -0.00
  33   1    -0.02  -0.06  -0.10    -0.11   0.00  -0.12     0.00   0.00  -0.00
  34   1     0.04  -0.06   0.09     0.06  -0.01   0.14     0.00  -0.00   0.00
  35   1     0.10  -0.11  -0.05     0.13  -0.12  -0.07     0.00  -0.00  -0.00
  36   1    -0.02  -0.01  -0.03    -0.06   0.00  -0.05    -0.00   0.00  -0.00
  37   1    -0.02   0.16   0.02     0.05  -0.17   0.00     0.00   0.00  -0.00
  38   1     0.01   0.07  -0.06     0.00  -0.00   0.15     0.00   0.00  -0.00
  39   1     0.00   0.09   0.01    -0.03  -0.15  -0.02     0.00   0.00   0.00
  40   1    -0.03  -0.05  -0.06     0.02   0.03   0.07     0.00   0.00   0.00
  41   1     0.09  -0.03   0.06    -0.05   0.03  -0.12     0.00   0.00   0.00
                     34                     35                     36
                        a                      a                      a 
 Frequencies --   389.3060               425.5784               439.8607
 Red. masses --    21.0549                19.8108                19.6141
 Frc consts  --     0.0000                 0.0000                 0.0000
 IR Inten    --    16.0474                73.6700               209.7403
 Raman Activ --     0.0000                 0.0000                 0.0000
 Depolar     --     0.0000                 0.0000                 0.0000
 Atom AN      X      Y      Z        X      Y      Z        X      Y      Z
   1   6    -0.01  -0.14  -0.03    -0.01  -0.04  -0.01    -0.01  -0.14  -0.03
   2   6    -0.09  -0.01  -0.02    -0.04   0.02  -0.01    -0.14   0.07  -0.02
   3   8     0.09   0.07   0.11     0.05   0.04   0.07     0.15   0.15   0.28
   4  15     0.19   0.08   0.24    -0.10   0.01  -0.06    -0.41   0.06  -0.29
   5  16     0.06   0.32   0.02     0.01  -0.02   0.01     0.02  -0.21   0.00
   6   8     0.42  -0.20   0.05     0.11   0.03  -0.00     0.34   0.19  -0.03
   7   6    -0.05  -0.12  -0.23    -0.01  -0.04  -0.06    -0.01  -0.14  -0.18
   8   6    -0.14   0.00   0.15    -0.03  -0.01   0.04    -0.11  -0.02   0.12
   9  16    -0.41  -0.12  -0.31     0.06  -0.02  -0.01     0.25   0.08   0.16
  10   6     0.02   0.00  -0.02    -0.01   0.02   0.04    -0.02   0.05   0.02
  11  16    -0.03  -0.02   0.00     0.29   0.32   0.19    -0.01  -0.04  -0.03
  12  15     0.03   0.03   0.01    -0.24  -0.24  -0.05    -0.02  -0.01  -0.00
  13  16     0.01  -0.01   0.02    -0.06   0.06  -0.23     0.00   0.01  -0.01
  14   8    -0.01  -0.01  -0.01     0.03   0.10   0.14    -0.01  -0.12   0.00
  15   6    -0.00   0.00   0.00    -0.06  -0.03  -0.02     0.08   0.02  -0.00
  16   6    -0.00   0.00   0.00     0.03  -0.07  -0.01    -0.03   0.07   0.00
  17   8     0.01   0.01  -0.02    -0.35  -0.21   0.12     0.15   0.07   0.00
  18   6    -0.00  -0.00   0.01     0.15  -0.19  -0.19    -0.06   0.09   0.07
  19   6    -0.00  -0.01  -0.00     0.16   0.20   0.07    -0.06  -0.07  -0.02
  20   1    -0.01  -0.07  -0.02    -0.00  -0.03  -0.01    -0.01  -0.10  -0.03
  21   1     0.05  -0.02   0.01     0.02  -0.01   0.01     0.08  -0.02   0.04
  22   1    -0.01  -0.08  -0.02    -0.01  -0.03  -0.01    -0.02  -0.09  -0.02
  23   1    -0.03  -0.00  -0.01    -0.01   0.01  -0.00    -0.05   0.03  -0.02
  24   1    -0.02  -0.02  -0.01    -0.01  -0.00  -0.01    -0.02  -0.01  -0.02
  25   1    -0.07   0.05  -0.01    -0.01   0.00  -0.01    -0.03  -0.02  -0.03
  26   1    -0.04  -0.05  -0.16    -0.01  -0.01  -0.02    -0.01  -0.04  -0.05
  27   1    -0.13   0.01   0.13    -0.03  -0.01   0.03    -0.10  -0.02   0.09
  28   1    -0.09  -0.02   0.04    -0.02  -0.01   0.03    -0.09  -0.03   0.08
  29   1     0.08   0.07   0.10     0.02   0.03   0.02     0.06   0.09   0.07
  30   1     0.02   0.09   0.00    -0.04  -0.05   0.03    -0.00  -0.04  -0.00
  31   1     0.05  -0.04   0.05    -0.01   0.02  -0.07    -0.03   0.04  -0.01
  32   1    -0.00   0.00   0.00     0.01  -0.02  -0.02     0.03   0.01  -0.00
  33   1     0.00   0.00   0.00    -0.04  -0.00  -0.02     0.01   0.01  -0.01
  34   1    -0.00   0.00  -0.00     0.04   0.01   0.02    -0.04  -0.02  -0.00
  35   1    -0.00   0.00   0.00     0.03  -0.05  -0.01    -0.02   0.05   0.00
  36   1    -0.00   0.00   0.00     0.01  -0.04  -0.01    -0.03   0.05   0.00
  37   1     0.00  -0.01   0.00     0.06  -0.04  -0.05    -0.03   0.03   0.02
  38   1    -0.00   0.00   0.01     0.05  -0.04  -0.04    -0.02   0.02  -0.00
  39   1    -0.00  -0.01  -0.00     0.13   0.14   0.03    -0.05  -0.05  -0.01
  40   1    -0.00  -0.00   0.00     0.12   0.14   0.04    -0.05  -0.06  -0.02
  41   1     0.00  -0.00  -0.01    -0.12   0.06   0.11     0.05  -0.02  -0.04
                     37                     38                     39
                        a                      a                      a 
 Frequencies --   450.5905               460.0211               491.2161
 Red. masses --    16.1015                14.2024                17.7032
 Frc consts  --     0.0000                 0.0000                 0.0000
 IR Inten    --     4.0406                17.1570               128.6901
 Raman Activ --     0.0000                 0.0000                 0.0000
 Depolar     --     0.0000                 0.0000                 0.0000
 Atom AN      X      Y      Z        X      Y      Z        X      Y      Z
   1   6    -0.00  -0.04  -0.01     0.04   0.26   0.03     0.00   0.00  -0.00
   2   6    -0.05   0.03  -0.00     0.33  -0.21   0.02    -0.00   0.00   0.00
   3   8     0.04   0.05   0.06    -0.38  -0.43   0.07    -0.01  -0.00   0.03
   4  15    -0.08   0.01  -0.07    -0.27   0.08  -0.04    -0.04   0.01  -0.02
   5  16     0.00  -0.08  -0.00     0.04   0.22   0.06     0.00  -0.03  -0.00
   6   8     0.06   0.05  -0.01     0.20  -0.01  -0.06     0.02   0.02  -0.01
   7   6    -0.00  -0.02  -0.03     0.02  -0.09  -0.19     0.00  -0.01  -0.02
   8   6    -0.02  -0.00   0.02    -0.04   0.00   0.04    -0.00  -0.00   0.01
   9  16     0.06   0.04   0.04     0.12  -0.02   0.01     0.04   0.02   0.03
  10   6    -0.02  -0.01  -0.00     0.03  -0.04   0.03     0.01  -0.01  -0.04
  11  16    -0.20  -0.12  -0.09    -0.01   0.01  -0.00    -0.16  -0.12  -0.08
  12  15     0.24   0.14   0.00     0.01  -0.00  -0.00     0.18   0.37   0.03
  13  16     0.05  -0.05   0.27     0.00  -0.00   0.01     0.06  -0.09   0.22
  14   8     0.06   0.52  -0.18     0.01   0.03  -0.01    -0.02  -0.33  -0.12
  15   6    -0.36  -0.04   0.02    -0.02  -0.00   0.00     0.26  -0.03  -0.02
  16   6     0.12  -0.25  -0.00     0.01  -0.02  -0.00    -0.05   0.09  -0.00
  17   8    -0.09  -0.06  -0.08     0.01  -0.00  -0.00    -0.55   0.00  -0.05
  18   6     0.05  -0.12  -0.07    -0.00  -0.00   0.00     0.11  -0.14  -0.10
  19   6     0.04   0.04   0.01    -0.00  -0.00  -0.00     0.13   0.12   0.04
  20   1    -0.00  -0.03  -0.01     0.06   0.18   0.03     0.00  -0.00  -0.00
  21   1     0.03  -0.00   0.01    -0.20   0.01  -0.03    -0.00   0.00   0.00
  22   1    -0.01  -0.03  -0.01     0.03   0.23   0.03    -0.00   0.00  -0.00
  23   1    -0.01   0.01  -0.00     0.05   0.03  -0.05    -0.00   0.01  -0.00
  24   1    -0.01   0.00  -0.00     0.16  -0.08  -0.02     0.00  -0.00  -0.00
  25   1    -0.00  -0.01  -0.01    -0.02   0.01  -0.03     0.00  -0.00  -0.00
  26   1    -0.00  -0.01  -0.00    -0.00  -0.03  -0.08     0.00  -0.00  -0.00
  27   1    -0.02  -0.01   0.02    -0.06  -0.01   0.05    -0.01  -0.01   0.01
  28   1    -0.02  -0.01   0.02    -0.05  -0.01   0.04    -0.00  -0.00   0.01
  29   1     0.01   0.02   0.01     0.05   0.06   0.04     0.01   0.01   0.00
  30   1     0.01  -0.01  -0.01     0.01  -0.01   0.00     0.02   0.01  -0.02
  31   1    -0.02   0.00   0.02     0.01  -0.01   0.01     0.00  -0.00   0.03
  32   1    -0.16  -0.03   0.04    -0.01  -0.00   0.00     0.07   0.01  -0.01
  33   1    -0.01  -0.05   0.06    -0.00  -0.00   0.00     0.05  -0.00  -0.02
  34   1     0.16   0.10  -0.01     0.01   0.01  -0.00    -0.10  -0.08  -0.02
  35   1     0.05  -0.18  -0.00     0.00  -0.01  -0.00    -0.04   0.11   0.01
  36   1     0.11  -0.20   0.00     0.01  -0.01   0.00    -0.05   0.10   0.00
  37   1     0.03  -0.05  -0.02    -0.00   0.00   0.00     0.08  -0.10  -0.04
  38   1     0.01  -0.02   0.01    -0.00  -0.00  -0.00     0.05   0.01   0.07
  39   1     0.04   0.03   0.01    -0.00  -0.00  -0.00     0.10   0.07   0.02
  40   1     0.04   0.04   0.01    -0.00  -0.00  -0.00     0.10   0.11   0.05
  41   1    -0.05   0.02   0.03     0.00  -0.00  -0.00    -0.10   0.05   0.06
                     40                     41                     42
                        a                      a                      a 
 Frequencies --   610.6108               632.6979               670.1628
 Red. masses --    25.7612                24.3094                18.4486
 Frc consts  --     0.0000                 0.0000                 0.0000
 IR Inten    --   197.9171               114.5744                 8.9345
 Raman Activ --     0.0000                 0.0000                 0.0000
 Depolar     --     0.0000                 0.0000                 0.0000
 Atom AN      X      Y      Z        X      Y      Z        X      Y      Z
   1   6    -0.00  -0.01  -0.00    -0.02  -0.04  -0.01    -0.00   0.00   0.00
   2   6     0.01  -0.02  -0.00     0.05  -0.09  -0.02     0.00  -0.00   0.00
   3   8     0.04   0.01  -0.04     0.26   0.08  -0.18    -0.01  -0.01  -0.01
   4  15    -0.04  -0.06  -0.03    -0.35  -0.34  -0.26     0.01   0.04   0.02
   5  16     0.02   0.09   0.02     0.11   0.50   0.09    -0.01  -0.03  -0.01
   6   8     0.00  -0.06   0.04     0.06  -0.30   0.20    -0.01   0.01  -0.00
   7   6    -0.01   0.01   0.04    -0.04   0.07   0.21     0.00  -0.01  -0.00
   8   6     0.00  -0.00   0.00    -0.01   0.00   0.00    -0.00  -0.00   0.00
   9  16     0.01  -0.03  -0.02     0.09  -0.05   0.03     0.13  -0.27  -0.02
  10   6    -0.09   0.03   0.14    -0.08   0.14   0.02     0.19   0.46  -0.58
  11  16     0.13   0.08  -0.01    -0.03  -0.03  -0.02    -0.22  -0.04   0.44
  12  15    -0.40  -0.25  -0.36     0.09   0.07   0.07    -0.04  -0.06  -0.10
  13  16     0.19  -0.08   0.51    -0.03   0.01  -0.08     0.03  -0.01   0.06
  14   8     0.16   0.10  -0.25    -0.03  -0.02   0.03    -0.00   0.01   0.03
  15   6     0.15  -0.06  -0.03    -0.02   0.01   0.00    -0.01  -0.00   0.00
  16   6     0.01  -0.04  -0.00    -0.00   0.01   0.00     0.00  -0.00   0.00
  17   8    -0.14   0.22  -0.12     0.02  -0.04   0.02    -0.02   0.02  -0.02
  18   6    -0.02   0.16   0.07     0.00  -0.03  -0.02    -0.00   0.04   0.02
  19   6     0.01   0.02   0.00    -0.00  -0.00  -0.00     0.00   0.00   0.00
  20   1    -0.00  -0.00   0.00    -0.02  -0.01   0.00     0.00   0.00  -0.00
  21   1    -0.00  -0.00  -0.00    -0.02  -0.02  -0.01    -0.00  -0.00  -0.00
  22   1     0.00  -0.00   0.00     0.01  -0.01   0.01    -0.00   0.00   0.00
  23   1     0.01  -0.01   0.01     0.04  -0.09   0.04     0.00  -0.00  -0.00
  24   1    -0.01   0.00   0.00    -0.05   0.01   0.02     0.00   0.00  -0.00
  25   1    -0.00   0.02   0.01    -0.03   0.07   0.08     0.00  -0.00  -0.00
  26   1    -0.00   0.00  -0.00    -0.00   0.02  -0.02    -0.00  -0.00  -0.00
  27   1     0.01   0.01  -0.01     0.05   0.03  -0.04     0.00   0.00  -0.00
  28   1     0.01   0.00  -0.01     0.04   0.01  -0.05    -0.00  -0.00   0.00
  29   1    -0.01  -0.01  -0.00    -0.07  -0.09  -0.02     0.00   0.00   0.00
  30   1    -0.03  -0.01   0.03    -0.02   0.00  -0.01     0.01   0.10  -0.12
  31   1    -0.02   0.01  -0.01    -0.02   0.04  -0.00     0.05   0.12  -0.14
  32   1    -0.01  -0.01   0.02     0.00   0.00  -0.00     0.00  -0.00  -0.00
  33   1     0.09  -0.04   0.02    -0.01   0.01  -0.00    -0.01   0.00  -0.00
  34   1    -0.03  -0.05  -0.01     0.00   0.01   0.00     0.00   0.00   0.00
  35   1    -0.01   0.01   0.01     0.00  -0.00  -0.00     0.00  -0.00  -0.00
  36   1     0.00   0.02   0.01    -0.00  -0.00  -0.00     0.00  -0.00  -0.00
  37   1     0.01  -0.00   0.01    -0.00  -0.00  -0.00     0.00   0.00   0.00
  38   1     0.01   0.07   0.06    -0.00  -0.01  -0.01     0.00   0.01   0.01
  39   1    -0.01  -0.03  -0.00     0.00   0.01   0.00    -0.01  -0.01  -0.00
  40   1    -0.03  -0.02   0.00     0.01   0.01   0.00    -0.01  -0.01  -0.00
  41   1     0.06   0.00  -0.03    -0.01  -0.00   0.01     0.02   0.00  -0.01
                     43                     44                     45
                        a                      a                      a 
 Frequencies --   689.3824               736.2224               745.9495
 Red. masses --    16.9976                19.7857                18.7772
 Frc consts  --     0.0000                 0.0000                 0.0000
 IR Inten    --    45.0739               216.1401               172.8740
 Raman Activ --     0.0000                 0.0000                 0.0000
 Depolar     --     0.0000                 0.0000                 0.0000
 Atom AN      X      Y      Z        X      Y      Z        X      Y      Z
   1   6     0.00   0.01   0.00     0.00   0.01   0.00     0.05   0.12   0.03
   2   6    -0.00   0.01   0.00    -0.01   0.02   0.00    -0.21   0.29   0.05
   3   8    -0.04  -0.03   0.00    -0.02  -0.01   0.02    -0.33  -0.19   0.33
   4  15     0.09   0.09   0.09     0.02  -0.02  -0.03     0.32  -0.03  -0.50
   5  16    -0.02  -0.09  -0.02     0.00   0.01   0.00    -0.01   0.05   0.02
   6   8    -0.02   0.04  -0.03     0.00  -0.00   0.00     0.05  -0.25   0.15
   7   6     0.01  -0.01  -0.03     0.00  -0.00   0.00     0.01   0.02   0.15
   8   6     0.00  -0.00  -0.00     0.00  -0.00   0.00    -0.03  -0.01   0.03
   9  16     0.18  -0.40  -0.09     0.00   0.01  -0.00     0.00  -0.02   0.01
  10   6    -0.49   0.54   0.33    -0.04  -0.02   0.05    -0.01   0.02  -0.01
  11  16     0.09  -0.02  -0.18     0.01   0.01  -0.03     0.00  -0.00   0.00
  12  15     0.05   0.07   0.04     0.46  -0.35  -0.27    -0.03   0.02   0.01
  13  16    -0.01   0.00  -0.03    -0.00   0.00   0.02    -0.00   0.00  -0.00
  14   8    -0.01  -0.02   0.01    -0.15  -0.14   0.37     0.01   0.01  -0.02
  15   6    -0.02   0.01   0.00    -0.24   0.07   0.07     0.01  -0.00  -0.00
  16   6    -0.00   0.01  -0.00    -0.02   0.08   0.01     0.00  -0.00  -0.00
  17   8     0.02  -0.03   0.02    -0.29   0.20  -0.18     0.02  -0.01   0.01
  18   6     0.00  -0.03  -0.01    -0.03   0.23   0.09     0.00  -0.01  -0.00
  19   6    -0.00  -0.01  -0.00     0.06   0.06   0.00    -0.00  -0.00   0.00
  20   1     0.01   0.00  -0.00     0.00  -0.00  -0.00     0.04  -0.03  -0.02
  21   1    -0.01   0.00   0.00     0.01   0.01   0.00     0.14   0.07   0.05
  22   1    -0.00   0.00  -0.00    -0.00  -0.00  -0.00    -0.03  -0.05  -0.04
  23   1    -0.01   0.01  -0.01    -0.01   0.01  -0.00    -0.12   0.17  -0.07
  24   1     0.01  -0.00  -0.00     0.00   0.00  -0.00     0.06   0.01  -0.04
  25   1     0.01  -0.01  -0.01    -0.00   0.00   0.00    -0.03   0.09   0.07
  26   1     0.00  -0.00   0.00    -0.00  -0.00  -0.00    -0.02  -0.01  -0.06
  27   1    -0.01  -0.01   0.01     0.00   0.01  -0.00     0.05   0.05  -0.04
  28   1    -0.00  -0.00   0.01    -0.00  -0.00  -0.00    -0.00  -0.00  -0.04
  29   1     0.01   0.01   0.00    -0.00   0.00  -0.00    -0.07  -0.07  -0.02
  30   1    -0.06   0.18   0.04    -0.00  -0.00   0.01    -0.00   0.01  -0.00
  31   1    -0.07   0.08   0.13    -0.01  -0.01   0.01     0.00   0.00   0.00
  32   1    -0.00   0.00  -0.00     0.04   0.02  -0.04    -0.00  -0.00   0.00
  33   1    -0.01   0.00  -0.00    -0.17   0.04  -0.06     0.01  -0.00   0.00
  34   1     0.00   0.01  -0.00     0.06   0.11   0.01    -0.00  -0.01  -0.00
  35   1    -0.00  -0.00  -0.00     0.04  -0.01  -0.02    -0.00  -0.00   0.00
  36   1     0.00  -0.00  -0.00     0.00  -0.06  -0.03     0.00   0.00   0.00
  37   1    -0.00  -0.00  -0.00     0.04  -0.03   0.01    -0.00   0.00  -0.00
  38   1    -0.00  -0.01  -0.01    -0.00   0.10   0.14     0.00  -0.01  -0.01
  39   1     0.00   0.01   0.00     0.02  -0.03  -0.00    -0.00   0.00   0.00
  40   1     0.01   0.00  -0.00    -0.04  -0.04   0.02     0.00   0.00  -0.00
  41   1    -0.01  -0.00   0.01     0.11   0.01  -0.04    -0.01  -0.00   0.00
                     46                     47                     48
                        a                      a                      a 
 Frequencies --   755.8145               762.6230               801.5634
 Red. masses --    22.3221                22.7434                 5.8898
 Frc consts  --     0.0000                 0.0000                 0.0000
 IR Inten    --   234.0245               331.3707                 8.4142
 Raman Activ --     0.0000                 0.0000                 0.0000
 Depolar     --     0.0000                 0.0000                 0.0000
 Atom AN      X      Y      Z        X      Y      Z        X      Y      Z
   1   6    -0.01  -0.06  -0.02    -0.00  -0.00  -0.00     0.00   0.01   0.00
   2   6     0.13  -0.18  -0.02     0.01  -0.01  -0.00    -0.00   0.01   0.00
   3   8     0.09   0.06  -0.09     0.01   0.00  -0.01    -0.01  -0.02  -0.00
   4  15    -0.09   0.67  -0.10    -0.00   0.03  -0.00     0.02   0.03   0.02
   5  16    -0.05  -0.29  -0.06    -0.00  -0.01  -0.00    -0.00   0.00   0.00
   6   8     0.11  -0.38   0.14     0.00  -0.02   0.01    -0.01   0.00   0.00
   7   6    -0.00   0.04   0.24    -0.00   0.00   0.01     0.01  -0.01  -0.00
   8   6    -0.05  -0.01   0.05    -0.00   0.00  -0.00     0.00  -0.00  -0.00
   9  16    -0.03  -0.01  -0.01    -0.01   0.02   0.00    -0.10  -0.09  -0.08
  10   6     0.02  -0.04   0.01    -0.01  -0.04   0.02     0.39   0.22   0.30
  11  16     0.01   0.00  -0.01     0.03   0.01   0.01    -0.09  -0.06  -0.11
  12  15     0.02  -0.02   0.02    -0.07   0.34  -0.61     0.01   0.03   0.02
  13  16    -0.01   0.00  -0.01     0.10  -0.04   0.26    -0.00   0.00   0.00
  14   8     0.00   0.00  -0.00    -0.08  -0.15   0.29     0.00  -0.03   0.00
  15   6    -0.00   0.00   0.00    -0.16   0.04   0.05    -0.02   0.01  -0.00
  16   6    -0.00  -0.00   0.00    -0.01   0.08   0.01    -0.00   0.01   0.00
  17   8    -0.02   0.01  -0.01     0.23  -0.17   0.22    -0.00  -0.01  -0.00
  18   6    -0.00   0.02   0.01     0.04  -0.20  -0.07     0.00   0.00   0.00
  19   6     0.01   0.00   0.00    -0.06  -0.06  -0.00     0.00   0.00  -0.00
  20   1    -0.01   0.03   0.01    -0.00   0.00   0.00     0.01   0.00  -0.00
  21   1    -0.10  -0.04  -0.03    -0.00  -0.00  -0.00     0.00   0.00   0.00
  22   1     0.02   0.04   0.02     0.00   0.00   0.00    -0.00  -0.00  -0.00
  23   1     0.05  -0.06   0.02     0.00  -0.00   0.00    -0.01   0.00  -0.01
  24   1    -0.00  -0.02   0.01    -0.00  -0.00   0.00     0.01   0.00  -0.00
  25   1    -0.04   0.16   0.11    -0.00  -0.00   0.00     0.00   0.01  -0.00
  26   1    -0.06  -0.02  -0.09     0.00   0.00   0.00    -0.01  -0.01  -0.01
  27   1     0.07   0.08  -0.06    -0.00  -0.01   0.00     0.00   0.01  -0.00
  28   1    -0.01  -0.00  -0.07     0.01   0.00  -0.00    -0.01  -0.00  -0.00
  29   1    -0.11  -0.11  -0.02    -0.00  -0.01  -0.00     0.00   0.01  -0.00
  30   1     0.01   0.01   0.01     0.00  -0.01   0.00    -0.20  -0.49   0.21
  31   1     0.00  -0.01   0.01    -0.00  -0.01  -0.01    -0.17   0.35  -0.42
  32   1    -0.00  -0.00   0.00     0.05   0.03  -0.04    -0.00   0.00  -0.00
  33   1    -0.00  -0.00   0.00    -0.14   0.03  -0.06    -0.01   0.00  -0.00
  34   1     0.00   0.00   0.00     0.04   0.08   0.00     0.00   0.01   0.00
  35   1    -0.00  -0.00   0.00     0.03   0.02  -0.02     0.00  -0.00  -0.00
  36   1    -0.00  -0.00  -0.00    -0.00  -0.04  -0.02     0.00  -0.00  -0.00
  37   1     0.00  -0.00   0.00    -0.05   0.05  -0.00     0.00   0.00   0.00
  38   1     0.00   0.01   0.01     0.01  -0.09  -0.14    -0.00  -0.00   0.00
  39   1     0.00  -0.00  -0.00    -0.02   0.04   0.00     0.00  -0.00  -0.00
  40   1    -0.00  -0.00   0.00     0.04   0.04  -0.02    -0.00  -0.00   0.00
  41   1     0.01   0.00  -0.00    -0.11  -0.01   0.04     0.00   0.00  -0.00
                     49                     50                     51
                        a                      a                      a 
 Frequencies --   819.5728               820.0268               823.0816
 Red. masses --     2.7962                 2.5599                 2.8281
 Frc consts  --     0.0000                 0.0000                 0.0000
 IR Inten    --     5.1869                 0.5227                 5.2955
 Raman Activ --     0.0000                 0.0000                 0.0000
 Depolar     --     0.0000                 0.0000                 0.0000
 Atom AN      X      Y      Z        X      Y      Z        X      Y      Z
   1   6     0.01   0.01  -0.03    -0.04  -0.04   0.09    -0.01  -0.00   0.01
   2   6     0.01   0.03  -0.07    -0.04  -0.09   0.23    -0.01  -0.01   0.03
   3   8    -0.02  -0.03   0.04     0.07   0.09  -0.12     0.01   0.01  -0.02
   4  15     0.01  -0.00  -0.01    -0.04   0.02   0.02    -0.00  -0.01   0.01
   5  16    -0.00   0.00   0.00     0.00  -0.01  -0.00     0.00   0.00   0.00
   6   8    -0.01   0.00   0.00     0.03  -0.03  -0.01    -0.00   0.01  -0.01
   7   6     0.01  -0.01  -0.00    -0.05   0.05   0.01     0.01  -0.01   0.01
   8   6     0.01  -0.00  -0.00    -0.03   0.01   0.01     0.00  -0.00   0.00
   9  16     0.00  -0.00  -0.00    -0.00   0.00   0.00     0.00  -0.00   0.00
  10   6    -0.00   0.00   0.01    -0.00  -0.01  -0.00     0.00   0.00  -0.00
  11  16     0.00   0.01  -0.00     0.00   0.00   0.00    -0.00  -0.00  -0.00
  12  15     0.04  -0.05   0.04     0.02  -0.01   0.00    -0.04  -0.02   0.07
  13  16    -0.00   0.00  -0.01    -0.00   0.00  -0.00    -0.00   0.00  -0.01
  14   8    -0.00   0.01  -0.02    -0.00  -0.01   0.02    -0.00   0.09  -0.17
  15   6     0.01  -0.01   0.03    -0.00   0.01  -0.02     0.04  -0.06   0.26
  16   6     0.00  -0.01   0.01    -0.00   0.00  -0.01    -0.00  -0.04   0.12
  17   8    -0.12   0.04  -0.14    -0.04   0.01  -0.05     0.02   0.01   0.01
  18   6     0.11  -0.07   0.23     0.03  -0.02   0.08    -0.01  -0.00  -0.02
  19   6     0.07  -0.03   0.08     0.02  -0.01   0.03    -0.01   0.00  -0.00
  20   1    -0.10  -0.06   0.01     0.34   0.20  -0.02     0.05   0.03  -0.00
  21   1    -0.01  -0.00   0.04     0.03   0.01  -0.14     0.00   0.00  -0.02
  22   1     0.08   0.05   0.09    -0.25  -0.15  -0.28    -0.03  -0.02  -0.04
  23   1     0.09   0.01   0.10    -0.31  -0.04  -0.33    -0.04  -0.01  -0.05
  24   1    -0.14  -0.02   0.01     0.45   0.07  -0.05     0.06   0.01  -0.01
  25   1     0.00   0.02   0.00    -0.01  -0.09  -0.00     0.01   0.02   0.00
  26   1    -0.01  -0.01  -0.01     0.07   0.05   0.05    -0.02  -0.01  -0.01
  27   1     0.00   0.01  -0.00    -0.02  -0.07   0.01     0.01   0.02  -0.00
  28   1    -0.02  -0.01  -0.00     0.08   0.04   0.01    -0.02  -0.01  -0.00
  29   1     0.00   0.01  -0.00    -0.00  -0.04   0.01    -0.00   0.01  -0.00
  30   1    -0.00  -0.00   0.00     0.00   0.00  -0.00     0.00   0.00  -0.00
  31   1    -0.00   0.00  -0.00     0.00  -0.00   0.00     0.00   0.00   0.00
  32   1     0.03   0.03  -0.01    -0.03  -0.03   0.01     0.32   0.31  -0.13
  33   1    -0.03  -0.03  -0.03     0.02   0.02   0.02    -0.27  -0.28  -0.28
  34   1    -0.00  -0.00  -0.02    -0.00  -0.00   0.01     0.00   0.02  -0.15
  35   1     0.02   0.04  -0.01    -0.01  -0.03   0.01     0.16   0.38  -0.11
  36   1    -0.02  -0.03  -0.02     0.01   0.03   0.02    -0.15  -0.34  -0.22
  37   1    -0.42   0.16   0.09    -0.13   0.05   0.03     0.03  -0.01  -0.01
  38   1     0.26   0.08  -0.37     0.08   0.02  -0.11    -0.02  -0.01   0.03
  39   1    -0.41   0.01   0.01    -0.13   0.00   0.00     0.03  -0.00  -0.00
  40   1     0.28   0.15  -0.26     0.09   0.05  -0.08    -0.02  -0.01   0.02
  41   1    -0.04   0.08  -0.12    -0.01   0.02  -0.04     0.00  -0.01   0.01
                     52                     53                     54
                        a                      a                      a 
 Frequencies --   827.8285               911.4779               917.7373
 Red. masses --     3.0909                12.6280                13.6251
 Frc consts  --     0.0000                 0.0000                 0.0000
 IR Inten    --     4.8527               368.3526               240.9512
 Raman Activ --     0.0000                 0.0000                 0.0000
 Depolar     --     0.0000                 0.0000                 0.0000
 Atom AN      X      Y      Z        X      Y      Z        X      Y      Z
   1   6    -0.01  -0.01   0.02     0.01   0.04   0.01    -0.07  -0.25  -0.06
   2   6    -0.01  -0.01   0.04    -0.03   0.05  -0.01     0.19  -0.25   0.05
   3   8     0.03   0.02  -0.04     0.06  -0.10  -0.03    -0.31   0.56   0.19
   4  15    -0.01  -0.10   0.07    -0.03   0.02   0.03     0.18  -0.11  -0.19
   5  16     0.01   0.02   0.01    -0.00   0.00   0.00     0.01   0.01   0.00
   6   8    -0.10   0.16  -0.07     0.01   0.00  -0.03    -0.12  -0.01   0.22
   7   6     0.17  -0.18   0.07    -0.00   0.01   0.02     0.04  -0.07  -0.11
   8   6     0.09  -0.06   0.02    -0.01  -0.00   0.01     0.07   0.02  -0.06
   9  16     0.01   0.01   0.01     0.00   0.01   0.00     0.01  -0.01   0.00
  10   6    -0.01  -0.01  -0.00    -0.01  -0.01  -0.01    -0.00   0.02  -0.00
  11  16     0.00  -0.00  -0.00     0.01   0.02   0.01    -0.00   0.00   0.00
  12  15     0.01   0.01  -0.01    -0.13   0.17   0.03    -0.03   0.03   0.01
  13  16     0.00  -0.00   0.00     0.00  -0.00   0.01    -0.00  -0.00  -0.00
  14   8    -0.00  -0.01   0.02     0.25  -0.17  -0.08     0.06  -0.04  -0.02
  15   6    -0.00   0.00  -0.02    -0.17   0.04  -0.02    -0.04   0.01  -0.00
  16   6     0.00   0.00  -0.01    -0.04   0.14   0.02    -0.01   0.03   0.00
  17   8     0.00   0.00   0.01    -0.08  -0.59  -0.16    -0.01  -0.09  -0.02
  18   6     0.00  -0.01  -0.00    -0.03   0.26   0.22    -0.01   0.04   0.03
  19   6    -0.00  -0.01   0.00     0.19   0.19   0.02     0.03   0.03   0.00
  20   1     0.07   0.04  -0.00    -0.00  -0.02  -0.01     0.00   0.09   0.03
  21   1     0.01   0.00  -0.03     0.05   0.03   0.02    -0.29  -0.15  -0.12
  22   1    -0.05  -0.04  -0.06    -0.00  -0.02  -0.00     0.01   0.09   0.01
  23   1    -0.06  -0.02  -0.06    -0.01  -0.02  -0.01     0.07   0.10   0.04
  24   1     0.08   0.02  -0.01    -0.01  -0.01  -0.01     0.04   0.06   0.05
  25   1     0.09   0.45   0.01     0.00   0.01  -0.00    -0.03  -0.02   0.01
  26   1    -0.37  -0.22  -0.20    -0.01  -0.00  -0.00     0.00  -0.02  -0.00
  27   1     0.14   0.37  -0.07     0.00   0.00  -0.00    -0.02  -0.00   0.02
  28   1    -0.40  -0.19  -0.06    -0.00  -0.00  -0.00    -0.02  -0.01   0.02
  29   1    -0.06   0.13  -0.07    -0.01  -0.01  -0.00     0.08   0.09   0.00
  30   1     0.00   0.01  -0.00     0.00   0.01  -0.00    -0.00  -0.00   0.00
  31   1     0.00  -0.01   0.01     0.01  -0.01   0.01    -0.00   0.00  -0.00
  32   1    -0.02  -0.02   0.01    -0.01  -0.02  -0.02    -0.00  -0.01  -0.00
  33   1     0.02   0.02   0.02    -0.02  -0.06  -0.02    -0.00  -0.02  -0.00
  34   1     0.00  -0.00   0.01     0.08   0.16   0.02     0.02   0.04   0.01
  35   1    -0.01  -0.03   0.01     0.03  -0.03  -0.01     0.01  -0.01  -0.00
  36   1     0.01   0.03   0.02     0.02  -0.05  -0.01     0.01  -0.01  -0.00
  37   1    -0.01   0.01   0.00    -0.04  -0.03   0.03    -0.01  -0.00   0.01
  38   1     0.01   0.00  -0.01    -0.10  -0.04   0.04    -0.02  -0.01   0.01
  39   1    -0.01   0.00   0.00    -0.04  -0.08  -0.01    -0.01  -0.01  -0.00
  40   1     0.01   0.01  -0.01    -0.06  -0.08  -0.02    -0.01  -0.01  -0.00
  41   1    -0.01   0.00  -0.00     0.32   0.04  -0.14     0.05   0.01  -0.02
                     55                     56                     57
                        a                      a                      a 
 Frequencies --   934.5334               939.3179              1035.3720
 Red. masses --    11.1233                11.6444                 8.3684
 Frc consts  --     0.0000                 0.0000                 0.0000
 IR Inten    --   115.4829               149.4298               215.0357
 Raman Activ --     0.0000                 0.0000                 0.0000
 Depolar     --     0.0000                 0.0000                 0.0000
 Atom AN      X      Y      Z        X      Y      Z        X      Y      Z
   1   6    -0.00  -0.00  -0.00    -0.03  -0.10  -0.03    -0.11  -0.38  -0.11
   2   6     0.00  -0.00   0.00     0.06  -0.06   0.02     0.05   0.53   0.12
   3   8    -0.00   0.01   0.00    -0.14   0.17   0.12     0.17  -0.27  -0.02
   4  15     0.00   0.00  -0.01     0.06  -0.15   0.07    -0.03   0.02   0.02
   5  16     0.00  -0.00  -0.00     0.00   0.01   0.00    -0.00   0.01   0.00
   6   8    -0.02  -0.00   0.03     0.28   0.08  -0.57     0.04  -0.03  -0.07
   7   6     0.01  -0.01  -0.01    -0.05   0.20   0.25    -0.13  -0.04   0.12
   8   6     0.01   0.00  -0.01    -0.24  -0.10   0.21     0.10   0.05  -0.07
   9  16    -0.00  -0.00  -0.00     0.01  -0.01   0.00    -0.00   0.00   0.00
  10   6    -0.00  -0.00   0.02    -0.00   0.01   0.00     0.00  -0.01  -0.00
  11  16     0.01   0.01  -0.01    -0.00  -0.00   0.00     0.00   0.00   0.00
  12  15     0.07   0.07  -0.14    -0.00   0.01  -0.01     0.00  -0.00  -0.00
  13  16     0.00  -0.00   0.01     0.00  -0.00   0.00    -0.00  -0.00   0.00
  14   8    -0.46   0.32   0.16    -0.01   0.01   0.01     0.01  -0.00  -0.00
  15   6     0.29  -0.01   0.04     0.01  -0.00   0.00    -0.01   0.01   0.00
  16   6     0.10  -0.31  -0.03     0.00  -0.01  -0.00     0.00  -0.01  -0.00
  17   8     0.00  -0.30  -0.08     0.00  -0.02  -0.00    -0.00  -0.01  -0.01
  18   6    -0.04   0.10   0.10    -0.00   0.01   0.01     0.02   0.02   0.00
  19   6     0.12   0.12   0.01     0.01   0.01   0.00    -0.01  -0.01  -0.00
  20   1     0.00   0.00   0.00    -0.02   0.02   0.01    -0.03   0.12   0.04
  21   1    -0.01  -0.00  -0.00    -0.12  -0.06  -0.04    -0.40  -0.20  -0.16
  22   1    -0.00   0.00  -0.00     0.02   0.05   0.02    -0.00   0.14  -0.00
  23   1     0.00   0.00   0.00     0.03   0.08   0.03     0.04   0.20   0.05
  24   1     0.00   0.00   0.00     0.01  -0.00   0.01     0.09   0.16   0.02
  25   1    -0.00   0.00   0.00     0.11   0.07  -0.05    -0.05  -0.03   0.04
  26   1    -0.00  -0.00  -0.00     0.03   0.06  -0.00    -0.06  -0.02   0.03
  27   1    -0.00   0.00   0.00     0.09   0.03  -0.08    -0.02   0.01   0.03
  28   1    -0.01  -0.00   0.00     0.05   0.02  -0.09    -0.01   0.00   0.03
  29   1     0.01   0.01   0.00    -0.29  -0.30  -0.02     0.09   0.10   0.00
  30   1    -0.00  -0.01   0.00    -0.01  -0.00   0.01     0.00   0.00  -0.00
  31   1    -0.01   0.01  -0.00     0.00   0.00  -0.01     0.00  -0.00   0.00
  32   1     0.01   0.08   0.03    -0.00   0.00   0.00    -0.00   0.01  -0.00
  33   1     0.01   0.13   0.02    -0.00   0.00   0.00    -0.00   0.00  -0.00
  34   1    -0.19  -0.37  -0.06    -0.01  -0.01  -0.00    -0.01  -0.01  -0.00
  35   1    -0.06   0.10   0.03    -0.00   0.00   0.00    -0.00   0.00   0.00
  36   1    -0.07   0.09  -0.00    -0.00   0.00  -0.00    -0.00   0.00  -0.00
  37   1    -0.03  -0.02   0.01    -0.00  -0.00   0.00     0.01   0.00   0.00
  38   1    -0.07  -0.04   0.01    -0.01  -0.00   0.00     0.01   0.01   0.00
  39   1    -0.02  -0.05  -0.01    -0.00  -0.00  -0.00     0.00   0.01   0.00
  40   1    -0.04  -0.05  -0.01    -0.00  -0.00  -0.00     0.00   0.00   0.00
  41   1     0.20   0.02  -0.08     0.01   0.00  -0.01    -0.02  -0.00   0.01
                     58                     59                     60
                        a                      a                      a 
 Frequencies --  1040.4162              1049.5395              1058.7475
 Red. masses --     8.5067                 9.6694                 9.8176
 Frc consts  --     0.0000                 0.0000                 0.0000
 IR Inten    --   174.7944               119.1828               138.3135
 Raman Activ --     0.0000                 0.0000                 0.0000
 Depolar     --     0.0000                 0.0000                 0.0000
 Atom AN      X      Y      Z        X      Y      Z        X      Y      Z
   1   6    -0.00  -0.02  -0.00    -0.04  -0.11  -0.02    -0.00  -0.00  -0.00
   2   6    -0.00   0.02   0.00     0.02   0.18   0.02     0.00   0.00   0.00
   3   8     0.01  -0.01  -0.00     0.08  -0.10  -0.05    -0.00  -0.00   0.00
   4  15    -0.00   0.00   0.00    -0.02   0.02   0.01    -0.00   0.00  -0.00
   5  16    -0.00  -0.00  -0.00    -0.00   0.01   0.00     0.00  -0.00   0.00
   6   8     0.00  -0.00  -0.01    -0.16   0.08   0.33    -0.00  -0.00   0.00
   7   6    -0.01  -0.01   0.01     0.43   0.11  -0.41     0.00   0.00   0.00
   8   6     0.01   0.01  -0.01    -0.30  -0.18   0.19    -0.00  -0.00  -0.00
   9  16    -0.00  -0.00  -0.00    -0.01   0.00  -0.00    -0.00  -0.00  -0.00
  10   6     0.00   0.00  -0.00    -0.00  -0.00   0.00     0.00   0.00   0.01
  11  16    -0.00  -0.01  -0.00     0.00  -0.00   0.00     0.01   0.01  -0.01
  12  15     0.01  -0.01  -0.01     0.00  -0.00   0.00     0.02   0.02  -0.02
  13  16     0.00  -0.00   0.00    -0.00   0.00  -0.00    -0.00   0.00  -0.00
  14   8    -0.11   0.05   0.01    -0.00   0.00  -0.00    -0.35   0.19   0.04
  15   6     0.11  -0.20  -0.02     0.00  -0.00   0.00     0.30  -0.48  -0.06
  16   6    -0.05   0.16   0.02    -0.00   0.00  -0.00    -0.09   0.33   0.05
  17   8     0.02   0.27   0.15    -0.00   0.01   0.00     0.01  -0.17  -0.08
  18   6    -0.31  -0.43  -0.11    -0.01  -0.01  -0.00     0.14   0.19   0.06
  19   6     0.28   0.27   0.02     0.01   0.00  -0.00    -0.11  -0.10  -0.00
  20   1    -0.00   0.01   0.00     0.00   0.04   0.01    -0.00  -0.00  -0.00
  21   1    -0.02  -0.01  -0.01    -0.10  -0.05  -0.05    -0.00  -0.00  -0.00
  22   1     0.00   0.01   0.00    -0.01   0.03  -0.01    -0.00  -0.00  -0.00
  23   1     0.00   0.01   0.00     0.02   0.02   0.02     0.00   0.00   0.00
  24   1     0.00   0.01   0.00     0.02   0.07   0.01     0.00   0.00   0.00
  25   1    -0.00  -0.00   0.00     0.13   0.09  -0.11    -0.00   0.00   0.00
  26   1    -0.01  -0.00   0.00     0.18   0.06  -0.11     0.00   0.00  -0.00
  27   1    -0.00   0.00   0.00     0.05  -0.04  -0.07     0.00   0.00  -0.00
  28   1     0.00   0.00   0.00     0.01  -0.02  -0.09    -0.00  -0.00   0.00
  29   1     0.01   0.01   0.00    -0.25  -0.28  -0.01     0.00   0.00   0.00
[...]
  33   1     0.00   0.00  -0.00     0.00   0.00  -0.00     0.00   0.00  -0.00
  34   1     0.00  -0.00   0.00     0.00  -0.00  -0.00     0.00  -0.00  -0.00
  35   1    -0.00  -0.00  -0.00     0.00   0.00   0.00     0.00   0.00   0.00
  36   1     0.00   0.00  -0.00     0.00   0.00  -0.00    -0.00  -0.00   0.00
  37   1    -0.00   0.00  -0.00    -0.00   0.00  -0.00     0.00  -0.00   0.00
  38   1     0.00  -0.00   0.00     0.00  -0.00   0.00     0.00  -0.00   0.00
  39   1     0.00  -0.00  -0.00    -0.00  -0.00   0.00    -0.00  -0.00  -0.00
  40   1    -0.00   0.00  -0.00    -0.00   0.00  -0.00     0.00  -0.00   0.00
  41   1     0.00   0.00   0.00     0.00   0.00   0.00    -0.00   0.00   0.00
                    103                    104                    105
                        a                      a                      a 
 Frequencies --  2977.2569              2980.1260              2982.1362
 Red. masses --     1.7153                 1.7303                 1.7278
 Frc consts  --     0.0000                 0.0000                 0.0000
 IR Inten    --     7.6092                 7.4636                 6.6196
 Raman Activ --     0.0000                 0.0000                 0.0000
 Depolar     --     0.0000                 0.0000                 0.0000
 Atom AN      X      Y      Z        X      Y      Z        X      Y      Z
   1   6    -0.02   0.01   0.02    -0.00   0.00   0.00     0.00   0.00  -0.00
   2   6     0.20  -0.00  -0.15     0.00  -0.00  -0.00     0.00  -0.00  -0.00
   3   8     0.01  -0.01  -0.00     0.00  -0.00  -0.00     0.00  -0.00  -0.00
   4  15    -0.00   0.00   0.00     0.00   0.00   0.00    -0.00  -0.00  -0.00
   5  16     0.00  -0.00  -0.00    -0.00  -0.00  -0.00     0.00   0.00   0.00
   6   8    -0.00   0.00   0.00    -0.00   0.00   0.00    -0.00   0.00  -0.00
   7   6    -0.00  -0.00  -0.00     0.00   0.00   0.00     0.00  -0.00   0.00
   8   6     0.00  -0.00  -0.00     0.00  -0.00   0.00     0.00  -0.00   0.00
   9  16    -0.00  -0.00   0.00    -0.00  -0.00   0.00     0.00   0.00   0.00
  10   6     0.00   0.00   0.00     0.00  -0.00   0.00     0.00   0.00   0.00
  11  16     0.00  -0.00  -0.00     0.00   0.00   0.00    -0.00  -0.00  -0.00
  12  15    -0.00   0.00   0.00     0.00  -0.00  -0.00     0.00  -0.00   0.00
  13  16     0.00   0.00  -0.00     0.00  -0.00  -0.00     0.00  -0.00   0.00
  14   8     0.00  -0.00  -0.00    -0.01   0.00   0.00    -0.00   0.00   0.00
  15   6     0.00   0.00  -0.00    -0.15  -0.08   0.19    -0.00  -0.00   0.00
  16   6     0.00  -0.00   0.00     0.02   0.01  -0.03     0.00   0.00  -0.00
  17   8     0.00  -0.00  -0.00     0.00  -0.00   0.00     0.00   0.01   0.00
  18   6     0.00  -0.00   0.00     0.00  -0.00   0.00    -0.18   0.17  -0.06
  19   6    -0.00   0.00  -0.00    -0.00   0.00  -0.00     0.02  -0.03   0.01
  20   1    -0.01   0.01  -0.01     0.00  -0.00   0.00     0.00  -0.00   0.00
  21   1     0.00  -0.02   0.00     0.00  -0.00  -0.00     0.00  -0.00  -0.00
  22   1     0.09  -0.00  -0.07     0.00  -0.00  -0.00    -0.00   0.00   0.00
  23   1    -0.75   0.03   0.59    -0.01   0.00   0.01    -0.01   0.00   0.01
  24   1     0.01   0.01  -0.07    -0.00   0.00  -0.00    -0.00   0.00  -0.00
  25   1     0.00  -0.00   0.01    -0.00   0.00  -0.00    -0.00   0.00  -0.00
  26   1    -0.00   0.00  -0.00     0.00  -0.00   0.00    -0.00   0.00   0.00
  27   1     0.00  -0.00   0.00    -0.00  -0.00  -0.00    -0.01   0.00  -0.01
  28   1    -0.00   0.00   0.00    -0.00   0.00   0.00     0.00  -0.00   0.00
  29   1    -0.00   0.00   0.00    -0.00  -0.00   0.00     0.00   0.00  -0.00
  30   1    -0.00   0.00  -0.00    -0.00   0.00  -0.00    -0.00   0.00  -0.00
  31   1    -0.00  -0.00  -0.00    -0.00  -0.00   0.00    -0.00  -0.00  -0.00
  32   1     0.00   0.00   0.00    -0.01  -0.01   0.04     0.00  -0.00   0.00
  33   1    -0.01  -0.00   0.01     0.57   0.29  -0.71     0.01   0.01  -0.01
  34   1    -0.00   0.00   0.00    -0.02   0.01  -0.00     0.00  -0.00  -0.00
  35   1    -0.00  -0.00  -0.00     0.01   0.00   0.01    -0.00   0.00  -0.00
  36   1     0.00   0.00  -0.00    -0.08  -0.05   0.11    -0.00  -0.00   0.00
  37   1     0.00  -0.00  -0.00     0.00  -0.00   0.00    -0.02   0.02  -0.03
  38   1    -0.01   0.01  -0.00    -0.01   0.01  -0.00     0.65  -0.66   0.22
  39   1     0.00  -0.00   0.00    -0.00   0.00   0.00     0.00  -0.00  -0.02
  40   1     0.00  -0.00   0.00     0.00  -0.00   0.00    -0.11   0.11  -0.04
  41   1    -0.00  -0.00  -0.00     0.00   0.00   0.00     0.01   0.02   0.01
                    106                    107                    108
                        a                      a                      a 
 Frequencies --  3018.4478              3018.8090              3028.2171
 Red. masses --     1.7659                 1.7646                 1.7782
 Frc consts  --     0.0000                 0.0000                 0.0000
 IR Inten    --    52.6473                53.4715                48.4705
 Raman Activ --     0.0000                 0.0000                 0.0000
 Depolar     --     0.0000                 0.0000                 0.0000
 Atom AN      X      Y      Z        X      Y      Z        X      Y      Z
   1   6    -0.00   0.00   0.00    -0.00  -0.00   0.00     0.18   0.00  -0.19
   2   6     0.00  -0.00   0.00    -0.00   0.00   0.00     0.03   0.00  -0.03
   3   8     0.00  -0.00  -0.00    -0.00   0.00   0.00     0.00  -0.00  -0.00
   4  15    -0.00   0.00  -0.00    -0.00  -0.00   0.00     0.00   0.00   0.00
   5  16    -0.00   0.00   0.00     0.00  -0.00  -0.00    -0.00   0.00   0.00
   6   8    -0.00  -0.00   0.00     0.00   0.00  -0.00    -0.00  -0.00  -0.00
   7   6     0.00   0.00   0.00    -0.00  -0.00  -0.00     0.00   0.00   0.00
   8   6     0.00   0.00   0.00     0.00   0.00   0.00     0.00   0.00   0.00
   9  16     0.00  -0.00   0.00     0.00  -0.00  -0.00    -0.00  -0.00  -0.00
  10   6    -0.00   0.00  -0.00    -0.00  -0.00  -0.00     0.00  -0.00   0.00
  11  16    -0.00   0.00  -0.00     0.00  -0.00   0.00     0.00  -0.00   0.00
  12  15     0.00  -0.00   0.00     0.00   0.00   0.00     0.00  -0.00   0.00
  13  16    -0.00   0.00  -0.00    -0.00  -0.00   0.00    -0.00   0.00  -0.00
  14   8    -0.00   0.00   0.00     0.00  -0.00  -0.00    -0.00   0.00   0.00
  15   6    -0.02  -0.01   0.03     0.01   0.01  -0.02    -0.00  -0.00  -0.00
  16   6    -0.10  -0.06   0.17     0.08   0.04  -0.12     0.00  -0.00  -0.00
  17   8    -0.00  -0.00  -0.00    -0.00  -0.00   0.00    -0.00   0.00  -0.00
  18   6     0.02  -0.02   0.01     0.03  -0.03   0.01     0.00  -0.00   0.00
  19   6     0.10  -0.10   0.05     0.13  -0.14   0.07     0.00  -0.00  -0.00
  20   1    -0.00   0.00  -0.00    -0.00   0.00  -0.00     0.06  -0.04   0.09
  21   1     0.00  -0.00  -0.00    -0.00   0.00   0.00     0.03  -0.01  -0.03
  22   1    -0.00   0.00   0.00     0.00  -0.00  -0.00    -0.74   0.05   0.59
  23   1    -0.00   0.00   0.00     0.00  -0.00  -0.00    -0.09   0.00   0.07
  24   1    -0.00   0.00  -0.00     0.00  -0.00   0.00     0.01  -0.01   0.02
  25   1    -0.00   0.00  -0.00     0.00  -0.00   0.00    -0.00   0.00  -0.00
  26   1     0.00  -0.00   0.00    -0.00   0.00  -0.00     0.00  -0.00   0.00
  27   1    -0.00  -0.00  -0.00    -0.00   0.00  -0.00    -0.01   0.00  -0.01
  28   1     0.00  -0.00   0.00     0.00  -0.00   0.00     0.01  -0.02   0.00
  29   1    -0.00  -0.00   0.00    -0.00   0.00   0.00    -0.00   0.00   0.00
  30   1     0.00  -0.00   0.00     0.00  -0.00   0.00    -0.00   0.00  -0.00
  31   1    -0.00  -0.00  -0.00     0.00   0.00  -0.00     0.00   0.00   0.00
  32   1    -0.01  -0.00  -0.01     0.01   0.00   0.01     0.00  -0.00   0.00
  33   1     0.07   0.03  -0.09    -0.05  -0.02   0.06     0.00   0.00  -0.00
  34   1    -0.01  -0.01   0.02     0.00   0.01  -0.02    -0.00   0.00   0.00
  35   1    -0.05  -0.01  -0.03     0.04   0.01   0.02    -0.00  -0.00  -0.00
  36   1     0.43   0.23  -0.59    -0.32  -0.17   0.43    -0.00  -0.00   0.00
  37   1     0.00  -0.00  -0.01     0.00  -0.00  -0.01     0.00   0.00  -0.00
  38   1    -0.06   0.06  -0.02    -0.08   0.09  -0.03    -0.00   0.00  -0.00
  39   1     0.01  -0.01  -0.03     0.02  -0.02  -0.04     0.00  -0.00   0.00
  40   1    -0.38   0.39  -0.15    -0.52   0.53  -0.21    -0.00   0.00  -0.00
  41   1     0.01  -0.01   0.01     0.02  -0.01   0.01     0.00   0.00   0.00
                    109                    110                    111
                        a                      a                      a 
 Frequencies --  3047.0718              3047.5451              3048.1235
 Red. masses --     1.6360                 1.6214                 1.6125
 Frc consts  --     0.0000                 0.0000                 0.0000
 IR Inten    --    18.3245                33.6079                11.9350
 Raman Activ --     0.0000                 0.0000                 0.0000
 Depolar     --     0.0000                 0.0000                 0.0000
 Atom AN      X      Y      Z        X      Y      Z        X      Y      Z
   1   6    -0.01   0.01  -0.02    -0.09   0.06  -0.21    -0.00   0.00  -0.01
   2   6    -0.00   0.00  -0.00    -0.01   0.00  -0.02    -0.00   0.00  -0.00
   3   8     0.00   0.00   0.00     0.00   0.00   0.00    -0.00  -0.00   0.00
   4  15    -0.00  -0.00  -0.00    -0.00  -0.00  -0.00    -0.00   0.00  -0.00
   5  16     0.00  -0.00   0.00     0.00  -0.00  -0.00    -0.00  -0.00  -0.00
   6   8    -0.00  -0.00   0.00     0.00  -0.00  -0.00     0.00   0.00   0.00
   7   6     0.00  -0.00   0.00    -0.00   0.00  -0.00    -0.00   0.00  -0.00
   8   6     0.01  -0.01   0.01    -0.02  -0.00  -0.02    -0.02   0.01  -0.02
   9  16     0.00  -0.00  -0.00     0.00  -0.00  -0.00     0.00   0.00  -0.00
  10   6    -0.00   0.00  -0.00    -0.00   0.00   0.00     0.00   0.00  -0.00
  11  16    -0.00  -0.00   0.00    -0.00   0.00  -0.00    -0.00   0.00   0.00
  12  15     0.00   0.00   0.00    -0.00   0.00  -0.00    -0.00  -0.00   0.00
  13  16    -0.00  -0.00   0.00    -0.00  -0.00   0.00     0.00  -0.00   0.00
  14   8    -0.00  -0.00  -0.00     0.00  -0.00  -0.00     0.00   0.00  -0.00
  15   6     0.01   0.00   0.02    -0.00  -0.00  -0.00    -0.00  -0.00  -0.00
  16   6     0.13   0.03   0.20    -0.01  -0.00  -0.02    -0.00   0.00  -0.00
  17   8     0.00   0.00   0.00    -0.00  -0.00  -0.00     0.00  -0.00  -0.00
  18   6     0.00  -0.00   0.00     0.00   0.00  -0.00     0.00  -0.01   0.02
  19   6    -0.00   0.00   0.01     0.00   0.00  -0.01    -0.02  -0.05   0.23
  20   1     0.03  -0.03   0.08     0.26  -0.31   0.85     0.01  -0.01   0.04
  21   1    -0.00   0.01  -0.00    -0.04   0.09  -0.02    -0.00   0.01  -0.00
  22   1     0.01   0.00  -0.01     0.08   0.00  -0.10    -0.00   0.00  -0.00
  23   1     0.00   0.00  -0.00    -0.00   0.00   0.00    -0.00   0.00   0.00
  24   1     0.00  -0.00   0.01     0.01  -0.02   0.05     0.00  -0.00   0.00
  25   1    -0.00   0.00  -0.00     0.01  -0.00   0.01     0.00  -0.00   0.00
  26   1    -0.00   0.00  -0.00     0.00  -0.00  -0.00     0.00  -0.00  -0.00
  27   1    -0.03   0.00  -0.04     0.08  -0.01   0.09     0.05  -0.00   0.06
  28   1    -0.01   0.03   0.00    -0.01   0.02  -0.00     0.01  -0.03  -0.00
  29   1    -0.00  -0.00   0.00    -0.00   0.00   0.00    -0.00   0.00   0.00
  30   1     0.00  -0.00   0.00    -0.00   0.00  -0.00    -0.00   0.00  -0.00
  31   1     0.00   0.00  -0.00    -0.00   0.00   0.00    -0.00  -0.00  -0.00
  32   1    -0.02  -0.00  -0.04     0.00   0.00   0.00     0.00   0.00   0.00
  33   1     0.01   0.00  -0.00    -0.00  -0.00   0.00     0.00   0.00  -0.00
  34   1     0.09  -0.05   0.02    -0.01   0.00  -0.00     0.00  -0.00  -0.00
  35   1    -0.51  -0.05  -0.80     0.05   0.00   0.07     0.01   0.00   0.02
  36   1    -0.03  -0.02   0.09     0.00   0.00  -0.01     0.00   0.00  -0.00
  37   1     0.00  -0.00   0.00     0.00  -0.00   0.00    -0.00   0.01  -0.04
  38   1    -0.00   0.00  -0.00    -0.00   0.00  -0.00    -0.01   0.01  -0.00
  39   1    -0.00   0.00  -0.02     0.00  -0.00   0.05    -0.00   0.08  -0.94
  40   1     0.00  -0.00   0.00    -0.01   0.01  -0.00     0.05  -0.05   0.05
  41   1    -0.00  -0.00   0.00    -0.00  -0.00  -0.00     0.04   0.13   0.09
                    112                    113                    114
                        a                      a                      a 
 Frequencies --  3049.0115              3051.2712              3055.4928
 Red. masses --     1.8923                 1.5028                 1.7960
 Frc consts  --     0.0000                 0.0000                 0.0000
 IR Inten    --    17.3375                16.8725                10.3066
 Raman Activ --     0.0000                 0.0000                 0.0000
 Depolar     --     0.0000                 0.0000                 0.0000
 Atom AN      X      Y      Z        X      Y      Z        X      Y      Z
   1   6    -0.01   0.00  -0.02    -0.01   0.01  -0.01    -0.00  -0.00   0.00
   2   6    -0.00   0.00  -0.00    -0.00   0.00  -0.00    -0.00  -0.00   0.00
   3   8     0.00  -0.00  -0.00     0.00   0.00   0.00     0.00  -0.00  -0.00
   4  15     0.00   0.00  -0.00     0.00   0.00   0.00     0.00  -0.00   0.00
   5  16     0.00   0.00   0.00     0.00   0.00  -0.00    -0.00  -0.00   0.00
   6   8    -0.00  -0.00   0.00    -0.00  -0.00  -0.00    -0.00  -0.00  -0.00
   7   6     0.02  -0.01   0.02    -0.00   0.01   0.00    -0.00   0.00   0.00
   8   6     0.19  -0.10   0.18    -0.02   0.20   0.05    -0.00   0.01   0.00
   9  16    -0.00  -0.00   0.00    -0.00   0.00   0.00    -0.00  -0.00  -0.00
  10   6    -0.00  -0.00  -0.00    -0.00   0.00  -0.00    -0.00   0.00  -0.00
  11  16     0.00  -0.00  -0.00     0.00  -0.00   0.00     0.00  -0.00  -0.00
  12  15     0.00  -0.00   0.00     0.00  -0.00   0.00    -0.00   0.00  -0.00
  13  16    -0.00   0.00  -0.00    -0.00   0.00  -0.00     0.00   0.00  -0.00
  14   8    -0.00   0.00   0.00    -0.00   0.00   0.00    -0.00  -0.00   0.00
  15   6    -0.00  -0.00  -0.00    -0.00   0.00   0.00     0.00   0.00  -0.00
  16   6    -0.01  -0.00  -0.01    -0.00   0.00   0.00     0.00  -0.00   0.00
  17   8     0.00   0.00   0.00     0.00   0.00   0.00    -0.00   0.00   0.00
  18   6     0.00  -0.00   0.00     0.00  -0.00  -0.00     0.00  -0.01  -0.01
  19   6    -0.00  -0.00   0.02     0.00   0.01   0.00    -0.06  -0.22  -0.15
  20   1     0.03  -0.03   0.09     0.02  -0.02   0.05    -0.00   0.00  -0.00
  21   1    -0.01   0.02  -0.00     0.00  -0.01  -0.00     0.00  -0.00   0.00
  22   1     0.01  -0.00  -0.01     0.02  -0.00  -0.02     0.00  -0.00  -0.00
  23   1    -0.00   0.00   0.00    -0.00   0.00   0.00     0.00   0.00  -0.00
  24   1     0.00  -0.00   0.01     0.00  -0.00   0.01    -0.00   0.00  -0.00
  25   1    -0.04   0.01  -0.05    -0.01   0.00  -0.01    -0.00   0.00  -0.00
  26   1    -0.01   0.02   0.00     0.02  -0.03   0.00     0.00  -0.00   0.00
  27   1    -0.56   0.05  -0.67    -0.25   0.05  -0.28    -0.01   0.00  -0.01
  28   1    -0.13   0.34   0.02     0.36  -0.81   0.03     0.01  -0.02   0.00
  29   1     0.04  -0.02   0.00    -0.04   0.04   0.07     0.00  -0.00  -0.00
  30   1     0.00  -0.00   0.00     0.00  -0.00   0.00     0.00  -0.00   0.00
  31   1     0.00   0.00  -0.00    -0.00  -0.00  -0.00    -0.00  -0.00   0.00
  32   1     0.00   0.00   0.00    -0.00  -0.00  -0.00    -0.00  -0.00  -0.00
  33   1    -0.00  -0.00   0.00     0.00   0.00  -0.00    -0.00  -0.00   0.00
  34   1    -0.01   0.01  -0.00     0.01  -0.00  -0.00    -0.00   0.00   0.00
  35   1     0.04   0.00   0.06    -0.00  -0.00  -0.01    -0.00  -0.00  -0.00
  36   1     0.00   0.00  -0.01    -0.00   0.00   0.00    -0.00  -0.00   0.00
  37   1    -0.00  -0.00  -0.00     0.00  -0.00   0.00     0.00  -0.00   0.02
  38   1    -0.01   0.01  -0.00    -0.00   0.00  -0.00    -0.01   0.01  -0.00
  39   1    -0.00   0.01  -0.08    -0.00   0.00   0.00    -0.00  -0.04   0.14
  40   1     0.01  -0.01   0.01     0.00  -0.00   0.00    -0.00  -0.03  -0.02
  41   1     0.00   0.01   0.01    -0.01  -0.02  -0.01     0.22   0.84   0.39
                    115                    116                    117
                        a                      a                      a 
 Frequencies --  3056.7231              3057.4879              3063.6108
 Red. masses --     1.7714                 1.7662                 1.7636
 Frc consts  --     0.0000                 0.0000                 0.0000
 IR Inten    --    12.2934                10.4341                10.0264
 Raman Activ --     0.0000                 0.0000                 0.0000
 Depolar     --     0.0000                 0.0000                 0.0000
 Atom AN      X      Y      Z        X      Y      Z        X      Y      Z
   1   6     0.09  -0.25  -0.00    -0.01   0.02   0.00     0.00  -0.00   0.00
   2   6     0.01  -0.01   0.00    -0.00   0.00   0.00     0.00  -0.00   0.00
   3   8    -0.00   0.00  -0.00     0.00  -0.00   0.00    -0.00   0.00  -0.00
   4  15    -0.00  -0.00   0.00    -0.00   0.00  -0.00     0.00  -0.00   0.00
   5  16     0.00  -0.00  -0.00     0.00  -0.00   0.00     0.00   0.00  -0.00
   6   8    -0.00   0.00  -0.00     0.00  -0.00   0.00     0.00   0.00   0.00
   7   6    -0.00   0.00   0.00    -0.00   0.00  -0.00     0.00  -0.00  -0.01
   8   6    -0.00   0.01   0.00     0.00   0.00  -0.01     0.13  -0.06  -0.22
   9  16    -0.00   0.00   0.00     0.00  -0.00  -0.00     0.00  -0.00  -0.00
  10   6     0.00  -0.00   0.00    -0.00   0.00  -0.00    -0.00   0.00  -0.00
  11  16     0.00  -0.00   0.00    -0.00  -0.00   0.00     0.00  -0.00  -0.00
  12  15    -0.00  -0.00   0.00    -0.00  -0.00   0.00    -0.00   0.00  -0.00
  13  16     0.00   0.00  -0.00    -0.00   0.00   0.00    -0.00   0.00  -0.00
  14   8    -0.00   0.00  -0.00    -0.00  -0.00  -0.00    -0.00  -0.00   0.00
  15   6     0.00  -0.00   0.00     0.01  -0.00  -0.00    -0.00  -0.00  -0.00
  16   6     0.02  -0.01   0.00     0.22  -0.15   0.00    -0.00   0.00  -0.00
  17   8     0.00   0.00  -0.00     0.00  -0.00  -0.00    -0.00  -0.00   0.00
  18   6    -0.00   0.00  -0.00    -0.00   0.00   0.00    -0.00   0.00  -0.00
  19   6     0.00   0.00  -0.00    -0.00   0.00   0.00    -0.00  -0.00  -0.00
  20   1    -0.01  -0.00  -0.07     0.00   0.00   0.01    -0.00   0.00  -0.01
  21   1    -0.30   0.91   0.06     0.03  -0.08  -0.01    -0.00   0.01   0.00
  22   1    -0.00  -0.03   0.01     0.00   0.00  -0.00     0.00  -0.00   0.00
  23   1    -0.01   0.00   0.01     0.00  -0.00  -0.00     0.00   0.00  -0.00
  24   1    -0.00   0.00  -0.02     0.00  -0.00   0.00    -0.00   0.00  -0.00
  25   1     0.00  -0.00   0.00     0.00  -0.00   0.00     0.01  -0.00   0.01
  26   1     0.00  -0.00   0.00     0.00  -0.00  -0.00    -0.01   0.01  -0.00
  27   1     0.00   0.00   0.00     0.00  -0.00   0.01     0.02  -0.01  -0.02
  28   1     0.01  -0.02   0.00     0.00  -0.01  -0.00    -0.02   0.07  -0.03
  29   1     0.01  -0.00  -0.01    -0.01   0.00   0.01    -0.46   0.17   0.83
  30   1    -0.00  -0.00  -0.00     0.00  -0.00   0.00     0.00  -0.00   0.00
  31   1    -0.00  -0.00  -0.00    -0.00  -0.00  -0.00     0.00   0.00   0.00
  32   1    -0.00  -0.00  -0.00    -0.00  -0.00  -0.01     0.00  -0.00   0.00
  33   1    -0.00  -0.00   0.00    -0.01  -0.01   0.01     0.00   0.00  -0.00
  34   1    -0.07   0.05   0.01    -0.77   0.56   0.07     0.01  -0.01  -0.00
  35   1    -0.00  -0.00  -0.01    -0.02  -0.02  -0.08     0.00   0.00   0.01
  36   1     0.00  -0.00  -0.00     0.03  -0.02  -0.00     0.00   0.00  -0.00
  37   1    -0.00  -0.00   0.00    -0.00   0.00  -0.00     0.00  -0.00   0.00
  38   1     0.00  -0.00   0.00     0.00  -0.00   0.00     0.00  -0.00  -0.00
  39   1    -0.00  -0.00   0.00    -0.00   0.00  -0.01    -0.00  -0.00   0.00
  40   1    -0.00   0.00  -0.00     0.00  -0.00   0.00     0.00  -0.00   0.00
  41   1    -0.00  -0.00  -0.00    -0.00  -0.00  -0.00     0.00   0.00   0.00
