
                                 *****************
                                 * O   R   C   A *
                                 *****************

                                            #,                                       
                                            ###                                      
                                            ####                                     
                                            #####                                    
                                            ######                                   
                                           ########,                                 
                                     ,,################,,,,,                         
                               ,,#################################,,                 
                          ,,##########################################,,             
                       ,#########################################, ''#####,          
                    ,#############################################,,   '####,        
                  ,##################################################,,,,####,       
                ,###########''''           ''''###############################       
              ,#####''   ,,,,##########,,,,          '''####'''          '####       
            ,##' ,,,,###########################,,,                        '##       
           ' ,,###''''                  '''############,,,                           
         ,,##''                                '''############,,,,        ,,,,,,###''
      ,#''                                            '''#######################'''  
     '                                                          ''''####''''         
             ,#######,   #######,   ,#######,      ##                                
            ,#'     '#,  ##    ##  ,#'     '#,    #''#        ,####,   ,####,        
            ##       ##  ##   ,#'  ##            #'  '#       #'       #'  '#        
            ##       ##  #######   ##           ,######,      #####,   #    #        
            '#,     ,#'  ##    ##  '#,     ,#' ,#      #,     #,   #   #,  ,#        
             '#######'   ##     ##  '#######'  #'      '#     '####' # '####'        



                #########################################################
                #                        -***-                          #
                #          Department of theory and spectroscopy        #
                #                                                       #
                #                      Frank Neese                      #
                #                                                       #
                #     Directorship, Architecture, Infrastructure        #
                #                    SHARK, DRIVERS                     #
                #        Core code/Algorithms in most modules           #
                #                                                       #
                #        Max Planck Institute fuer Kohlenforschung      #
                #                Kaiser Wilhelm Platz 1                 #
                #                 D-45470 Muelheim/Ruhr                 #
                #                      Germany                          #
                #                                                       #
                #                  All rights reserved                  #
                #                        -***-                          #
                #########################################################


                         Program Version 6.0.0  -   RELEASE  -


 With contributions from (in alphabetic order):
   Daniel Aravena         : Magnetic Suceptibility
   Michael Atanasov       : Ab Initio Ligand Field Theory (pilot matlab implementation)
   Alexander A. Auer      : GIAO ZORA, VPT2 properties, NMR spectrum
   Ute Becker             : All parallelization in ORCA, NUMFREQ, NUMCALC
   Giovanni Bistoni       : ED, misc. LED, open-shell LED, HFLD
   Martin Brehm           : Molecular dynamics
   Dmytro Bykov           : pre 5.0 version of the SCF Hessian
   Marcos Casanova-Páez   : Triplet and SCS-CIS(D). UHF-(DLPNO)-IP/EA/STEOM-CCSD. UHF-CVS-IP/STEOM-CCSD
   Vijay G. Chilkuri      : MRCI spin determinant printing, contributions to CSF-ICE
   Pauline Colinet        : FMM embedding
   Dipayan Datta          : RHF DLPNO-CCSD density
   Achintya Kumar Dutta   : EOM-CC, STEOM-CC
   Nicolas Foglia         : Exact transition moments, OPA infrastructure, MCD improvements
   Dmitry Ganyushin       : Spin-Orbit,Spin-Spin,Magnetic field MRCI
   Miquel Garcia          : C-PCM and meta-GGA Hessian, CCSD/C-PCM, Gaussian charge scheme
   Tiago L. C. Gouveia    : GS-ROHF, GS-ROCIS
   Yang Guo               : DLPNO-NEVPT2, F12-NEVPT2, CIM, IAO-localization
   Andreas Hansen         : Spin unrestricted coupled pair/coupled cluster methods
   Ingolf Harden          : AUTO-CI MPn and infrastructure 
   Benjamin Helmich-Paris : MC-RPA, TRAH-(SCF,CASSCF), AVAS, COSX integrals, SCF dyn. polar.
   Lee Huntington         : MR-EOM, pCC
   Robert Izsak           : Overlap fitted RIJCOSX, COSX-SCS-MP3, EOM
   Riya Kayal             : Wick's Theorem for AUTO-CI, AUTO-CI UHF-CCSDT
   Emily Kempfer          : AUTO-CI, RHF CISDT and CCSDT
   Christian Kollmar      : KDIIS, OOCD, Brueckner-CCSD(T), CCSD density, CASPT2, CASPT2-K, improved NEVPT2
   Axel Koslowski         : Symmetry handling
   Simone Kossmann        : Meta GGA functionals, TD-DFT gradient, OOMP2, (MP2 Hessian; deprecated post 5.0)
   Lucas Lang             : DCDCAS
   Marvin Lechner         : AUTO-CI (C++ implementation), FIC-MRCC
   Spencer Leger          : CASSCF response
   Dagmar Lenk            : GEPOL surface, SMD, ORCA-2-JSON
   Dimitrios Liakos       : Extrapolation schemes; Compound Job, initial MDCI parallelization
   Dimitrios Manganas     : Further ROCIS development; embedding schemes. LFT, Crystal Embedding
   Dimitrios Pantazis     : SARC Basis sets
   Anastasios Papadopoulos: AUTO-CI, single reference methods and gradients
   Taras Petrenko         : pre 6.0 DFT Hessian and TD-DFT gradient, (ASA, deprecated), ECA, 1-Electron XAS/XES, NRVS
   Peter Pinski           : DLPNO-MP2, DLPNO-MP2 Gradient
   Christoph Reimann      : Effective Core Potentials
   Marius Retegan         : Local ZFS, SOC
   Christoph Riplinger    : Optimizer, TS searches, QM/MM, DLPNO-CCSD(T), (RO)-DLPNO pert. Triples
   Michael Roemelt        : Original ROCIS implementation
   Masaaki Saitow         : Open-shell DLPNO-CCSD energy and density
   Barbara Sandhoefer     : DKH picture change effects
   Kantharuban Sivalingam : CASSCF convergence/infrastructure, NEVPT2 and variants, FIC-MRCI
   Bernardo de Souza      : ESD, SOC TD-DFT
   Georgi Stoychev        : AutoAux, RI-MP2 NMR, DLPNO-MP2 response, X2C
   Van Anh Tran           : RI-MP2 g-tensors
   Willem Van den Heuvel  : Paramagnetic NMR
   Zikuan Wang            : NOTCH, Electric field optimization 
   Frank Wennmohs         : Technical directorship and infrastructure
   Hang Xu                : AUTO-CI-Response properties 


 We gratefully acknowledge several colleagues who have allowed us to
 interface, adapt or use parts of their codes:
   Stefan Grimme, W. Hujo, H. Kruse, P. Pracht,  : VdW corrections, initial TS optimization,
                  C. Bannwarth, S. Ehlert,         DFT functionals, gCP, sTDA/sTD-DF
                  L. Wittmann, M. Mueller
   Ed Valeev, F. Pavosevic, A. Kumar             : LibInt (2-el integral package), F12 methods
   Garnet Chan, S. Sharma, J. Yang, R. Olivares  : DMRG
   Ulf Ekstrom                                   : XCFun DFT Library
   Mihaly Kallay                                 : mrcc  (arbitrary order and MRCC methods)
   Frank Weinhold                                : gennbo (NPA and NBO analysis)
   Simon Mueller                                 : openCOSMO-RS
   Christopher J. Cramer and Donald G. Truhlar   : smd solvation model
   Lars Goerigk                                  : TD-DFT with DH, B97 family of functionals
   V. Asgeirsson, H. Jonsson                     : NEB implementation
   FAccTs GmbH                                   : IRC, NEB, NEB-TS, DLPNO-Multilevel, CI-OPT
                                                   MM, QMMM, 2- and 3-layer-ONIOM, Crystal-QMMM,
                                                   LR-CPCM, SF, NACMEs, symmetry and pop. for TD-DFT,
                                                   nearIR, NL-DFT gradient (VV10), updates on ESD,
                                                   ML-optimized integration grids, MBIS, APM,
                                                   GOAT, DOCKER, SOLVATOR, interface openCOSMO-RS
   S Lehtola, MJT Oliveira, MAL Marques          : LibXC Library
   Liviu Ungur et al                             : ANISO software


 Your calculation uses the libint2 library for the computation of 2-el integrals
 For citations please refer to: http://libint.valeyev.net

 Your ORCA version has been built with support for libXC version: 6.2.2
 For citations please refer to: https://libxc.gitlab.io

 This ORCA versions uses:
   CBLAS   interface :  Fast vector & matrix operations
   LAPACKE interface :  Fast linear algebra routines
   SCALAPACK package :  Parallel linear algebra routines
   Shared memory     :  Shared parallel matrices
   BLAS/LAPACK       :  OpenBLAS 0.3.27  USE64BITINT DYNAMIC_ARCH NO_AFFINITY SapphireRapids SINGLE_THREADED
        Core in use  :  SapphireRapids
   Copyright (c) 2011-2014, The OpenBLAS Project


Your calculation utilizes the geometrical counterpoise correction gCP
Please cite in your paper:
H.Kruse, S. Grimme J.Chem.Phys., 136, (2012), 154101 
   

Your calculation utilizes the atom-pairwise dispersion correction
based on EEQ partial charges (D4)


================================================================================

----- Orbital basis set information -----
Your calculation utilizes the basis: def2-SV(P)
   F. Weigend and R. Ahlrichs, Phys. Chem. Chem. Phys. 7, 3297 (2005).

----- AuxJ basis set information -----
Your calculation utilizes the auxiliary basis: def2/J
   F. Weigend, Phys. Chem. Chem. Phys. 8, 1057 (2006).

================================================================================
                                        WARNINGS
                       Please study these warnings very carefully!
================================================================================


================================================================================
                                       INPUT FILE
================================================================================
NAME = sp.inp
|  1> ! pbe def2-sv(p) def2/J RI DEFGRID1 loosescf d4 GCP(DFT/SV(P)) printgap
|  2> %output
|  3>     printlevel normal
|  4> end
|  5> * xyz 0 1
|  6> C 5.2385869425 0.4152858633 1.6846407843
|  7> C 4.2802380544 -0.7557242469 1.6102292802
|  8> O 3.8916716273 -1.0179330868 0.2377379914
|  9> P 2.5584428103 -0.4982555278 -0.4138003549
| 10> S 2.4037639849 -1.1646489809 -2.2453299242
| 11> O 2.6886761676 1.0778080651 -0.1853195421
| 12> C 1.6452446925 2.0393543547 -0.3957030869
| 13> C 1.4411137347 2.3533367741 -1.8642783809
| 14> S 1.0209083691 -1.0879815555 0.9491346962
| 15> C -0.1943455411 -1.6885772412 -0.2472342175
| 16> S -0.9489321971 -0.3808949175 -1.2657437209
| 17> P -2.3714009965 0.3472776675 0.113439342
| 18> S -3.5727734656 1.7332843708 -0.5756079662
| 19> O -1.3817671313 0.7223628964 1.2938965767
| 20> C -1.8093315538 1.0104009443 2.6444430168
| 21> C -2.2228671321 2.4602984885 2.7964872001
| 22> O -3.1202915549 -0.9255604488 0.7283431834
| 23> C -4.3648802393 -1.3949977684 0.1866607763
| 24> C -4.1727799301 -2.0757918012 -1.1536267383
| 25> H 4.7535482174 1.3244141956 1.3399775238
| 26> H 5.5605239385 0.5463179715 2.7130670068
| 27> H 6.1056855125 0.2247011501 1.0582964947
| 28> H 3.3810916636 -0.5755629221 2.2058425439
| 29> H 4.7578588338 -1.6808829408 1.9374694419
| 30> H 0.718462565 1.670326766 0.0566735119
| 31> H 1.9847739134 2.9216321509 0.1508948551
| 32> H 2.3710639135 2.6998210154 -2.3071015433
| 33> H 1.1091547794 1.4669889007 -2.4021185293
| 34> H 0.6831242735 3.1244492549 -1.9634146505
| 35> H -0.9648773019 -2.1982848728 0.3252248066
| 36> H 0.2967761542 -2.35586999 -0.9541039896
| 37> H -2.6262316692 0.3355941126 2.9084553517
| 38> H -0.9305898724 0.7771206644 3.2488882079
| 39> H -3.082241677 2.6776078842 2.1652946794
| 40> H -2.4863150459 2.6501154628 3.8321980886
| 41> H -1.407079427 3.1171917623 2.5073843592
| 42> H -4.7423371536 -2.0858574034 0.9418586233
| 43> H -5.0430127739 -0.5413835192 0.0869139019
| 44> H -5.1260298939 -2.4612382034 -1.5007064941
| 45> H -3.7979301097 -1.3574739337 -1.8826540869
| 46> H -3.4639040513 -2.8959270472 -1.0716975245
| 47> *
| 48> 
| 49>                          ****END OF INPUT****
================================================================================

                       ****************************
                       * Single Point Calculation *
                       ****************************

---------------------------------
CARTESIAN COORDINATES (ANGSTROEM)
---------------------------------
  C      5.238587    0.415286    1.684641
  C      4.280238   -0.755724    1.610229
  O      3.891672   -1.017933    0.237738
  P      2.558443   -0.498256   -0.413800
  S      2.403764   -1.164649   -2.245330
  O      2.688676    1.077808   -0.185320
  C      1.645245    2.039354   -0.395703
  C      1.441114    2.353337   -1.864278
  S      1.020908   -1.087982    0.949135
  C     -0.194346   -1.688577   -0.247234
  S     -0.948932   -0.380895   -1.265744
  P     -2.371401    0.347278    0.113439
  S     -3.572773    1.733284   -0.575608
  O     -1.381767    0.722363    1.293897
  C     -1.809332    1.010401    2.644443
  C     -2.222867    2.460298    2.796487
  O     -3.120292   -0.925560    0.728343
  C     -4.364880   -1.394998    0.186661
  C     -4.172780   -2.075792   -1.153627
  H      4.753548    1.324414    1.339978
  H      5.560524    0.546318    2.713067
  H      6.105686    0.224701    1.058296
  H      3.381092   -0.575563    2.205843
  H      4.757859   -1.680883    1.937469
  H      0.718463    1.670327    0.056674
  H      1.984774    2.921632    0.150895
  H      2.371064    2.699821   -2.307102
  H      1.109155    1.466989   -2.402119
  H      0.683124    3.124449   -1.963415
  H     -0.964877   -2.198285    0.325225
  H      0.296776   -2.355870   -0.954104
  H     -2.626232    0.335594    2.908455
  H     -0.930590    0.777121    3.248888
  H     -3.082242    2.677608    2.165295
  H     -2.486315    2.650115    3.832198
  H     -1.407079    3.117192    2.507384
  H     -4.742337   -2.085857    0.941859
  H     -5.043013   -0.541384    0.086914
  H     -5.126030   -2.461238   -1.500706
  H     -3.797930   -1.357474   -1.882654
  H     -3.463904   -2.895927   -1.071698

----------------------------
CARTESIAN COORDINATES (A.U.)
----------------------------
  NO LB      ZA    FRAG     MASS         X           Y           Z
   0 C     6.0000    0    12.011    9.899495    0.784777    3.183510
   1 C     6.0000    0    12.011    8.088478   -1.428112    3.042892
   2 O     8.0000    0    15.999    7.354194   -1.923615    0.449260
   3 P    15.0000    0    30.974    4.834756   -0.941566   -0.781969
   4 S    16.0000    0    32.060    4.542456   -2.200868   -4.243059
   5 O     8.0000    0    15.999    5.080862    2.036762   -0.350203
   6 C     6.0000    0    12.011    3.109062    3.853821   -0.747770
   7 C     6.0000    0    12.011    2.723310    4.447162   -3.522976
   8 S    16.0000    0    32.060    1.929237   -2.055987    1.793605
   9 C     6.0000    0    12.011   -0.367260   -3.190949   -0.467205
  10 S    16.0000    0    32.060   -1.793222   -0.719787   -2.391909
  11 P    15.0000    0    30.974   -4.481298    0.656260    0.214369
  12 S    16.0000    0    32.060   -6.751563    3.275433   -1.087741
  13 O     8.0000    0    15.999   -2.611161    1.365068    2.445110
  14 C     6.0000    0    12.011   -3.419141    1.909381    4.997273
  15 C     6.0000    0    12.011   -4.200610    4.649290    5.284595
  16 O     8.0000    0    15.999   -5.896496   -1.749056    1.376369
  17 C     6.0000    0    12.011   -8.248428   -2.636164    0.352738
  18 C     6.0000    0    12.011   -7.885411   -3.922678   -2.180039
  19 H     1.0000    0     1.008    8.982904    2.502780    2.532191
  20 H     1.0000    0     1.008   10.507867    1.032391    5.126954
  21 H     1.0000    0     1.008   11.538073    0.424624    1.999891
  22 H     1.0000    0     1.008    6.389337   -1.087656    4.168438
  23 H     1.0000    0     1.008    8.991050   -3.176408    3.661287
  24 H     1.0000    0     1.008    1.357697    3.156460    0.107097
  25 H     1.0000    0     1.008    3.750679    5.521085    0.285150
  26 H     1.0000    0     1.008    4.480661    5.101922   -4.359790
  27 H     1.0000    0     1.008    2.095999    2.772207   -4.539346
  28 H     1.0000    0     1.008    1.290918    5.904353   -3.710316
  29 H     1.0000    0     1.008   -1.823354   -4.154156    0.614586
  30 H     1.0000    0     1.008    0.560826   -4.451949   -1.802995
  31 H     1.0000    0     1.008   -4.962859    0.634181    5.496184
  32 H     1.0000    0     1.008   -1.758560    1.468545    6.139509
  33 H     1.0000    0     1.008   -5.824593    5.059946    4.091814
  34 H     1.0000    0     1.008   -4.698455    5.007992    7.241805
  35 H     1.0000    0     1.008   -2.658995    5.890639    4.738270
  36 H     1.0000    0     1.008   -8.961718   -3.941699    1.779855
  37 H     1.0000    0     1.008   -9.529913   -1.023067    0.164243
  38 H     1.0000    0     1.008   -9.686793   -4.651066   -2.835924
  39 H     1.0000    0     1.008   -7.177048   -2.565254   -3.557701
  40 H     1.0000    0     1.008   -6.545830   -5.472509   -2.025215

--------------------------------
INTERNAL COORDINATES (ANGSTROEM)
--------------------------------
 C      0   0   0     0.000000000000     0.00000000     0.00000000
 C      1   0   0     1.515003082985     0.00000000     0.00000000
 O      2   1   0     1.450334334498   110.83620715     0.00000000
 P      3   2   1     1.572280528566   124.02633822   262.41569110
 S      4   3   2     1.955123100110   110.03677234   182.92810412
 O      4   3   2     1.597855017840   101.39953811    56.69690689
 C      6   4   3     1.434427323428   125.51611398   190.57586562
 C      7   6   4     1.515575072958   112.26976289   282.68037160
 S      4   3   2     2.137611026155   104.74498552   308.89178606
 C      9   4   3     1.807997738274    98.81274397   223.31062424
 S     10   9   4     1.821207206676   114.20705436   290.75972822
 P     11  10   9     2.110876291923    99.29430340   280.25267628
 S     12  11  10     1.959361269404   115.30468240   184.35529862
 O     12  11  10     1.585415844202    98.47937773    57.18464040
 C     14  12  11     1.445597779222   123.92673816   194.04226302
 C     15  14  12     1.515365301461   111.41346302   275.42600591
 O     12  11  10     1.599706433361   106.98610739   312.65352303
 C     17  12  11     1.436242396161   121.38369039   264.89529067
 C     18  17  12     1.515504426151   111.74850797    72.77435316
 H      1   2   3     1.086540221334   110.41213197    63.37287102
 H      1   2   3     1.085575118496   109.11238138   183.62161809
 H      1   2   3     1.086503397195   109.93388668   303.48206689
 H      2   1   3     1.093470390517   111.47230019   238.44455440
 H      2   1   3     1.091387347023   111.32502445   115.66646077
 H      7   6   4     1.095331484171   109.21225720    46.05596148
 H      7   6   4     1.091999776424   104.00509571   162.51200960
 H      8   7   6     1.086715702324   110.22119049   303.55500195
 H      8   7   6     1.088614406443   110.55655568    63.65142628
 H      8   7   6     1.085813281041   109.24574528   183.20193156
 H     10   9   4     1.086844238328   106.48644417   169.49287308
 H     10   9   4     1.089102844962   109.26295284    48.37276401
 H     15  14  12     1.091967294212   108.90575183    38.54014424
 H     15  14  12     1.091769490627   103.68606127   155.23181209
 H     16  15  14     1.088187474689   110.38863135    63.03287774
 H     16  15  14     1.085418044615   109.22628765   182.96280337
 H     16  15  14     1.086553636767   110.29539340   303.09830366
 H     18  17  12     1.090909962159   104.22512987   193.69592388
 H     18  17  12     1.094746756046   108.43867634   310.89111347
 H     19  18  17     1.085227524227   109.33287348   176.96928854
 H     19  18  17     1.089942118477   109.82053961   296.27462516
 H     19  18  17     1.087124293423   110.78721207    56.56958472

---------------------------
INTERNAL COORDINATES (A.U.)
---------------------------
 C      0   0   0     0.000000000000     0.00000000     0.00000000
 C      1   0   0     2.862940918889     0.00000000     0.00000000
 O      2   1   0     2.740734694824   110.83620715     0.00000000
 P      3   2   1     2.971179604686   124.02633822   262.41569110
 S      4   3   2     3.694647217310   110.03677234   182.92810412
 O      4   3   2     3.019508385429   101.39953811    56.69690689
 C      6   4   3     2.710674800292   125.51611398   190.57586562
 C      7   6   4     2.864021823288   112.26976289   282.68037160
 S      4   3   2     4.039499420284   104.74498552   308.89178606
 C      9   4   3     3.416620576088    98.81274397   223.31062424
 S     10   9   4     3.441582853740   114.20705436   290.75972822
 P     11  10   9     3.988978094322    99.29430340   280.25267628
 S     12  11  10     3.702656196586   115.30468240   184.35529862
 O     12  11  10     2.996001753920    98.47937773    57.18464040
 C     14  12  11     2.731783902535   123.92673816   194.04226302
 C     15  14  12     2.863625412609   111.41346302   275.42600591
 O     12  11  10     3.023007053723   106.98610739   312.65352303
 C     17  12  11     2.714104790672   121.38369039   264.89529067
 C     18  17  12     2.863888320171   111.74850797    72.77435316
 H      1   2   3     2.053263451811   110.41213197    63.37287102
 H      1   2   3     2.051439671757   109.11238138   183.62161809
 H      1   2   3     2.053193864273   109.93388668   303.48206689
 H      2   1   3     2.066359573629   111.47230019   238.44455440
 H      2   1   3     2.062423191901   111.32502445   115.66646077
 H      7   6   4     2.069876530945   109.21225720    46.05596148
 H      7   6   4     2.063580515746   104.00509571   162.51200960
 H      8   7   6     2.053595062824   110.22119049   303.55500195
 H      8   7   6     2.057183093619   110.55655568    63.65142628
 H      8   7   6     2.051889733743   109.24574528   183.20193156
 H     10   9   4     2.053837960670   106.48644417   169.49287308
 H     10   9   4     2.058106108652   109.26295284    48.37276401
 H     15  14  12     2.063519133260   108.90575183    38.54014424
 H     15  14  12     2.063145338656   103.68606127   155.23181209
 H     16  15  14     2.056376309525   110.38863135    63.03287774
 H     16  15  14     2.051142845138   109.22628765   182.96280337
 H     16  15  14     2.053288803307   110.29539340   303.09830366
 H     18  17  12     2.061521065248   104.22512987   193.69592388
 H     18  17  12     2.068771554925   108.43867634   310.89111347
 H     19  18  17     2.050782813782   109.33287348   176.96928854
 H     19  18  17     2.059692105748   109.82053961   296.27462516
 H     19  18  17     2.054367188102   110.78721207    56.56958472

---------------------
BASIS SET INFORMATION
---------------------
There are 5 groups of distinct atoms

 Group   1 Type C   : 7s4p1d contracted to 3s2p1d pattern {511/31/1}
 Group   2 Type O   : 7s4p1d contracted to 3s2p1d pattern {511/31/1}
 Group   3 Type P   : 10s7p1d contracted to 4s3p1d pattern {5311/511/1}
 Group   4 Type S   : 10s7p1d contracted to 4s3p1d pattern {5311/511/1}
 Group   5 Type H   : 4s contracted to 2s pattern {31}

Atom   0C    basis set group =>   1
Atom   1C    basis set group =>   1
Atom   2O    basis set group =>   2
Atom   3P    basis set group =>   3
Atom   4S    basis set group =>   4
Atom   5O    basis set group =>   2
Atom   6C    basis set group =>   1
Atom   7C    basis set group =>   1
Atom   8S    basis set group =>   4
Atom   9C    basis set group =>   1
Atom  10S    basis set group =>   4
Atom  11P    basis set group =>   3
Atom  12S    basis set group =>   4
Atom  13O    basis set group =>   2
Atom  14C    basis set group =>   1
Atom  15C    basis set group =>   1
Atom  16O    basis set group =>   2
Atom  17C    basis set group =>   1
Atom  18C    basis set group =>   1
Atom  19H    basis set group =>   5
Atom  20H    basis set group =>   5
Atom  21H    basis set group =>   5
Atom  22H    basis set group =>   5
Atom  23H    basis set group =>   5
Atom  24H    basis set group =>   5
Atom  25H    basis set group =>   5
Atom  26H    basis set group =>   5
Atom  27H    basis set group =>   5
Atom  28H    basis set group =>   5
Atom  29H    basis set group =>   5
Atom  30H    basis set group =>   5
Atom  31H    basis set group =>   5
Atom  32H    basis set group =>   5
Atom  33H    basis set group =>   5
Atom  34H    basis set group =>   5
Atom  35H    basis set group =>   5
Atom  36H    basis set group =>   5
Atom  37H    basis set group =>   5
Atom  38H    basis set group =>   5
Atom  39H    basis set group =>   5
Atom  40H    basis set group =>   5
---------------------------------
AUXILIARY/J BASIS SET INFORMATION
---------------------------------
There are 5 groups of distinct atoms

 Group   1 Type C   : 12s5p4d2f1g contracted to 6s4p3d1f1g pattern {711111/2111/211/2/1}
 Group   2 Type O   : 12s5p4d2f1g contracted to 6s4p3d1f1g pattern {711111/2111/211/2/1}
 Group   3 Type P   : 14s5p5d2f1g contracted to 8s4p3d1f1g pattern {71111111/2111/311/2/1}
 Group   4 Type S   : 14s5p5d2f1g contracted to 8s4p3d1f1g pattern {71111111/2111/311/2/1}
 Group   5 Type H   : 5s2p1d contracted to 3s1p1d pattern {311/2/1}

Atom   0C    basis set group =>   1
Atom   1C    basis set group =>   1
Atom   2O    basis set group =>   2
Atom   3P    basis set group =>   3
Atom   4S    basis set group =>   4
Atom   5O    basis set group =>   2
Atom   6C    basis set group =>   1
Atom   7C    basis set group =>   1
Atom   8S    basis set group =>   4
Atom   9C    basis set group =>   1
Atom  10S    basis set group =>   4
Atom  11P    basis set group =>   3
Atom  12S    basis set group =>   4
Atom  13O    basis set group =>   2
Atom  14C    basis set group =>   1
Atom  15C    basis set group =>   1
Atom  16O    basis set group =>   2
Atom  17C    basis set group =>   1
Atom  18C    basis set group =>   1
Atom  19H    basis set group =>   5
Atom  20H    basis set group =>   5
Atom  21H    basis set group =>   5
Atom  22H    basis set group =>   5
Atom  23H    basis set group =>   5
Atom  24H    basis set group =>   5
Atom  25H    basis set group =>   5
Atom  26H    basis set group =>   5
Atom  27H    basis set group =>   5
Atom  28H    basis set group =>   5
Atom  29H    basis set group =>   5
Atom  30H    basis set group =>   5
Atom  31H    basis set group =>   5
Atom  32H    basis set group =>   5
Atom  33H    basis set group =>   5
Atom  34H    basis set group =>   5
Atom  35H    basis set group =>   5
Atom  36H    basis set group =>   5
Atom  37H    basis set group =>   5
Atom  38H    basis set group =>   5
Atom  39H    basis set group =>   5
Atom  40H    basis set group =>   5
------------------------------------------------------------------------------
                             ORCA STARTUP CALCULATIONS
                           -- RI-GTO INTEGRALS CHOSEN --
------------------------------------------------------------------------------
------------------------------------------------------------------------------
                   ___                                                        
                  /   \      - P O W E R E D   B Y -                         
                 /     \                                                     
                 |  |  |   _    _      __       _____    __    __             
                 |  |  |  | |  | |    /  \     |  _  \  |  |  /  |          
                  \  \/   | |  | |   /    \    | | | |  |  | /  /          
                 / \  \   | |__| |  /  /\  \   | |_| |  |  |/  /          
                |  |  |   |  __  | /  /__\  \  |    /   |      \           
                |  |  |   | |  | | |   __   |  |    \   |  |\   \          
                \     /   | |  | | |  |  |  |  | |\  \  |  | \   \       
                 \___/    |_|  |_| |__|  |__|  |_| \__\ |__|  \__/        
                                                                              
                      - O R C A' S   B I G   F R I E N D -                    
                                      &                                       
                       - I N T E G R A L  F E E D E R -                       
                                                                              
 v1 FN, 2020, v2 2021, v3 2022-2024                                           
------------------------------------------------------------------------------


----------------------
SHARK INTEGRAL PACKAGE
----------------------

Number of atoms                             ...     41
Number of basis functions                   ...    334
Number of shells                            ...    170
Maximum angular momentum                    ...      2
Integral batch strategy                     ... SHARK/LIBINT Hybrid
RI-J (if used) integral strategy            ... SPLIT-RIJ (Revised 2003 algorithm where possible)
Printlevel                                  ...      1
Contraction scheme used                     ... SEGMENTED contraction
Prescreening option                         ... SCHWARTZ
   Thresh                                   ... 1.000e-09
   Tcut                                     ... 1.000e-10
   Tpresel                                  ... 1.000e-10 
Coulomb Range Separation                    ... NOT USED
Exchange Range Separation                   ... NOT USED
Multipole approximations                    ... NOT USED
Finite Nucleus Model                        ... NOT USED
CABS basis                                  ... NOT available
Auxiliary Coulomb fitting basis             ... AVAILABLE
   # of basis functions in Aux-J            ...   1185
   # of shells in Aux-J                     ...    407
   Maximum angular momentum in Aux-J        ...      4
Auxiliary J/K fitting basis                 ... NOT available
Auxiliary Correlation fitting basis         ... NOT available
Auxiliary 'external' fitting basis          ... NOT available

Checking pre-screening integrals            ... done (  0.0 sec) Dimension = 170
Check shell pair data                       ... done (  0.0 sec)
Shell pair information
Shell pair cut-off parameter TPreSel        ...   1.0e-10
Total number of shell pairs                 ...     14535
Shell pairs after pre-screening             ...     10274
Total number of primitive shell pairs       ...     62501
Primitive shell pairs kept                  ...     25415
          la=0 lb=0:   4000 shell pairs
          la=1 lb=0:   3472 shell pairs
          la=1 lb=1:    798 shell pairs
          la=2 lb=0:   1304 shell pairs
          la=2 lb=1:    589 shell pairs
          la=2 lb=2:    111 shell pairs

Calculating one electron integrals          ... done (  0.1 sec)
Calculating RI/J V-Matrix + Cholesky decomp.... done (  0.1 sec)
Calculating Nuclear repulsion               ... done (  0.0 sec) ENN=   2750.180663886909 Eh

Diagonalization of the overlap matrix:
Smallest eigenvalue                        ... 3.110e-03
Time for diagonalization                   ...    0.010 sec
Threshold for overlap eigenvalues          ... 1.000e-07
Number of eigenvalues below threshold      ... 0
Time for construction of square roots      ...    0.024 sec
Total time needed                          ...    0.042 sec

-------------------
DFT GRID GENERATION
-------------------

General Integration Accuracy     IntAcc      ... 4.159
Radial Grid Type                 RadialGrid  ... OptM3 with GC (2021)
Angular Grid (max. ang.)         AngularGrid ... 3 (Lebedev-194)
Angular grid pruning method      GridPruning ... 4 (adaptive)
Weight generation scheme         WeightScheme... mBecke (2022)
Basis function cutoff            BFCut       ... 1.0000e-10
Integration weight cutoff        WCut        ... 1.0000e-14
Partially contracted basis set               ... off
Rotationally invariant grid construction     ... off
Angular grids for H and He will be reduced by one unit

Total number of grid points                  ...    97461
Total number of batches                      ...     1545
Average number of points per batch           ...       63
Average number of grid points per atom       ...     2377
Initializing property integral containers    ... done (  0.0 sec)

SHARK setup successfully completed in   1.5 seconds

Maximum memory used throughout the entire STARTUP-calculation: 51.8 MB
-------------------------------------------------------------------------------
                                 ORCA GUESS
                   Start orbitals & Density for SCF / CASSCF
-------------------------------------------------------------------------------

------------
SCF SETTINGS
------------
Hamiltonian:
 Density Functional     Method          .... DFT(GTOs)
 Exchange Functional    Exchange        .... PBE
   PBE kappa parameter   XKappa         ....  0.804000
   PBE mue parameter    XMuePBE         ....  0.219520
 Correlation Functional Correlation     .... PBE
   PBE beta parameter  CBetaPBE         ....  0.066725
 LDA part of GGA corr.  LDAOpt          .... PW91-LDA
 Gradients option       PostSCFGGA      .... off
   NL short-range parameter             ....  6.400000
 RI-approximation to the Coulomb term is turned on
   Number of AuxJ basis functions       .... 1185


General Settings:
 Integral files         IntName         .... sp
 Hartree-Fock type      HFTyp           .... RHF
 Total Charge           Charge          ....    0
 Multiplicity           Mult            ....    1
 Number of Electrons    NEL             ....  202
 Basis Dimension        Dim             ....  334
 Nuclear Repulsion      ENuc            ....   2750.1806638869 Eh

Convergence Acceleration:
 AO-DIIS                CNVDIIS         .... on
   Start iteration      DIISMaxIt       ....    12
   Startup error        DIISStart       ....  0.200000
   # of expansion vecs  DIISMaxEq       ....     5
   Bias factor          DIISBfac        ....   1.050
   Max. coefficient     DIISMaxC        ....  10.000
 MO-DIIS                CNVKDIIS        .... off
 Trust-Rad. Augm. Hess. CNVTRAH         .... auto
   Auto Start mean grad. ratio tolernc. ....  1.125000
   Auto Start start iteration           ....    50
   Auto Start num. interpolation iter.  ....    10
   Max. Number of Micro iterations      ....    24
   Max. Number of Macro iterations      .... Maxiter - #DIIS iter
   Number of Davidson start vectors     ....     2
   Converg. threshold    (grad. norm)   ....   1.000e-04
   Grad. Scal. Fac. for Micro threshold ....   0.100
   Minimum threshold for Micro iter.    ....   1.000e-02
   NR start threshold (gradient norm)   ....   1.000e-04
   Initial trust radius                 ....   0.400
   Minimum AH scaling param. (alpha)    ....   1.000
   Maximum AH scaling param. (alpha)    .... 1000.000
   Quad. conv. algorithm                .... NR
   White noise on init. David. guess    .... on
   Maximum white noise                  ....   0.010
   Pseudo random numbers                .... off
   Inactive MOs                         .... canonical
   Orbital update algorithm             .... Taylor
   Preconditioner                       .... Diag
   Full preconditioner red. dimension   ....   250
 SOSCF                  CNVSOSCF        .... on
   Start iteration      SOSCFMaxIt      ....   150
   Startup grad/error   SOSCFStart      ....  0.003300
   Hessian update       SOSCFHessUp     .... L-BFGS
 Level Shifting         CNVShift        .... on
   Level shift para.    LevelShift      ....    0.2500
   Turn off err/grad.   ShiftErr        ....    0.0010
 Zerner damping         CNVZerner       .... off
 Static damping         CNVDamp         .... on
   Fraction old density DampFac         ....    0.7000
   Max. Damping (<1)    DampMax         ....    0.9800
   Min. Damping (>=0)   DampMin         ....    0.0000
   Turn off err/grad.   DampErr         ....    0.1000

SCF Procedure:
 Maximum # iterations   MaxIter         ....   125
 SCF integral mode      SCFMode         .... Direct
   Integral package                     .... SHARK and LIBINT hybrid scheme
 Reset frequency        DirectResetFreq ....    20
 Integral Threshold     Thresh          ....  1.000e-09 Eh
 Primitive CutOff       TCut            ....  1.000e-10 Eh

Convergence Tolerance:
 Convergence Check Mode ConvCheckMode   .... Total+1el-Energy
 Convergence forced     ConvForced      .... 0
 Energy Change          TolE            ....  1.000e-05 Eh
 1-El. energy change                    ....  1.000e-02 Eh
 Orbital Gradient       TolG            ....  1.000e-04
 Orbital Rotation angle TolX            ....  1.000e-04
 DIIS Error             TolErr          ....  5.000e-04

------------------------------
INITIAL GUESS: MODEL POTENTIAL
------------------------------
Loading Hartree-Fock densities                     ... done
Calculating cut-offs                               ... done
Initializing the effective Hamiltonian             ... done
Setting up the integral package (SHARK)            ... done
Starting the Coulomb interaction                   ... done (   0.6 sec)
Making the grid                                    ... done (   0.5 sec)
Mapping shells                                     ... done
Starting the XC term evaluation                    ... done (   0.4 sec)
  promolecular density results
     # of electrons  =    201.987444984
     EX              =   -229.990044644
     EC              =     -7.282610188
     EX+EC           =   -237.272654832
Transforming the Hamiltonian                       ... done (   0.0 sec)
Diagonalizing the Hamiltonian                      ... done (   0.0 sec)
Back transforming the eigenvectors                 ... done (   0.0 sec)
Now organizing SCF variables                       ... done
                      ------------------
                      INITIAL GUESS DONE (   1.6 sec)
                      ------------------
             **** ENERGY FILE WAS UPDATED (sp.en.tmp) ****
Finished Guess after   1.9 sec
Maximum memory used throughout the entire GUESS-calculation: 39.1 MB

-------------------------------------------------------------------------------------------
                                      ORCA LEAN-SCF
                              memory conserving SCF solver
-------------------------------------------------------------------------------------------

----------------------------------------D-I-I-S--------------------------------------------
Iteration    Energy (Eh)           Delta-E    RMSDP     MaxDP     DIISErr   Damp  Time(sec)
-------------------------------------------------------------------------------------------
               ***  Starting incremental Fock matrix formation  ***
    1    -2929.1937981863038658     0.00e+00  2.66e-03  1.36e-01  1.84e-01  0.700   2.2
    2    -2929.4190346550403774    -2.25e-01  1.72e-03  7.03e-02  7.56e-02  0.700   2.1
                               ***Turning on AO-DIIS***
    3    -2929.4906634529224903    -7.16e-02  6.78e-04  1.82e-02  2.20e-02  0.700   2.0
    4    -2929.5357223817782142    -4.51e-02  1.04e-03  3.38e-02  9.81e-03  0.000   2.0
    5    -2929.6407072914535092    -1.05e-01  3.07e-04  1.18e-02  8.62e-03  0.000   1.9
                              *** Initializing SOSCF ***
---------------------------------------S-O-S-C-F--------------------------------------
Iteration    Energy (Eh)           Delta-E    RMSDP     MaxDP     MaxGrad    Time(sec)
--------------------------------------------------------------------------------------
    6    -2929.6417838308525461    -1.08e-03  1.11e-04  3.15e-03  2.19e-03     1.8
               *** Restarting incremental Fock matrix formation ***
    7    -2929.6419240411714782    -1.40e-04  7.05e-05  1.50e-03  1.93e-04     2.2
    8    -2929.6419292526143181    -5.21e-06  2.67e-05  7.82e-04  1.85e-04     1.7
                 **** Energy Check signals convergence ****

               *****************************************************
               *                     SUCCESS                       *
               *           SCF CONVERGED AFTER   8 CYCLES          *
               *****************************************************

             **** ENERGY FILE WAS UPDATED (sp.en.tmp) ****

----------------
TOTAL SCF ENERGY
----------------

Total Energy       :      -2929.64192925261432 Eh          -79719.60976 eV

Components:
Nuclear Repulsion  :       2750.18066388690931 Eh           74836.22046 eV
Electronic Energy  :      -5679.82259313952454 Eh         -154555.83023 eV
One Electron Energy:      -9518.56961764448897 Eh         -259013.44729 eV
Two Electron Energy:       3838.74702450496488 Eh          104457.61706 eV

Virial components:
Potential Energy   :      -5848.90119516110099 Eh         -159156.69289 eV
Kinetic Energy     :       2919.25926590848621 Eh           79437.08313 eV
Virial Ratio       :          2.00355660885122

DFT components:
N(Alpha)           :      100.999646081148 electrons
N(Beta)            :      100.999646081148 electrons
N(Total)           :      201.999292162295 electrons
E(X)               :     -231.801663047096 Eh       
E(C)               :       -7.292665429869 Eh       
E(XC)              :     -239.094328476965 Eh       

---------------
SCF CONVERGENCE
---------------

  Last Energy change         ...    5.2114e-06  Tolerance :   1.0000e-05
  Last MAX-Density change    ...    7.8235e-04  Tolerance :   1.0000e-03
  Last RMS-Density change    ...    2.6676e-05  Tolerance :   1.0000e-04
  Last DIIS Error            ...    2.1868e-03  Tolerance :   5.0000e-04
  Last Orbital Gradient      ...    1.8508e-04  Tolerance :   1.0000e-04
  Last Orbital Rotation      ...    3.0352e-04  Tolerance :   1.0000e-04


----------------
ORBITAL ENERGIES
----------------

  NO   OCC          E(Eh)            E(eV) 
   0   2.0000     -88.047000     -2395.8807 
   1   2.0000     -88.042798     -2395.7663 
   2   2.0000     -87.990741     -2394.3498 
   3   2.0000     -87.986332     -2394.2298 
   4   2.0000     -76.430531     -2079.7805 
   5   2.0000     -76.427136     -2079.6881 
   6   2.0000     -18.800545      -511.5888 
   7   2.0000     -18.796809      -511.4872 
   8   2.0000     -18.792738      -511.3764 
   9   2.0000     -18.790780      -511.3231 
  10   2.0000      -9.961338      -271.0618 
  11   2.0000      -9.959923      -271.0233 
  12   2.0000      -9.959224      -271.0043 
  13   2.0000      -9.956604      -270.9330 
  14   2.0000      -9.946314      -270.6530 
  15   2.0000      -9.888846      -269.0892 
  16   2.0000      -9.888161      -269.0705 
  17   2.0000      -9.886499      -269.0253 
  18   2.0000      -9.871262      -268.6107 
  19   2.0000      -7.691513      -209.2967 
  20   2.0000      -7.687733      -209.1938 
  21   2.0000      -7.635829      -207.7815 
  22   2.0000      -7.631550      -207.6650 
  23   2.0000      -6.428040      -174.9159 
  24   2.0000      -6.424430      -174.8176 
  25   2.0000      -5.719779      -155.6431 
  26   2.0000      -5.715756      -155.5336 
  27   2.0000      -5.715650      -155.5307 
  28   2.0000      -5.712246      -155.4381 
  29   2.0000      -5.708443      -155.3346 
  30   2.0000      -5.704688      -155.2325 
  31   2.0000      -5.664762      -154.1460 
  32   2.0000      -5.660647      -154.0340 
  33   2.0000      -5.656455      -153.9200 
  34   2.0000      -5.655988      -153.9073 
  35   2.0000      -5.652145      -153.8027 
  36   2.0000      -5.651521      -153.7857 
  37   2.0000      -4.650798      -126.5547 
  38   2.0000      -4.649915      -126.5306 
  39   2.0000      -4.648242      -126.4851 
  40   2.0000      -4.647149      -126.4554 
  41   2.0000      -4.646353      -126.4337 
  42   2.0000      -4.644673      -126.3880 
  43   2.0000      -0.993598       -27.0372 
  44   2.0000      -0.987595       -26.8738 
  45   2.0000      -0.950823       -25.8732 
  46   2.0000      -0.943558       -25.6755 
  47   2.0000      -0.765206       -20.8223 
  48   2.0000      -0.725035       -19.7292 
  49   2.0000      -0.712776       -19.3956 
  50   2.0000      -0.692018       -18.8308 
  51   2.0000      -0.686472       -18.6799 
  52   2.0000      -0.676353       -18.4045 
  53   2.0000      -0.654427       -17.8079 
  54   2.0000      -0.641274       -17.4499 
  55   2.0000      -0.597003       -16.2453 
  56   2.0000      -0.586927       -15.9711 
  57   2.0000      -0.582542       -15.8518 
  58   2.0000      -0.575330       -15.6555 
  59   2.0000      -0.567154       -15.4331 
  60   2.0000      -0.507954       -13.8221 
  61   2.0000      -0.501309       -13.6413 
  62   2.0000      -0.476213       -12.9584 
  63   2.0000      -0.475290       -12.9333 
  64   2.0000      -0.465223       -12.6594 
  65   2.0000      -0.448024       -12.1914 
  66   2.0000      -0.444075       -12.0839 
  67   2.0000      -0.435733       -11.8569 
  68   2.0000      -0.427669       -11.6375 
  69   2.0000      -0.422953       -11.5091 
  70   2.0000      -0.411004       -11.1840 
  71   2.0000      -0.401654       -10.9296 
  72   2.0000      -0.395499       -10.7621 
  73   2.0000      -0.389665       -10.6033 
  74   2.0000      -0.385743       -10.4966 
  75   2.0000      -0.371708       -10.1147 
  76   2.0000      -0.366787        -9.9808 
  77   2.0000      -0.359544        -9.7837 
  78   2.0000      -0.357255        -9.7214 
  79   2.0000      -0.353000        -9.6056 
  80   2.0000      -0.348974        -9.4961 
  81   2.0000      -0.346483        -9.4283 
  82   2.0000      -0.339385        -9.2351 
  83   2.0000      -0.335843        -9.1387 
  84   2.0000      -0.330433        -8.9915 
  85   2.0000      -0.326666        -8.8890 
  86   2.0000      -0.317430        -8.6377 
  87   2.0000      -0.302582        -8.2337 
  88   2.0000      -0.297930        -8.1071 
  89   2.0000      -0.289871        -7.8878 
  90   2.0000      -0.288315        -7.8454 
  91   2.0000      -0.282287        -7.6814 
  92   2.0000      -0.277868        -7.5612 
  93   2.0000      -0.268613        -7.3093 
  94   2.0000      -0.259189        -7.0529 
  95   2.0000      -0.236768        -6.4428 
  96   2.0000      -0.217155        -5.9091 
  97   2.0000      -0.209926        -5.7124 
  98   2.0000      -0.207206        -5.6384 
  99   2.0000      -0.204705        -5.5703 
 100   2.0000      -0.199221        -5.4211 
 101   0.0000      -0.045971        -1.2509 
 102   0.0000      -0.026308        -0.7159 
 103   0.0000      -0.011987        -0.3262 
 104   0.0000      -0.003348        -0.0911 
 105   0.0000       0.004920         0.1339 
 106   0.0000       0.018119         0.4930 
 107   0.0000       0.024839         0.6759 
 108   0.0000       0.035193         0.9577 
 109   0.0000       0.041930         1.1410 
 110   0.0000       0.046803         1.2736 
 111   0.0000       0.051041         1.3889 
*Only the first 10 virtual orbitals were printed.

                    ********************************
                    * MULLIKEN POPULATION ANALYSIS *
                    ********************************

-----------------------
MULLIKEN ATOMIC CHARGES
-----------------------
   0 C :   -0.288447
   1 C :   -0.016959
   2 O :   -0.355323
   3 P :    0.605268
   4 S :   -0.304394
   5 O :   -0.378746
   6 C :   -0.034898
   7 C :   -0.303533
   8 S :   -0.116504
   9 C :   -0.339836
  10 S :   -0.057095
  11 P :    0.609487
  12 S :   -0.317003
  13 O :   -0.366576
  14 C :   -0.006578
  15 C :   -0.299795
  16 O :   -0.388644
  17 C :   -0.008405
  18 C :   -0.314235
  19 H :    0.125048
  20 H :    0.108884
  21 H :    0.122617
  22 H :    0.105474
  23 H :    0.113786
  24 H :    0.126661
  25 H :    0.097766
  26 H :    0.110326
  27 H :    0.140215
  28 H :    0.110008
  29 H :    0.180988
  30 H :    0.196136
  31 H :    0.104496
  32 H :    0.105586
  33 H :    0.130174
  34 H :    0.108837
  35 H :    0.115726
  36 H :    0.103946
  37 H :    0.114298
  38 H :    0.115527
  39 H :    0.131179
  40 H :    0.114538
Sum of atomic charges:    0.0000000

--------------------------------
MULLIKEN REDUCED ORBITAL CHARGES
--------------------------------
  0 C s       :     3.093034  s :     3.093034
      pz      :     1.057263  p :     3.167614
      px      :     1.055847
      py      :     1.054504
      dz2     :     0.006430  d :     0.027798
      dxz     :     0.006097
      dyz     :     0.002427
      dx2y2   :     0.006414
      dxy     :     0.006431

  1 C s       :     3.088970  s :     3.088970
      pz      :     0.752416  p :     2.868442
      px      :     1.032636
      py      :     1.083391
      dz2     :     0.015995  d :     0.059546
      dxz     :     0.015027
      dyz     :     0.011583
      dx2y2   :     0.008575
      dxy     :     0.008365

  2 O s       :     3.754570  s :     3.754570
      pz      :     1.363148  p :     4.587509
      px      :     1.491800
      py      :     1.732561
      dz2     :     0.003594  d :     0.013244
      dxz     :     0.002479
      dyz     :     0.002293
      dx2y2   :     0.002296
      dxy     :     0.002582

  3 P s       :     5.209962  s :     5.209962
      pz      :     2.927948  p :     8.600172
      px      :     2.854293
      py      :     2.817931
      dz2     :     0.101303  d :     0.584597
      dxz     :     0.126100
      dyz     :     0.119617
      dx2y2   :     0.140708
      dxy     :     0.096868

  4 S s       :     5.917821  s :     5.917821
      pz      :     3.071880  p :    10.343948
      px      :     3.655074
      py      :     3.616994
      dz2     :     0.018668  d :     0.042625
      dxz     :     0.008295
      dyz     :     0.012751
      dx2y2   :     0.001421
      dxy     :     0.001490

  5 O s       :     3.756908  s :     3.756908
      pz      :     1.757801  p :     4.609274
      px      :     1.573056
      py      :     1.278417
      dz2     :     0.001676  d :     0.012564
      dxz     :     0.001483
      dyz     :     0.002306
      dx2y2   :     0.003902
      dxy     :     0.003196

  6 C s       :     3.089898  s :     3.089898
      pz      :     1.076866  p :     2.884463
      px      :     0.910630
      py      :     0.896967
      dz2     :     0.009699  d :     0.060538
      dxz     :     0.011536
      dyz     :     0.012546
      dx2y2   :     0.010819
      dxy     :     0.015937

  7 C s       :     3.100558  s :     3.100558
      pz      :     1.015988  p :     3.175179
      px      :     1.068046
      py      :     1.091145
      dz2     :     0.006467  d :     0.027796
      dxz     :     0.005313
      dyz     :     0.005944
      dx2y2   :     0.003060
      dxy     :     0.007013

  8 S s       :     5.871472  s :     5.871472
      pz      :     3.305447  p :    10.170733
      px      :     3.162173
      py      :     3.703113
      dz2     :     0.011458  d :     0.074299
      dxz     :     0.031960
      dyz     :     0.011565
      dx2y2   :     0.008870
      dxy     :     0.010446

  9 C s       :     3.209396  s :     3.209396
      pz      :     1.016544  p :     3.090348
      px      :     1.026982
      py      :     1.046823
      dz2     :     0.003627  d :     0.040091
      dxz     :     0.012219
      dyz     :     0.010695
      dx2y2   :     0.005394
      dxy     :     0.008156

 10 S s       :     5.888977  s :     5.888977
      pz      :     3.360105  p :    10.090441
      px      :     3.372609
      py      :     3.357727
      dz2     :     0.009852  d :     0.077677
      dxz     :     0.022186
      dyz     :     0.021060
      dx2y2   :     0.010878
      dxy     :     0.013702

 11 P s       :     5.198882  s :     5.198882
      pz      :     2.855706  p :     8.605638
      px      :     2.881570
      py      :     2.868361
      dz2     :     0.089982  d :     0.585994
      dxz     :     0.148273
      dyz     :     0.112637
      dx2y2   :     0.110300
      dxy     :     0.124802

 12 S s       :     5.918131  s :     5.918131
      pz      :     3.600398  p :    10.356333
      px      :     3.415431
      py      :     3.340504
      dz2     :     0.005656  d :     0.042540
      dxz     :     0.006110
      dyz     :     0.008081
      dx2y2   :     0.008249
      dxy     :     0.014443

 13 O s       :     3.759225  s :     3.759225
      pz      :     1.251232  p :     4.594287
      px      :     1.601287
      py      :     1.741768
      dz2     :     0.002496  d :     0.013064
      dxz     :     0.004953
      dyz     :     0.001817
      dx2y2   :     0.001999
      dxy     :     0.001799

 14 C s       :     3.077689  s :     3.077689
      pz      :     0.757065  p :     2.869123
      px      :     1.056441
      py      :     1.055617
      dz2     :     0.015842  d :     0.059766
      dxz     :     0.014480
      dyz     :     0.012397
      dx2y2   :     0.006421
      dxy     :     0.010627

 15 C s       :     3.099540  s :     3.099540
      pz      :     1.061680  p :     3.172477
      px      :     1.100234
      py      :     1.010563
      dz2     :     0.006857  d :     0.027779
      dxz     :     0.005293
      dyz     :     0.002584
      dx2y2   :     0.005162
      dxy     :     0.007882

 16 O s       :     3.763818  s :     3.763818
      pz      :     1.672126  p :     4.611860
      px      :     1.409331
      py      :     1.530403
      dz2     :     0.001751  d :     0.012966
      dxz     :     0.003125
      dyz     :     0.002627
      dx2y2   :     0.003090
      dxy     :     0.002373

 17 C s       :     3.076999  s :     3.076999
      pz      :     1.021213  p :     2.870867
      px      :     0.813623
      py      :     1.036031
      dz2     :     0.010583  d :     0.060539
      dxz     :     0.013379
      dyz     :     0.011175
      dx2y2   :     0.009883
      dxy     :     0.015518

 18 C s       :     3.108065  s :     3.108065
      pz      :     1.034067  p :     3.178255
      px      :     1.072268
      py      :     1.071920
      dz2     :     0.006467  d :     0.027916
      dxz     :     0.003698
      dyz     :     0.007135
      dx2y2   :     0.002988
      dxy     :     0.007629

 19 H s       :     0.874952  s :     0.874952

 20 H s       :     0.891116  s :     0.891116

 21 H s       :     0.877383  s :     0.877383

 22 H s       :     0.894526  s :     0.894526

 23 H s       :     0.886214  s :     0.886214

 24 H s       :     0.873339  s :     0.873339

 25 H s       :     0.902234  s :     0.902234

 26 H s       :     0.889674  s :     0.889674

 27 H s       :     0.859785  s :     0.859785

 28 H s       :     0.889992  s :     0.889992

 29 H s       :     0.819012  s :     0.819012

 30 H s       :     0.803864  s :     0.803864

 31 H s       :     0.895504  s :     0.895504

 32 H s       :     0.894414  s :     0.894414

 33 H s       :     0.869826  s :     0.869826

 34 H s       :     0.891163  s :     0.891163

 35 H s       :     0.884274  s :     0.884274

 36 H s       :     0.896054  s :     0.896054

 37 H s       :     0.885702  s :     0.885702

 38 H s       :     0.884473  s :     0.884473

 39 H s       :     0.868821  s :     0.868821

 40 H s       :     0.885462  s :     0.885462


------------------------
MULLIKEN OVERLAP CHARGES
------------------------
B(  0-C ,  1-C ) :   0.9012 B(  0-C ,  2-O ) :  -0.0997 B(  0-C , 19-H ) :   0.7397 
B(  0-C , 20-H ) :   0.6934 B(  0-C , 21-H ) :   0.7381 B(  0-C , 22-H ) :  -0.0665 
B(  0-C , 23-H ) :  -0.0523 B(  1-C ,  2-O ) :   0.5106 B(  1-C , 22-H ) :   0.7218 
B(  1-C , 23-H ) :   0.7422 B(  2-O ,  3-P ) :   0.6660 B(  2-O ,  4-S ) :  -0.0691 
B(  2-O ,  5-O ) :  -0.0719 B(  2-O ,  8-S ) :  -0.0653 B(  2-O , 22-H ) :  -0.0590 
B(  2-O , 23-H ) :  -0.0542 B(  3-P ,  4-S ) :   0.9383 B(  3-P ,  5-O ) :   0.6104 
B(  3-P ,  6-C ) :  -0.0794 B(  3-P ,  8-S ) :   0.5529 B(  3-P ,  9-C ) :  -0.0704 
B(  4-S ,  5-O ) :  -0.0625 B(  4-S ,  8-S ) :  -0.0847 B(  4-S , 30-H ) :   0.0760 
B(  5-O ,  6-C ) :   0.5562 B(  5-O ,  7-C ) :  -0.1069 B(  5-O ,  8-S ) :  -0.0835 
B(  5-O , 24-H ) :  -0.0533 B(  5-O , 25-H ) :  -0.0606 B(  6-C ,  7-C ) :   0.9167 
B(  6-C , 24-H ) :   0.6865 B(  6-C , 25-H ) :   0.7193 B(  7-C , 24-H ) :  -0.0655 
B(  7-C , 25-H ) :  -0.0521 B(  7-C , 26-H ) :   0.7260 B(  7-C , 27-H ) :   0.7477 
B(  7-C , 28-H ) :   0.6901 B(  8-S ,  9-C ) :   0.5219 B(  8-S , 10-S ) :  -0.1633 
B(  8-S , 29-H ) :  -0.0580 B(  8-S , 30-H ) :  -0.0586 B(  9-C , 10-S ) :   0.4137 
B(  9-C , 29-H ) :   0.6754 B(  9-C , 30-H ) :   0.6644 B( 10-S , 11-P ) :   0.5184 
B( 10-S , 12-S ) :  -0.0725 B( 10-S , 13-O ) :  -0.0916 B( 10-S , 16-O ) :  -0.0706 
B( 10-S , 29-H ) :  -0.0639 B( 10-S , 30-H ) :  -0.0529 B( 11-P , 12-S ) :   0.9626 
B( 11-P , 13-O ) :   0.6072 B( 11-P , 14-C ) :  -0.0590 B( 11-P , 16-O ) :   0.5714 
B( 11-P , 17-C ) :  -0.0853 B( 12-S , 13-O ) :  -0.0580 B( 12-S , 16-O ) :  -0.0729 
B( 12-S , 37-H ) :   0.0739 B( 13-O , 14-C ) :   0.5338 B( 13-O , 15-C ) :  -0.0976 
B( 13-O , 16-O ) :  -0.0590 B( 13-O , 31-H ) :  -0.0585 B( 13-O , 32-H ) :  -0.0639 
B( 14-C , 15-C ) :   0.9235 B( 14-C , 31-H ) :   0.7203 B( 14-C , 32-H ) :   0.7332 
B( 15-C , 31-H ) :  -0.0646 B( 15-C , 32-H ) :  -0.0559 B( 15-C , 33-H ) :   0.7301 
B( 15-C , 34-H ) :   0.6939 B( 15-C , 35-H ) :   0.7423 B( 16-O , 17-C ) :   0.5565 
B( 16-O , 18-C ) :  -0.0928 B( 16-O , 36-H ) :  -0.0580 B( 16-O , 37-H ) :  -0.0670 
B( 17-C , 18-C ) :   0.9151 B( 17-C , 36-H ) :   0.7253 B( 17-C , 37-H ) :   0.7121 
B( 18-C , 36-H ) :  -0.0550 B( 18-C , 37-H ) :  -0.0618 B( 18-C , 38-H ) :   0.6999 
B( 18-C , 39-H ) :   0.7245 B( 18-C , 40-H ) :   0.7406 B( 22-H , 23-H ) :  -0.0694 
B( 24-H , 25-H ) :  -0.0659 B( 31-H , 32-H ) :  -0.0715 B( 36-H , 37-H ) :  -0.0609 



                     *******************************
                     * LOEWDIN POPULATION ANALYSIS *
                     *******************************

----------------------
LOEWDIN ATOMIC CHARGES
----------------------
   0 C :   -0.358591
   1 C :   -0.111281
   2 O :   -0.236015
   3 P :    0.566335
   4 S :   -0.297339
   5 O :   -0.245753
   6 C :   -0.125832
   7 C :   -0.366850
   8 S :    0.065297
   9 C :   -0.478838
  10 S :    0.116509
  11 P :    0.559124
  12 S :   -0.316865
  13 O :   -0.240448
  14 C :   -0.112198
  15 C :   -0.363626
  16 O :   -0.249962
  17 C :   -0.123955
  18 C :   -0.366315
  19 H :    0.127961
  20 H :    0.128941
  21 H :    0.130658
  22 H :    0.103664
  23 H :    0.123059
  24 H :    0.101842
  25 H :    0.114873
  26 H :    0.124112
  27 H :    0.119746
  28 H :    0.130558
  29 H :    0.130912
  30 H :    0.133876
  31 H :    0.111153
  32 H :    0.117340
  33 H :    0.124575
  34 H :    0.129071
  35 H :    0.126925
  36 H :    0.117281
  37 H :    0.110207
  38 H :    0.132529
  39 H :    0.123997
  40 H :    0.123322

-------------------------------
LOEWDIN REDUCED ORBITAL CHARGES
-------------------------------
  0 C s       :     2.951962  s :     2.951962
      pz      :     1.122919  p :     3.337719
      px      :     1.111190
      py      :     1.103610
      dz2     :     0.016402  d :     0.068910
      dxz     :     0.014903
      dyz     :     0.005721
      dx2y2   :     0.013866
      dxy     :     0.018018

  1 C s       :     2.929469  s :     2.929469
      pz      :     0.836100  p :     3.049336
      px      :     1.095454
      py      :     1.117782
      dz2     :     0.036629  d :     0.132476
      dxz     :     0.032708
      dyz     :     0.023622
      dx2y2   :     0.017077
      dxy     :     0.022440

  2 O s       :     3.499630  s :     3.499630
      pz      :     1.424435  p :     4.712467
      px      :     1.555011
      py      :     1.733020
      dz2     :     0.007243  d :     0.023918
      dxz     :     0.005104
      dyz     :     0.003964
      dx2y2   :     0.003696
      dxy     :     0.003910

  3 P s       :     5.057724  s :     5.057724
      pz      :     2.923714  p :     8.559765
      px      :     2.835944
      py      :     2.800107
      dz2     :     0.142544  d :     0.816176
      dxz     :     0.177607
      dyz     :     0.159131
      dx2y2   :     0.208142
      dxy     :     0.128753

  4 S s       :     5.765533  s :     5.765533
      pz      :     3.185037  p :    10.474477
      px      :     3.658284
      py      :     3.631157
      dz2     :     0.027836  d :     0.057329
      dxz     :     0.008922
      dyz     :     0.017303
      dx2y2   :     0.001607
      dxy     :     0.001661

  5 O s       :     3.497947  s :     3.497947
      pz      :     1.754835  p :     4.724386
      px      :     1.603969
      py      :     1.365582
      dz2     :     0.002910  d :     0.023419
      dxz     :     0.002037
      dyz     :     0.004069
      dx2y2   :     0.008115
      dxy     :     0.006290

  6 C s       :     2.926506  s :     2.926506
      pz      :     1.112363  p :     3.063531
      px      :     0.980345
      py      :     0.970823
      dz2     :     0.025421  d :     0.135795
      dxz     :     0.024048
      dyz     :     0.027440
      dx2y2   :     0.023593
      dxy     :     0.035292

  7 C s       :     2.953062  s :     2.953062
      pz      :     1.077488  p :     3.344895
      px      :     1.127565
      py      :     1.139842
      dz2     :     0.018264  d :     0.068893
      dxz     :     0.012161
      dyz     :     0.014190
      dx2y2   :     0.007312
      dxy     :     0.016966

  8 S s       :     5.638546  s :     5.638546
      pz      :     3.352672  p :    10.202252
      px      :     3.166673
      py      :     3.682907
      dz2     :     0.012615  d :     0.093905
      dxz     :     0.042834
      dyz     :     0.013466
      dx2y2   :     0.011692
      dxy     :     0.013298

  9 C s       :     3.060909  s :     3.060909
      pz      :     1.111668  p :     3.329421
      px      :     1.111495
      py      :     1.106257
      dz2     :     0.006857  d :     0.088508
      dxz     :     0.027953
      dyz     :     0.025049
      dx2y2   :     0.010565
      dxy     :     0.018083

 10 S s       :     5.651629  s :     5.651629
      pz      :     3.395366  p :    10.134040
      px      :     3.377954
      py      :     3.360720
      dz2     :     0.010326  d :     0.097823
      dxz     :     0.028393
      dyz     :     0.026400
      dx2y2   :     0.013697
      dxy     :     0.019008

 11 P s       :     5.058894  s :     5.058894
      pz      :     2.851838  p :     8.564937
      px      :     2.860793
      py      :     2.852306
      dz2     :     0.116592  d :     0.817045
      dxz     :     0.219680
      dyz     :     0.156302
      dx2y2   :     0.145970
      dxy     :     0.178502

 12 S s       :     5.766656  s :     5.766656
      pz      :     3.619705  p :    10.492587
      px      :     3.470105
      py      :     3.402777
      dz2     :     0.007409  d :     0.057622
      dxz     :     0.008152
      dyz     :     0.010790
      dx2y2   :     0.009143
      dxy     :     0.022127

 13 O s       :     3.502049  s :     3.502049
      pz      :     1.331806  p :     4.714502
      px      :     1.646765
      py      :     1.735930
      dz2     :     0.005513  d :     0.023898
      dxz     :     0.009982
      dyz     :     0.003740
      dx2y2   :     0.002537
      dxy     :     0.002125

 14 C s       :     2.927688  s :     2.927688
      pz      :     0.835269  p :     3.051432
      px      :     1.114189
      py      :     1.101974
      dz2     :     0.036021  d :     0.133078
      dxz     :     0.032037
      dyz     :     0.025068
      dx2y2   :     0.016059
      dxy     :     0.023894

 15 C s       :     2.953014  s :     2.953014
      pz      :     1.126857  p :     3.341751
      px      :     1.140237
      py      :     1.074657
      dz2     :     0.017369  d :     0.068861
      dxz     :     0.012808
      dyz     :     0.006337
      dx2y2   :     0.013809
      dxy     :     0.018538

 16 O s       :     3.503267  s :     3.503267
      pz      :     1.686608  p :     4.722764
      px      :     1.463593
      py      :     1.572563
      dz2     :     0.002527  d :     0.023931
      dxz     :     0.005666
      dyz     :     0.004557
      dx2y2   :     0.006134
      dxy     :     0.005046

 17 C s       :     2.928496  s :     2.928496
      pz      :     1.075567  p :     3.059883
      px      :     0.886446
      py      :     1.097870
      dz2     :     0.024836  d :     0.135575
      dxz     :     0.028089
      dyz     :     0.027008
      dx2y2   :     0.020986
      dxy     :     0.034655

 18 C s       :     2.953383  s :     2.953383
      pz      :     1.090477  p :     3.343776
      px      :     1.131133
      py      :     1.122166
      dz2     :     0.016157  d :     0.069155
      dxz     :     0.008902
      dyz     :     0.018597
      dx2y2   :     0.006873
      dxy     :     0.018626

 19 H s       :     0.872039  s :     0.872039

 20 H s       :     0.871059  s :     0.871059

 21 H s       :     0.869342  s :     0.869342

 22 H s       :     0.896336  s :     0.896336

 23 H s       :     0.876941  s :     0.876941

 24 H s       :     0.898158  s :     0.898158

 25 H s       :     0.885127  s :     0.885127

 26 H s       :     0.875888  s :     0.875888

 27 H s       :     0.880254  s :     0.880254

 28 H s       :     0.869442  s :     0.869442

 29 H s       :     0.869088  s :     0.869088

 30 H s       :     0.866124  s :     0.866124

 31 H s       :     0.888847  s :     0.888847

 32 H s       :     0.882660  s :     0.882660

 33 H s       :     0.875425  s :     0.875425

 34 H s       :     0.870929  s :     0.870929

 35 H s       :     0.873075  s :     0.873075

 36 H s       :     0.882719  s :     0.882719

 37 H s       :     0.889793  s :     0.889793

 38 H s       :     0.867471  s :     0.867471

 39 H s       :     0.876003  s :     0.876003

 40 H s       :     0.876678  s :     0.876678


---------------------------------
LOEWDIN BOND ORDERS (THRESH 0.050000)
---------------------------------
B(  0-C ,  1-C ) :   1.1574 B(  0-C ,  2-O ) :   0.0590 B(  0-C , 19-H ) :   0.9325 
B(  0-C , 20-H ) :   0.9270 B(  0-C , 21-H ) :   0.9350 B(  1-C ,  2-O ) :   1.0742 
B(  1-C ,  3-P ) :   0.0645 B(  1-C , 22-H ) :   0.9115 B(  1-C , 23-H ) :   0.9185 
B(  2-O ,  3-P ) :   1.3103 B(  2-O ,  4-S ) :   0.0729 B(  2-O ,  5-O ) :   0.0538 
B(  2-O ,  8-S ) :   0.0612 B(  3-P ,  4-S ) :   1.7712 B(  3-P ,  5-O ) :   1.2605 
B(  3-P ,  6-C ) :   0.0604 B(  3-P ,  8-S ) :   1.0214 B(  4-S ,  5-O ) :   0.0885 
B(  4-S ,  8-S ) :   0.1315 B(  5-O ,  6-C ) :   1.0935 B(  5-O ,  7-C ) :   0.0578 
B(  5-O ,  8-S ) :   0.0691 B(  6-C ,  7-C ) :   1.1556 B(  6-C , 24-H ) :   0.9014 
B(  6-C , 25-H ) :   0.9168 B(  7-C , 26-H ) :   0.9360 B(  7-C , 27-H ) :   0.9245 
B(  7-C , 28-H ) :   0.9252 B(  8-S ,  9-C ) :   1.1736 B(  8-S , 10-S ) :   0.1029 
B(  9-C , 10-S ) :   1.1532 B(  9-C , 29-H ) :   0.9178 B(  9-C , 30-H ) :   0.9094 
B( 10-S , 11-P ) :   1.0798 B( 10-S , 12-S ) :   0.1070 B( 10-S , 13-O ) :   0.0524 
B( 10-S , 16-O ) :   0.0666 B( 11-P , 12-S ) :   1.7713 B( 11-P , 13-O ) :   1.2788 
B( 11-P , 14-C ) :   0.0614 B( 11-P , 16-O ) :   1.2316 B( 11-P , 17-C ) :   0.0645 
B( 12-S , 13-O ) :   0.0894 B( 12-S , 16-O ) :   0.0947 B( 13-O , 14-C ) :   1.0768 
B( 13-O , 15-C ) :   0.0579 B( 13-O , 16-O ) :   0.0510 B( 14-C , 15-C ) :   1.1589 
B( 14-C , 31-H ) :   0.9146 B( 14-C , 32-H ) :   0.9170 B( 15-C , 33-H ) :   0.9265 
B( 15-C , 34-H ) :   0.9264 B( 15-C , 35-H ) :   0.9365 B( 16-O , 17-C ) :   1.0951 
B( 16-O , 18-C ) :   0.0592 B( 17-C , 18-C ) :   1.1566 B( 17-C , 36-H ) :   0.9168 
B( 17-C , 37-H ) :   0.9043 B( 18-C , 38-H ) :   0.9255 B( 18-C , 39-H ) :   0.9268 
B( 18-C , 40-H ) :   0.9369 

------------------------------------------
LOEWDIN REDUCED ORBITAL POPULATIONS PER MO
-------------------------------------------
THRESHOLD FOR PRINTING IS 0.1%%
                      0         1         2         3         4         5   
                 -88.04700 -88.04280 -87.99074 -87.98633 -76.43053 -76.42714
                   2.00000   2.00000   2.00000   2.00000   2.00000   2.00000
                  --------  --------  --------  --------  --------  --------
 3 P  s               0.0       0.0       0.0       0.0       0.0     100.0
 4 S  s               0.0       0.0       0.0     100.0       0.0       0.0
 8 S  s               0.0     100.0       0.0       0.0       0.0       0.0
10 S  s             100.0       0.0       0.0       0.0       0.0       0.0
11 P  s               0.0       0.0       0.0       0.0     100.0       0.0
12 S  s               0.0       0.0     100.0       0.0       0.0       0.0

                      6         7         8         9        10        11   
                 -18.80054 -18.79681 -18.79274 -18.79078  -9.96134  -9.95992
                   2.00000   2.00000   2.00000   2.00000   2.00000   2.00000
                  --------  --------  --------  --------  --------  --------
 1 C  s               0.0       0.0       0.0       0.0      99.7       0.0
 2 O  s               0.0       0.0      99.9       0.0       0.0       0.0
 5 O  s               0.0       0.0       0.0      99.9       0.0       0.0
13 O  s               0.0      99.9       0.0       0.0       0.0       0.0
14 C  s               0.0       0.0       0.0       0.0       0.0      99.6
15 C  py              0.0       0.0       0.0       0.0       0.0       0.1
16 O  s              99.9       0.0       0.0       0.0       0.0       0.0

                     12        13        14        15        16        17   
                  -9.95922  -9.95660  -9.94631  -9.88885  -9.88816  -9.88650
                   2.00000   2.00000   2.00000   2.00000   2.00000   2.00000
                  --------  --------  --------  --------  --------  --------
 0 C  s               0.0       0.0       0.0      99.7       0.0       0.0
 6 C  s               0.0       0.0      99.7       0.0       0.0       0.0
 7 C  pz              0.0       0.0       0.1       0.0       0.0       0.0
 9 C  s              99.8       0.0       0.0       0.0       0.0       0.0
14 C  py              0.0       0.0       0.0       0.0       0.0       0.1
15 C  s               0.0       0.0       0.0       0.0       0.0      99.7
17 C  s               0.0      99.6       0.0       0.0       0.0       0.0
18 C  s               0.0       0.0       0.0       0.0      99.7       0.0

                     18        19        20        21        22        23   
                  -9.87126  -7.69151  -7.68773  -7.63583  -7.63155  -6.42804
                   2.00000   2.00000   2.00000   2.00000   2.00000   2.00000
                  --------  --------  --------  --------  --------  --------
 4 S  s               0.0       0.0       0.0       0.0      99.9       0.0
 6 C  pz              0.1       0.0       0.0       0.0       0.0       0.0
 7 C  s              99.7       0.0       0.0       0.0       0.0       0.0
 8 S  s               0.0       0.0      99.7       0.0       0.0       0.0
10 S  s               0.0      99.7       0.0       0.0       0.0       0.0
11 P  s               0.0       0.0       0.0       0.0       0.0      99.3
12 S  s               0.0       0.0       0.0      99.9       0.0       0.0
13 O  pz              0.0       0.0       0.0       0.0       0.0       0.1
16 O  py              0.0       0.0       0.0       0.0       0.0       0.1

                     24        25        26        27        28        29   
                  -6.42443  -5.71978  -5.71576  -5.71565  -5.71225  -5.70844
                   2.00000   2.00000   2.00000   2.00000   2.00000   2.00000
                  --------  --------  --------  --------  --------  --------
 2 O  px              0.2       0.0       0.0       0.0       0.0       0.0
 3 P  s              99.3       0.0       0.0       0.0       0.0       0.0
 5 O  py              0.2       0.0       0.0       0.0       0.0       0.0
 8 S  pz              0.0       0.0       0.0       0.1      99.8       0.0
 8 S  px              0.0       0.0       0.0      83.3       0.2       0.0
 8 S  py              0.0       0.0       0.0      16.6       0.0       0.0
10 S  pz              0.0       1.0      87.4       0.0       0.0      11.6
10 S  px              0.0      52.4       2.8       0.0       0.0      44.7
10 S  py              0.0      46.6       9.8       0.0       0.0      43.7

                     30        31        32        33        34        35   
                  -5.70469  -5.66476  -5.66065  -5.65646  -5.65599  -5.65214
                   2.00000   2.00000   2.00000   2.00000   2.00000   2.00000
                  --------  --------  --------  --------  --------  --------
 4 S  pz              0.0       0.0      89.1       0.0       0.0       0.2
 4 S  px              0.0       0.0       0.0       0.0       0.0      97.2
 4 S  py              0.0       0.0      10.9       0.0       0.0       2.6
 8 S  pz              0.1       0.0       0.0       0.0       0.0       0.0
 8 S  px             16.5       0.0       0.0       0.0       0.0       0.0
 8 S  py             83.3       0.0       0.0       0.0       0.0       0.0
12 S  pz              0.0       9.0       0.0      89.9       1.1       0.0
12 S  px              0.0      39.2       0.0       7.8      53.0       0.0
12 S  py              0.0      51.8       0.0       2.3      45.9       0.0

                     36        37        38        39        40        41   
                  -5.65152  -4.65080  -4.64991  -4.64824  -4.64715  -4.64635
                   2.00000   2.00000   2.00000   2.00000   2.00000   2.00000
                  --------  --------  --------  --------  --------  --------
 3 P  pz              0.0       0.0       0.0       0.0       2.0       1.2
 3 P  px              0.0       0.0       0.0       0.0      58.9      40.9
 3 P  py              0.0       0.0       0.0       0.0      39.0      57.9
 4 S  pz             10.7       0.0       0.0       0.0       0.0       0.0
 4 S  px              2.8       0.0       0.0       0.0       0.0       0.0
 4 S  py             86.5       0.0       0.0       0.0       0.0       0.0
11 P  pz              0.0       1.2      97.7       1.1       0.0       0.0
11 P  px              0.0      52.3       0.0      47.6       0.0       0.0
11 P  py              0.0      46.4       2.2      51.3       0.0       0.0

                     42        43        44        45        46        47   
                  -4.64467  -0.99360  -0.98760  -0.95082  -0.94356  -0.76521
                   2.00000   2.00000   2.00000   2.00000   2.00000   2.00000
                  --------  --------  --------  --------  --------  --------
 0 C  s               0.0       0.0       0.3       0.0       0.2       0.1
 0 C  px              0.0       0.0       0.2       0.0       0.1       0.0
 0 C  py              0.0       0.0       0.2       0.0       0.2       0.0
 1 C  s               0.0       0.0       4.0       0.0       3.7       0.3
 1 C  pz              0.0       0.0       3.8       0.0       2.8       0.0
 1 C  px              0.0       0.0       0.5       0.0       0.3       0.0
 1 C  py              0.0       0.0       0.0       0.0       0.1       0.0
 1 C  dz2             0.0       0.0       0.2       0.0       0.2       0.0
 2 O  s               0.0       0.0      32.8       0.0      25.9       0.2
 2 O  pz              0.0       0.0       0.1       0.0       0.5       0.2
 2 O  px              0.0       0.0       1.2       0.0       0.2       0.2
 2 O  py              0.0       0.0       0.7       0.0       0.1       0.0
 3 P  s               0.0       0.0      14.0       0.0       0.0       2.2
 3 P  pz             96.8       0.0       1.4       0.0       0.3       0.1
 3 P  px              0.2       0.0       2.8       0.0       2.4       1.5
 3 P  py              3.0       0.0       0.9       0.0       7.7       0.4
 3 P  dz2             0.0       0.0       0.3       0.0       0.1       0.0
 3 P  dxz             0.0       0.0       0.5       0.0       0.4       0.1
 3 P  dyz             0.0       0.0       0.0       0.0       0.3       0.0
 3 P  dx2y2           0.0       0.0       0.0       0.0       2.2       0.0
 3 P  dxy             0.0       0.0       0.1       0.0       0.3       0.0
 4 S  s               0.0       0.0       0.3       0.0       0.0       0.6
 4 S  pz              0.0       0.0       0.3       0.0       0.0       0.2
 5 O  s               0.0       0.0      24.2       0.0      35.5       0.2
 5 O  pz              0.0       0.0       0.1       0.0       0.1       0.0
 5 O  px              0.0       0.0       0.4       0.0       1.3       0.0
 5 O  py              0.0       0.0       0.8       0.0       0.0       0.3
 6 C  s               0.0       0.0       2.6       0.0       5.5       0.2
 6 C  px              0.0       0.0       1.4       0.0       2.4       0.1
 6 C  py              0.0       0.0       1.6       0.0       2.4       0.0
 6 C  dz2             0.0       0.0       0.1       0.0       0.1       0.0
 6 C  dxy             0.0       0.0       0.2       0.0       0.3       0.0
 7 C  s               0.0       0.0       0.2       0.0       0.4       0.0
 7 C  pz              0.0       0.0       0.2       0.0       0.5       0.0
 8 S  s               0.0       0.0       0.3       0.0       0.0      17.1
 8 S  pz              0.0       0.0       0.1       0.0       0.0       2.1
 8 S  px              0.0       0.0       0.2       0.0       0.0       0.6
 8 S  py              0.0       0.0       0.0       0.0       0.0       0.1
 9 C  s               0.0       0.0       0.0       0.0       0.0      26.3
 9 C  py              0.0       0.0       0.0       0.0       0.0       2.3
10 S  s               0.0       0.3       0.0       0.0       0.0      19.4
10 S  pz              0.0       0.2       0.0       0.0       0.0       1.9
10 S  px              0.0       0.1       0.0       0.0       0.0       0.1
10 S  py              0.0       0.0       0.0       0.0       0.0       0.8
10 S  dxy             0.0       0.0       0.0       0.0       0.0       0.1
11 P  s               0.0      13.8       0.0       0.0       0.0       2.7
11 P  pz              0.0       3.9       0.0       0.8       0.0       1.2
11 P  px              0.0       0.1       0.0       5.2       0.0       1.0
11 P  py              0.0       1.1       0.0       4.4       0.0       0.2
11 P  dz2             0.0       0.0       0.0       0.6       0.0       0.0
11 P  dxz             0.0       0.2       0.0       1.4       0.0       0.1
11 P  dyz             0.0       0.0       0.0       0.7       0.0       0.0
11 P  dx2y2           0.0       0.0       0.0       0.4       0.0       0.0
11 P  dxy             0.0       0.7       0.0       0.2       0.0       0.1
12 S  s               0.0       0.3       0.0       0.0       0.0       0.3
[...]
 0 C  dyz             0.1       0.0       0.0       0.0
 0 C  dxy             0.1       0.0       0.0       0.0
 1 C  s               1.5       0.0       0.0       0.4
 1 C  pz              2.4       0.0       0.0       0.5
 1 C  px              0.3       0.0       0.0       0.1
 1 C  py              0.2       0.0       0.0       0.0
 1 C  dz2             7.9       0.0       0.0       1.4
 1 C  dxz             1.9       0.0       0.0       0.7
 1 C  dyz             1.0       0.0       0.0       0.0
 2 O  s               3.3       0.0       0.0       0.1
 2 O  pz              2.4       0.0       0.0       1.3
 2 O  px              0.5       0.0       0.0       1.1
 2 O  dz2            39.4       0.0       0.2      12.4
 2 O  dxz            11.8       0.0       0.0       0.4
 2 O  dyz             5.2       0.0       0.1       3.9
 2 O  dx2y2           0.0       0.0       0.0       1.4
 2 O  dxy             0.2       0.0       0.1       6.0
 3 P  s               0.5       0.0       0.0       0.1
 3 P  pz              0.1       0.0       0.0       0.2
 3 P  px              0.0       0.0       0.0       0.8
 3 P  py              0.4       0.0       0.0       0.8
 3 P  dxz             0.1       0.0       0.0       0.5
 3 P  dx2y2           0.2       0.0       0.0       0.8
 5 O  s               0.0       0.0       0.0       1.2
 5 O  px              0.4       0.0       0.0       0.9
 5 O  py              1.4       0.0       0.0       3.1
 5 O  dz2             0.3       0.0       0.0       3.8
 5 O  dxz             0.5       0.0       0.0       1.3
 5 O  dyz             1.2       0.0       0.1       3.4
 5 O  dx2y2           5.2       0.0       0.1       5.0
 5 O  dxy             7.5       0.0       0.4      34.7
 6 C  s               0.4       0.0       0.0       1.4
 6 C  px              0.3       0.0       0.0       1.2
 6 C  py              0.3       0.0       0.0       1.2
 6 C  dz2             0.5       0.0       0.0       1.8
 6 C  dxz             0.0       0.0       0.0       0.1
 6 C  dyz             0.0       0.0       0.0       0.2
 6 C  dxy             1.4       0.0       0.1       5.5
11 P  s               0.0       0.7       0.0       0.0
11 P  pz              0.0       0.4       0.3       0.0
11 P  px              0.0       0.1       0.9       0.0
11 P  py              0.0       0.3       0.8       0.0
11 P  dz2             0.0       0.1       0.7       0.0
11 P  dxz             0.0       0.0       0.6       0.0
11 P  dx2y2           0.0       0.3       0.0       0.0
11 P  dxy             0.0       0.2       0.3       0.0
13 O  s               0.0       2.9       0.1       0.0
13 O  pz              0.0       3.2       1.9       0.0
13 O  px              0.0       0.1       0.2       0.0
13 O  py              0.0       0.2       0.3       0.0
13 O  dz2             0.0      35.2       2.3       0.0
13 O  dxz             0.0      14.8      15.7       0.2
13 O  dyz             0.0       5.6       0.1       0.0
13 O  dx2y2           0.0       0.1       0.6       0.0
13 O  dxy             0.0       0.8       2.5       0.0
14 C  s               0.0       1.7       0.3       0.0
14 C  pz              0.0       2.5       0.5       0.0
14 C  px              0.0       0.3       0.0       0.0
14 C  py              0.0       0.2       0.0       0.0
14 C  dz2             0.0       7.2       1.5       0.0
14 C  dxz             0.0       2.3       0.2       0.0
14 C  dyz             0.0       1.0       0.2       0.0
15 C  dyz             0.0       0.2       0.0       0.0
16 O  s               0.0       0.0       0.9       0.0
16 O  px              0.0       1.2       2.8       0.0
16 O  py              0.0       0.7       1.6       0.0
16 O  dz2             0.0       0.0       1.3       0.0
16 O  dxz             0.0       6.3      19.9       0.3
16 O  dyz             0.0       2.6       8.9       0.2
16 O  dx2y2           0.0       5.1      18.7       0.3
16 O  dxy             0.0       0.3       2.4       0.0
17 C  s               0.0       0.3       1.4       0.0
17 C  pz              0.0       0.1       0.4       0.0
17 C  px              0.0       0.3       1.7       0.0
17 C  py              0.0       0.1       0.3       0.0
17 C  dz2             0.0       0.3       1.0       0.0
17 C  dxz             0.0       0.2       2.0       0.0
17 C  dyz             0.0       0.1       0.3       0.0
17 C  dx2y2           0.0       0.3       2.4       0.0
17 C  dxy             0.0       0.7       2.0       0.0


                      *****************************
                      * MAYER POPULATION ANALYSIS *
                      *****************************

  NA   - Mulliken gross atomic population
  ZA   - Total nuclear charge
  QA   - Mulliken gross atomic charge
  VA   - Mayer's total valence
  BVA  - Mayer's bonded valence
  FA   - Mayer's free valence

  ATOM       NA         ZA         QA         VA         BVA        FA
  0 C      6.2884     6.0000    -0.2884     3.9887     3.9887    -0.0000
  1 C      6.0170     6.0000    -0.0170     4.0275     4.0275    -0.0000
  2 O      8.3553     8.0000    -0.3553     2.1652     2.1652     0.0000
  3 P     14.3947    15.0000     0.6053     4.9642     4.9642     0.0000
  4 S     16.3044    16.0000    -0.3044     2.0467     2.0467    -0.0000
  5 O      8.3787     8.0000    -0.3787     2.1716     2.1716     0.0000
  6 C      6.0349     6.0000    -0.0349     3.9917     3.9917     0.0000
  7 C      6.3035     6.0000    -0.3035     3.9838     3.9838     0.0000
  8 S     16.1165    16.0000    -0.1165     2.2904     2.2904     0.0000
  9 C      6.3398     6.0000    -0.3398     3.8391     3.8391    -0.0000
 10 S     16.0571    16.0000    -0.0571     2.2754     2.2754     0.0000
 11 P     14.3905    15.0000     0.6095     4.9420     4.9420    -0.0000
 12 S     16.3170    16.0000    -0.3170     2.0467     2.0467    -0.0000
 13 O      8.3666     8.0000    -0.3666     2.1793     2.1793    -0.0000
 14 C      6.0066     6.0000    -0.0066     4.0154     4.0154    -0.0000
 15 C      6.2998     6.0000    -0.2998     3.9927     3.9927     0.0000
 16 O      8.3886     8.0000    -0.3886     2.1674     2.1674     0.0000
 17 C      6.0084     6.0000    -0.0084     3.9887     3.9887     0.0000
 18 C      6.3142     6.0000    -0.3142     3.9961     3.9961    -0.0000
 19 H      0.8750     1.0000     0.1250     0.9808     0.9808     0.0000
 20 H      0.8911     1.0000     0.1089     0.9540     0.9540     0.0000
 21 H      0.8774     1.0000     0.1226     0.9579     0.9579     0.0000
 22 H      0.8945     1.0000     0.1055     0.9566     0.9566    -0.0000
 23 H      0.8862     1.0000     0.1138     0.9475     0.9475    -0.0000
 24 H      0.8733     1.0000     0.1267     0.9969     0.9969     0.0000
 25 H      0.9022     1.0000     0.0978     0.9459     0.9459     0.0000
 26 H      0.8897     1.0000     0.1103     0.9592     0.9592    -0.0000
 27 H      0.8598     1.0000     0.1402     0.9862     0.9862     0.0000
 28 H      0.8900     1.0000     0.1100     0.9569     0.9569     0.0000
 29 H      0.8190     1.0000     0.1810     0.9605     0.9605    -0.0000
 30 H      0.8039     1.0000     0.1961     0.9682     0.9682    -0.0000
 31 H      0.8955     1.0000     0.1045     0.9684     0.9684    -0.0000
 32 H      0.8944     1.0000     0.1056     0.9531     0.9531    -0.0000
 33 H      0.8698     1.0000     0.1302     0.9905     0.9905     0.0000
 34 H      0.8912     1.0000     0.1088     0.9541     0.9541     0.0000
 35 H      0.8843     1.0000     0.1157     0.9596     0.9596    -0.0000
 36 H      0.8961     1.0000     0.1039     0.9493     0.9493    -0.0000
 37 H      0.8857     1.0000     0.1143     0.9887     0.9887     0.0000
 38 H      0.8845     1.0000     0.1155     0.9549     0.9549     0.0000
 39 H      0.8688     1.0000     0.1312     0.9814     0.9814     0.0000
 40 H      0.8855     1.0000     0.1145     0.9597     0.9597     0.0000

  Mayer bond orders larger than 0.100000
B(  0-C ,  1-C ) :   1.1654 B(  0-C , 19-H ) :   0.9414 B(  0-C , 20-H ) :   0.9394 
B(  0-C , 21-H ) :   0.9465 B(  1-C ,  2-O ) :   0.8941 B(  1-C , 22-H ) :   0.9160 
B(  1-C , 23-H ) :   0.9358 B(  2-O ,  3-P ) :   1.1436 B(  3-P ,  4-S ) :   1.6523 
B(  3-P ,  5-O ) :   1.0790 B(  3-P ,  8-S ) :   0.9453 B(  4-S ,  8-S ) :   0.1131 
B(  5-O ,  6-C ) :   0.9093 B(  6-C ,  7-C ) :   1.1661 B(  6-C , 24-H ) :   0.9008 
B(  6-C , 25-H ) :   0.9339 B(  7-C , 26-H ) :   0.9458 B(  7-C , 27-H ) :   0.9309 
B(  7-C , 28-H ) :   0.9380 B(  8-S ,  9-C ) :   1.0124 B(  9-C , 10-S ) :   0.9792 
B(  9-C , 29-H ) :   0.8901 B(  9-C , 30-H ) :   0.8806 B( 10-S , 11-P ) :   0.9799 
B( 11-P , 12-S ) :   1.6591 B( 11-P , 13-O ) :   1.0966 B( 11-P , 16-O ) :   1.0494 
B( 13-O , 14-C ) :   0.8980 B( 14-C , 15-C ) :   1.1685 B( 14-C , 31-H ) :   0.9219 
B( 14-C , 32-H ) :   0.9333 B( 15-C , 33-H ) :   0.9333 B( 15-C , 34-H ) :   0.9389 
B( 15-C , 35-H ) :   0.9486 B( 16-O , 17-C ) :   0.9063 B( 17-C , 18-C ) :   1.1629 
B( 17-C , 36-H ) :   0.9329 B( 17-C , 37-H ) :   0.9105 B( 18-C , 38-H ) :   0.9389 
B( 18-C , 39-H ) :   0.9347 B( 18-C , 40-H ) :   0.9472 

-------
TIMINGS
-------

Total SCF time: 0 days 0 hours 0 min 16 sec 

Total time                  ....      16.546 sec
Sum of individual times     ....      16.056 sec  ( 97.0%)

SCF preparation             ....       0.215 sec  (  1.3%)
Fock matrix formation       ....      14.725 sec  ( 89.0%)
  Startup                   ....       0.063 sec  (  0.4% of F)
  Split-RI-J                ....       8.736 sec  ( 59.3% of F)
  XC integration            ....       5.361 sec  ( 36.4% of F)
    XC Preparation          ....       0.000 sec  (  0.0% of XC)
    Basis function eval.    ....       2.052 sec  ( 38.3% of XC)
    Density eval.           ....       1.035 sec  ( 19.3% of XC)
    XC-Functional eval.     ....       0.402 sec  (  7.5% of XC)
    XC-Potential eval.      ....       1.185 sec  ( 22.1% of XC)
Diagonalization             ....       0.000 sec  (  0.0%)
Density matrix formation    ....       0.219 sec  (  1.3%)
Total Energy calculation    ....       0.035 sec  (  0.2%)
Population analysis         ....       0.194 sec  (  1.2%)
Orbital Transformation      ....       0.078 sec  (  0.5%)
Orbital Orthonormalization  ....       0.000 sec  (  0.0%)
DIIS solution               ....       0.455 sec  (  2.7%)
  MO trafo                  ....       0.000 sec  (  0.0 % of DIIS)
  Orb grad                  ....       0.000 sec  (  0.0 % of DIIS)
  Energy W gradient         ....       0.000 sec  (  0.0 % of DIIS)
  DIIS error                ....       0.021 sec  (  4.6 % of DIIS)
  DIIS work                 ....       0.378 sec  ( 83.1 % of DIIS)
  Form Q                    ....       0.000 sec  (  0.0 % of DIIS)
  Form QpQm                 ....       0.000 sec  (  0.0 % of DIIS)
  Exp/Cayley                ....       0.000 sec  (  0.0 % of DIIS)
  Orb update                ....       0.000 sec  (  0.0 % of DIIS)
  Wake-sleep                ....       0.016 sec  (  3.5 % of DIIS)
SOSCF solution              ....       0.135 sec  (  0.8%)
  MO trafo                  ....       0.067 sec  ( 49.5 % of SOSCF)
  Orb grad                  ....       0.002 sec  (  1.1 % of SOSCF)
  Rot update                ....       0.029 sec  ( 21.7 % of SOSCF)
  Step                      ....       0.037 sec  ( 27.5 % of SOSCF)
Finished LeanSCF after  16.6 sec

Maximum memory used throughout the entire LEANSCF-calculation: 34.5 MB


-------------------------------------------------------------------------------
                          DFT DISPERSION CORRECTION                            
                                                                               
                                DFTD4 V3.4.0                                   
-------------------------------------------------------------------------------
The PBE functional is recognized
Active option DFTDOPT                   ...         5   

-------------------------   ----------------
Dispersion correction           -0.064864156
-------------------------   ----------------

------------------   -----------------
gCP correction             0.185766226
------------------   -----------------

-------------------------   --------------------
FINAL SINGLE POINT ENERGY     -2929.521027182077
-------------------------   --------------------


------------------------------------------------------------------------------
                              ORCA PROPERTY CALCULATIONS
------------------------------------------------------------------------------

GBWName                                 ... sp.gbw
Number of atoms                         ...     41
Number of basis functions               ...    334
Max core memory                         ...   1024 MB

Electric properties:
Dipole moment                           ... YES
Quadrupole moment                       ...  NO
Static polarizability (Dipole/Dipole)   ...  NO
Static polarizability (Dipole/Quad.)    ...  NO
Static polarizability (Quad./Quad.)     ...  NO
Static polarizability (Velocity)        ...  NO

Atomic electric properties:
Dipole moment                           ...  NO
Quadrupole moment                       ...  NO
Static polarizability                   ...  NO

Choice of electric origin               ... Center of mass
Position of electric origin             ...    -0.000005     0.000004     0.000002

General magnetic properties:
Magnetizability                         ...  NO

EPR properties:
g-Tensor (aka g-matrix)                 ...  NO
Zero-Field splitting spin-orbit         ...  NO
Zero-field splitting spin-spin          ...  NO
Hyperfine couplings                     ...  NO (   0 nuclei)
Quadrupole couplings                    ...  NO (   0 nuclei)
Contact density                         ...  NO (   0 nuclei)

NMR properties:
Chemical shifts                         ...  NO (   0 nuclei)
Spin-rotation constants                 ...  NO (   0 nuclei)
Spin-spin couplings                     ...  NO (   0 nuclei,    0 pairs)

Choice of magnetic origin               ... GIAO
Position of magnetic origin             ...     0.000000     0.000000     0.000000

Properties with geometric perturbations:
SCF Hessian                             ...  NO
IR spectrum                             ...  NO
VCD spectrum                            ...  NO
X-ray spectroscopy properties:
SCF XES/XAS/RIXS spectra                ...  NO


-------------
DIPOLE MOMENT
-------------

Method             : SCF
Type of density    : Electron Density
Multiplicity       :   1
Irrep              :   0
Energy             : -2929.6419292526143181 Eh
Relativity type    : 
Basis              : AO
                                X                 Y                 Z
Electronic contribution:      1.679360272      -7.336303539     -10.889231145
Nuclear contribution   :     -1.932600866       7.086109790      12.958275857
                        -----------------------------------------
Total Dipole Moment    :     -0.253240594      -0.250193749       2.069044712
                        -----------------------------------------
Magnitude (a.u.)       :      2.099446054
Magnitude (Debye)      :      5.336367780



--------------------
Rotational spectrum 
--------------------
 
Rotational constants in cm-1:             0.012607             0.004766             0.004434 
Rotational constants in MHz :           377.962966           142.880872           132.917376 

Dipole components along the rotational axes: 
x,y,z [a.u.] :    -0.290900     1.370083     1.563945 
x,y,z [Debye]:    -0.739408     3.482473     3.975233 

 

Dipole moment calculation done in   0.0 sec 

Maximum memory used throughout the entire PROP-calculation: 23.8 MB

--------------------------------
SUGGESTED CITATIONS FOR THIS RUN
--------------------------------

Below you find a list of papers that are relevant to this ORCA run
We neither can nor want to force you to cite these papers, but we appreciate if you do
You receive ORCA, which is the product of decades of hard work by many enthusiastic individuals, for free
The only thing we kindly ask in return is that you cite our papers,
We deeply appreciate it, if you show your appreciation for ORCA by not just citing the generic ORCA reference.

Please note that relegating all ORCA citations to the supporting information does *not* help us.
SI sections are not indexed - citations you put there will not count into any citation statistics
But we need these citations in order to attract the funding resources that allow us to do what we are doing

Therefore, if you are a happy ORCA user, please consider citing a few of the papers listed below in the main body of your paper

In addition to the list printed below, the program has created the file sp.bibtex that contains the list in bibtex format
You can import this file easily into all common literature databanks and citation aid programs


List of essential papers. We consider these as the minimum necessary citations

  1. Neese,F.
     Software update: the ORCA program system, version 5.0
     WIRES Comput. Molec. Sci., 2022 12(1)e1606
     doi.org/10.1002/wcms.1606

List of papers to cite with high priority. The work reported in these papers was absolutely
necessary for this run to complete.
Our perspective: the developers of density functionals and basis sets usually get cited in chemistry papers
Good! But without the algorithms to do something with them, the functionals or basis sets would not do anything.
Hence, in our opinion, the algorithm design and method developments papers are equally worthy of getting cited

  1. Neese,F.
     An improvement of the resolution of the identity approximation for the formation of the Coulomb matrix
     J. Comp. Chem., 2003 24(14)1740-1747
     doi.org/10.1002/jcc.10318
  2. Neese,F.
     The SHARK Integral Generation and Digestion System
     J. Comp. Chem., 2022  1-16
     doi.org/10.1002/jcc.26942
  3. Caldeweyher,E.; Bannwarth,C.; Grimme,S.
     Extension of the D3 dispersion coefficient model
     J. Chem. Phys., 2017 147 034112-XXXX
     doi.org/10.1063/1.4993215
  4. Caldeweyher,E.; Ehlert,S.; Hansen,A.; Neugebauer,H.; Spicher,S.; Bannwarth,C.; Grimme,S.
     A generally applicable atomic-charge dependent London dispersion correction
     J. Chem. Phys., 2019 150 154122-XXXX
     doi.org/10.1063/1.5090222
  5. Caldeweyher,E.; Mewes,J.; Ehlert,S.; Grimme,S.
     Extension and evaluation of the D4 London-dispersion model for periodic systems
     Phys. Chem. Chem. Phys., 2020 22(16)8499-8512
     doi.org/10.1039/D0CP00502A

List of suggested additional citations. These are papers that are important in the 'surrounding' of 
of this run, or papers that preceded the highly important papers. If you like your results we are grateful for a citation.

  1. Neese,F.
     The ORCA program system
     WIRES Comput. Molec. Sci., 2012 2(1)73-78
     doi.org/10.1002/wcms.81
  2. Neese,F.
     Software update: the ORCA program system, version 4.0
     WIRES Comput. Molec. Sci., 2018 8(1)1-6
     doi.org/10.1002/wcms.1327
  3. Neese,F.; Wennmohs,F.; Becker,U.; Riplinger,C.
     The ORCA quantum chemistry program package
     J. Chem. Phys., 2020 152 Art. No. L224108
     doi.org/10.1063/5.0004608

List of optional additional citations

  1. Neese,F.
     Approximate second-order SCF convergence for spin unrestricted wavefunctions
     Chem. Phys. Lett., 2000 325(1-3)93-98
     doi.org/10.1016/s0009-2614(00)00662-x

Timings for individual modules:

Sum of individual times          ...       20.235 sec (=   0.337 min)
Startup calculation              ...        1.569 sec (=   0.026 min)   7.8 %
SCF iterations                   ...       18.555 sec (=   0.309 min)  91.7 %
Property calculations            ...        0.111 sec (=   0.002 min)   0.5 %
                             ****ORCA TERMINATED NORMALLY****
TOTAL RUN TIME: 0 days 0 hours 0 minutes 20 seconds 983 msec
