 Entering Gaussian System
 *********************************************
 Gaussian 98:
 frequency output generated by the xtb code
 *********************************************
                         Standard orientation:
 --------------------------------------------------------------------
  Center     Atomic     Atomic              Coordinates (Angstroms)
  Number     Number      Type              X           Y           Z
 --------------------------------------------------------------------
    1          6             0        2.453884   -3.139661   -1.058983
    2          6             0        3.364906   -2.083208   -1.649154
    3          8             0        3.584848   -0.966487   -0.755233
    4         15             0        2.470417   -0.012012   -0.148467
    5         16             0        3.312962    1.604242    0.553925
    6          8             0        1.639119   -0.869449    0.914396
    7          6             0        2.026405   -0.972813    2.299366
    8          6             0        1.099396   -0.147609    3.168846
    9         16             0        1.033483    0.176329   -1.681869
   10          6             0        0.367568    1.782862   -1.177796
   11         16             0       -0.494154    1.742727    0.416264
   12         15             0       -1.997862    0.356501   -0.124392
   13         16             0       -2.662163    0.455630   -1.970255
   14          8             0       -3.097745    0.570724    1.001250
   15          6             0       -4.009067    1.688320    0.968383
   16          6             0       -5.104012    1.425362    1.982760
   17          8             0       -1.348246   -1.009892    0.329657
   18          6             0       -1.702023   -2.273882   -0.267383
   19          6             0       -3.071529   -2.737215    0.182332
   20          1             0        2.839906   -3.480018   -0.101226
   21          1             0        1.453970   -2.734440   -0.916784
   22          1             0        2.399773   -3.981329   -1.742381
   23          1             0        2.954569   -1.694586   -2.584673
   24          1             0        4.371759   -2.468728   -1.818281
   25          1             0        1.952503   -2.035951    2.536770
   26          1             0        3.064060   -0.642485    2.410572
   27          1             0        0.066272   -0.428535    2.979600
   28          1             0        1.338219   -0.321519    4.213163
   29          1             0        1.219199    0.910510    2.945496
   30          1             0       -0.325143    2.081418   -1.964170
   31          1             0        1.181250    2.499400   -1.067073
   32          1             0       -3.450110    2.596206    1.212116
   33          1             0       -4.412198    1.779257   -0.045848
   34          1             0       -5.651049    0.524351    1.720702
   35          1             0       -4.670216    1.299844    2.970487
   36          1             0       -5.787616    2.268012    1.994986
   37          1             0       -1.664146   -2.168730   -1.356811
   38          1             0       -0.915974   -2.951913    0.068634
   39          1             0       -3.122057   -2.764093    1.267510
   40          1             0       -3.833025   -2.052771   -0.189124
   41          1             0       -3.263351   -3.729423   -0.214322
 --------------------------------------------------------------------
     1 basis functions        1 primitive gaussians
     1 alpha electrons        1 beta electrons
 
 Harmonic frequencies (cm**-1), IR intensities (km*mol⁻¹),
 Raman scattering activities (A**4/amu), Raman depolarization ratios,
 reduced masses (AMU), force constants (mDyne/A) and normal coordinates:
                      1                      2                      3
                        a                      a                      a 
 Frequencies --    44.2681                46.1554                50.2518
 Red. masses --    22.3369                20.3734                18.3670
 Frc consts  --     0.0000                 0.0000                 0.0000
 IR Inten    --     5.1983                 2.8866                 1.6697
 Raman Activ --     0.0000                 0.0000                 0.0000
 Depolar     --     0.0000                 0.0000                 0.0000
 Atom AN      X      Y      Z        X      Y      Z        X      Y      Z
   1   6     0.19  -0.00  -0.06     0.09  -0.05   0.20    -0.19  -0.01   0.16
   2   6     0.17   0.07   0.05     0.10  -0.07   0.16    -0.14  -0.06   0.15
   3   8     0.03   0.07   0.11     0.10  -0.03   0.12    -0.12  -0.06   0.15
   4  15    -0.15  -0.06   0.06     0.11   0.01   0.03    -0.11   0.14  -0.03
   5  16    -0.45   0.02   0.22     0.07   0.12  -0.16     0.04   0.04   0.03
   6   8    -0.11  -0.16  -0.05     0.06   0.10   0.08    -0.32   0.25  -0.09
   7   6    -0.11  -0.17  -0.04     0.08   0.11   0.07    -0.23  -0.01  -0.11
   8   6    -0.05  -0.12  -0.03     0.05   0.08   0.07    -0.11  -0.03   0.03
   9  16     0.00  -0.19  -0.11     0.12  -0.19   0.00     0.19   0.30  -0.28
  10   6     0.02  -0.06  -0.22     0.01  -0.12  -0.06     0.00   0.10  -0.06
  11  16     0.11   0.17  -0.31     0.04  -0.15  -0.08     0.12  -0.10  -0.04
  12  15     0.06   0.09  -0.00    -0.12   0.03  -0.08     0.14  -0.12  -0.03
  13  16    -0.20  -0.02   0.09    -0.36   0.38   0.02     0.07  -0.06  -0.00
  14   8     0.16   0.11   0.10     0.03  -0.05   0.06     0.14  -0.12   0.02
  15   6     0.10   0.07   0.11    -0.00  -0.06   0.16     0.14  -0.09   0.08
  16   6     0.11   0.02   0.10     0.02  -0.16   0.16     0.18  -0.08   0.13
  17   8     0.09   0.09   0.00    -0.07  -0.04  -0.26     0.12  -0.10  -0.09
  18   6     0.12   0.07   0.00    -0.15   0.00  -0.25    -0.04  -0.08  -0.01
  19   6     0.14   0.02   0.01    -0.12   0.02  -0.15    -0.04   0.03   0.09
  20   1     0.04  -0.00  -0.01     0.03  -0.00   0.06    -0.06  -0.00   0.05
  21   1     0.04  -0.02  -0.04     0.03  -0.01   0.05    -0.05   0.01   0.04
  22   1     0.08   0.01  -0.03     0.03  -0.02   0.07    -0.06  -0.01   0.05
  23   1     0.06   0.02   0.01     0.03  -0.03   0.04    -0.03  -0.02   0.04
  24   1     0.06   0.04   0.03     0.03  -0.02   0.05    -0.05  -0.03   0.05
  25   1    -0.05  -0.05  -0.02     0.04   0.03   0.02    -0.09  -0.01  -0.07
  26   1    -0.02  -0.07  -0.01     0.02   0.04   0.01    -0.06  -0.03  -0.03
  27   1    -0.02  -0.02  -0.01     0.02   0.01   0.02    -0.04   0.02   0.02
  28   1    -0.02  -0.04  -0.01     0.02   0.03   0.02    -0.02  -0.05   0.00
  29   1     0.00  -0.04  -0.01     0.00   0.02   0.02    -0.01  -0.00   0.04
  30   1    -0.00  -0.04  -0.07    -0.00  -0.05  -0.02    -0.02   0.03  -0.00
  31   1     0.01  -0.02  -0.09    -0.00  -0.03  -0.03    -0.01   0.05  -0.01
  32   1     0.02   0.02   0.03    -0.00  -0.02   0.06     0.05  -0.03   0.02
  33   1     0.03   0.02   0.03    -0.01   0.00   0.05     0.03  -0.02   0.03
  34   1     0.04   0.00   0.02     0.01  -0.04   0.03     0.04  -0.02   0.04
  35   1     0.03   0.00   0.03     0.01  -0.06   0.04     0.07  -0.03   0.03
  36   1     0.03  -0.00   0.04    -0.00  -0.05   0.06     0.06  -0.02   0.05
  37   1     0.03   0.02   0.00    -0.07   0.01  -0.07    -0.03  -0.04  -0.01
  38   1     0.04   0.03  -0.00    -0.04  -0.01  -0.10    -0.02  -0.04  -0.01
  39   1     0.04   0.00   0.00    -0.01  -0.00  -0.04     0.01   0.02   0.03
  40   1     0.03   0.00   0.01    -0.04   0.01  -0.02    -0.01   0.02   0.03
  41   1     0.05   0.01  -0.00    -0.05   0.01  -0.05    -0.04   0.01   0.04
                      4                      5                      6
                        a                      a                      a 
 Frequencies --    49.5629                58.7838                59.3344
 Red. masses --    14.7864                16.9672                17.5944
 Frc consts  --     0.0000                 0.0000                 0.0000
 IR Inten    --     0.6842                 1.4392                 1.9526
 Raman Activ --     0.0000                 0.0000                 0.0000
 Depolar     --     0.0000                 0.0000                 0.0000
 Atom AN      X      Y      Z        X      Y      Z        X      Y      Z
   1   6     0.10   0.10  -0.05     0.15   0.03   0.02    -0.00  -0.06   0.19
   2   6     0.11   0.12   0.01     0.14   0.03   0.02    -0.06  -0.06   0.11
   3   8     0.09   0.12   0.03     0.11   0.08  -0.01    -0.10   0.00   0.04
   4  15     0.03   0.08   0.03     0.09   0.08  -0.11    -0.16   0.04  -0.06
   5  16    -0.14   0.14   0.11    -0.01   0.11  -0.05    -0.19   0.17  -0.31
   6   8     0.04  -0.00  -0.02     0.00   0.04  -0.13    -0.11   0.11   0.03
   7   6     0.10  -0.09  -0.04    -0.05  -0.05  -0.11     0.07  -0.04  -0.03
   8   6     0.19  -0.07   0.04    -0.15  -0.18  -0.08     0.13  -0.16   0.15
   9  16     0.07   0.01  -0.01     0.16   0.02  -0.18    -0.23  -0.09   0.01
  10   6    -0.04  -0.04   0.04    -0.00  -0.05  -0.03    -0.05  -0.02   0.03
  11  16    -0.08  -0.24   0.05     0.25  -0.22   0.07     0.09  -0.02   0.14
  12  15    -0.11  -0.15  -0.09     0.01  -0.02   0.20     0.09  -0.03   0.13
  13  16     0.04  -0.14  -0.14    -0.04   0.01   0.23     0.21   0.01   0.09
  14   8    -0.12  -0.05  -0.11     0.04   0.14   0.15     0.02   0.02   0.04
  15   6     0.12   0.15  -0.02    -0.03   0.07  -0.05     0.09   0.08  -0.01
  16   6     0.23   0.43   0.16    -0.26  -0.03  -0.32     0.01   0.13  -0.09
  17   8    -0.16  -0.14  -0.03    -0.12  -0.07   0.16    -0.02  -0.05   0.13
  18   6    -0.21  -0.11  -0.01    -0.19  -0.03   0.12     0.16   0.01  -0.11
  19   6    -0.21  -0.04   0.05    -0.24   0.07   0.07     0.09  -0.09  -0.44
  20   1     0.02   0.02  -0.01     0.04   0.02   0.01     0.01  -0.00   0.06
  21   1     0.03   0.02  -0.02     0.04   0.00  -0.01    -0.00  -0.03   0.06
  22   1     0.04   0.03  -0.02     0.06   0.00   0.01     0.00  -0.03   0.07
  23   1     0.04   0.04  -0.00     0.05  -0.00  -0.00    -0.03  -0.04   0.03
  24   1     0.04   0.04   0.01     0.04   0.01   0.01    -0.01  -0.01   0.03
  25   1     0.01  -0.03  -0.02     0.00  -0.02  -0.05     0.04  -0.02  -0.04
  26   1     0.04  -0.05  -0.02    -0.02   0.01  -0.01     0.02  -0.00  -0.03
  27   1     0.05  -0.01   0.03    -0.03  -0.06  -0.05     0.04  -0.05   0.06
  28   1     0.07  -0.03   0.01    -0.05  -0.07  -0.03     0.07  -0.07   0.03
  29   1     0.07  -0.02   0.02    -0.06  -0.04   0.00     0.02  -0.04   0.07
  30   1    -0.02  -0.02   0.01    -0.03  -0.03   0.01    -0.03   0.00   0.02
  31   1    -0.02  -0.00   0.02    -0.02   0.01  -0.03    -0.00  -0.02  -0.01
  32   1     0.10   0.02  -0.05    -0.04   0.03   0.03     0.04   0.01   0.01
  33   1    -0.00   0.05   0.01     0.06   0.02  -0.04     0.05   0.03  -0.01
  34   1     0.01   0.14   0.09    -0.05  -0.01  -0.14    -0.01   0.05  -0.04
  35   1     0.10   0.13   0.03    -0.14  -0.02  -0.06    -0.02   0.03  -0.02
  36   1     0.11   0.16   0.05    -0.08  -0.02  -0.12     0.02   0.05  -0.04
  37   1    -0.07  -0.03  -0.00    -0.04  -0.00   0.03     0.11   0.04  -0.03
  38   1    -0.06  -0.04  -0.01    -0.07  -0.03   0.04     0.03   0.00  -0.01
  39   1    -0.05  -0.01   0.01    -0.08   0.02   0.02    -0.04  -0.06  -0.13
  40   1    -0.06  -0.00   0.02    -0.05   0.04   0.01     0.04  -0.02  -0.15
  41   1    -0.08  -0.01   0.02    -0.08   0.02   0.02     0.06  -0.01  -0.17
                      7                      8                      9
                        a                      a                      a 
 Frequencies --    55.3758                72.8727                65.7415
 Red. masses --    11.3080                21.6136                13.2473
 Frc consts  --     0.0000                 0.0000                 0.0000
 IR Inten    --     2.4006                 0.7384                 2.2580
 Raman Activ --     0.0000                 0.0000                 0.0000
 Depolar     --     0.0000                 0.0000                 0.0000
 Atom AN      X      Y      Z        X      Y      Z        X      Y      Z
   1   6     0.06  -0.07   0.17     0.06  -0.06   0.15     0.37  -0.19   0.33
   2   6    -0.01  -0.05   0.09     0.01  -0.06   0.05     0.01  -0.07  -0.00
   3   8    -0.03   0.00   0.03     0.06  -0.03  -0.01    -0.01   0.08  -0.20
   4  15    -0.06   0.02  -0.01     0.17   0.07  -0.03    -0.03  -0.02  -0.11
   5  16    -0.06   0.01   0.00     0.38  -0.07   0.03    -0.09  -0.02  -0.05
   6   8    -0.09   0.03  -0.03    -0.00   0.12  -0.06     0.07  -0.12  -0.09
   7   6     0.18  -0.26  -0.12     0.01  -0.10  -0.07    -0.08   0.03  -0.03
   8   6     0.46  -0.24   0.17    -0.10  -0.33   0.04    -0.31  -0.08  -0.17
   9  16    -0.04   0.06  -0.02     0.15   0.15  -0.01    -0.15   0.06   0.00
  10   6     0.00   0.05   0.00    -0.01   0.06  -0.02    -0.02   0.04   0.09
  11  16    -0.04   0.09  -0.02    -0.22   0.15  -0.14    -0.02  -0.01   0.16
  12  15    -0.02   0.11  -0.10    -0.19   0.04  -0.01     0.02   0.04  -0.03
  13  16     0.04   0.14  -0.12    -0.33  -0.25   0.03     0.19   0.22  -0.09
  14   8    -0.05   0.02  -0.10    -0.09   0.09   0.03    -0.06  -0.06  -0.08
  15   6    -0.15  -0.07  -0.09    -0.05   0.10   0.03    -0.02  -0.02  -0.01
  16   6    -0.13  -0.18  -0.10    -0.02   0.15   0.08     0.10   0.05   0.14
  17   8     0.03   0.10  -0.07    -0.09   0.08   0.08     0.02   0.02  -0.05
  18   6    -0.05   0.04   0.09     0.13   0.05  -0.00    -0.01   0.00   0.01
  19   6     0.01   0.07   0.30     0.15  -0.14  -0.12     0.05  -0.03   0.16
  20   1     0.03  -0.00   0.05     0.03  -0.00   0.04     0.18   0.01   0.09
  21   1     0.01  -0.03   0.05     0.02  -0.02   0.05     0.09  -0.11   0.14
  22   1     0.03  -0.03   0.06     0.02  -0.03   0.06     0.12  -0.09   0.13
  23   1    -0.02  -0.03   0.02    -0.01  -0.03   0.02    -0.09  -0.07   0.02
  24   1    -0.00  -0.00   0.02     0.00  -0.02   0.00     0.01   0.04  -0.06
  25   1     0.02  -0.08  -0.07     0.04  -0.04  -0.07     0.02   0.01   0.00
  26   1     0.07  -0.12  -0.08    -0.01   0.00  -0.00    -0.04   0.06   0.02
  27   1     0.11  -0.03   0.10    -0.02  -0.12  -0.01    -0.07  -0.06  -0.08
  28   1     0.19  -0.11   0.03    -0.03  -0.13   0.00    -0.12  -0.01  -0.04
  29   1     0.15  -0.07   0.07    -0.06  -0.08   0.05    -0.12  -0.02  -0.05
  30   1     0.01   0.02  -0.00     0.01   0.01  -0.02    -0.00   0.03   0.03
  31   1     0.00   0.01   0.01    -0.01   0.02   0.01     0.00  -0.00   0.03
  32   1    -0.07  -0.01  -0.02    -0.01   0.03  -0.01     0.01  -0.01  -0.04
  33   1    -0.04  -0.03  -0.03    -0.03   0.02   0.01    -0.04  -0.02   0.01
  34   1    -0.02  -0.06  -0.03    -0.01   0.05   0.04     0.02   0.01   0.08
  35   1    -0.03  -0.05  -0.03     0.00   0.05   0.02     0.06   0.03   0.03
  36   1    -0.06  -0.07  -0.02    -0.00   0.05   0.02     0.03   0.02   0.05
  37   1    -0.06  -0.01   0.02     0.06   0.03   0.00    -0.03  -0.01   0.00
  38   1    -0.00   0.02   0.01     0.05   0.04   0.01     0.01   0.01  -0.02
  39   1     0.04   0.05   0.09     0.03  -0.06  -0.04     0.05  -0.00   0.05
  40   1    -0.01   0.01   0.10     0.03  -0.06  -0.04    -0.00  -0.02   0.06
  41   1    -0.01   0.01   0.12     0.08  -0.04  -0.05     0.01  -0.01   0.06
                     10                     11                     12
                        a                      a                      a 
 Frequencies --    66.9189                73.5134                91.6123
 Red. masses --    13.4596                12.3070                13.4507
 Frc consts  --     0.0000                 0.0000                 0.0000
 IR Inten    --     2.2108                 1.0330                 3.8266
 Raman Activ --     0.0000                 0.0000                 0.0000
 Depolar     --     0.0000                 0.0000                 0.0000
 Atom AN      X      Y      Z        X      Y      Z        X      Y      Z
   1   6     0.18  -0.13   0.12    -0.15   0.07  -0.16     0.06  -0.03  -0.17
   2   6     0.01  -0.04   0.01     0.03   0.01   0.01     0.20  -0.02   0.05
   3   8    -0.03  -0.01  -0.03    -0.01  -0.05   0.10     0.06  -0.09   0.18
   4  15    -0.04  -0.03  -0.04    -0.02  -0.00   0.01     0.01  -0.02  -0.04
   5  16     0.03  -0.18   0.22    -0.03   0.05  -0.10     0.05   0.01  -0.14
   6   8    -0.11  -0.06  -0.12    -0.06   0.07   0.03    -0.16   0.10  -0.06
   7   6    -0.11  -0.04  -0.10    -0.03   0.04   0.02    -0.13  -0.02  -0.06
   8   6     0.28   0.45  -0.15    -0.10  -0.07   0.05    -0.01   0.06  -0.02
   9  16     0.07   0.18  -0.13     0.03  -0.05  -0.03     0.10  -0.07  -0.09
  10   6    -0.03   0.05   0.04    -0.00  -0.05   0.02     0.01  -0.07  -0.01
  11  16     0.00  -0.10   0.09     0.10  -0.16   0.09     0.09  -0.05   0.03
  12  15    -0.07  -0.02   0.08    -0.04   0.03  -0.01    -0.09   0.12   0.07
  13  16    -0.15   0.05   0.11    -0.04   0.30   0.00     0.28   0.05  -0.06
  14   8    -0.03   0.02   0.07    -0.04   0.04  -0.02    -0.14   0.12  -0.05
  15   6     0.00   0.04  -0.01     0.03   0.09  -0.05    -0.36  -0.09  -0.07
  16   6    -0.09   0.09  -0.10    -0.04   0.15  -0.12     0.01  -0.08   0.34
  17   8    -0.08  -0.04   0.03    -0.08  -0.02  -0.06    -0.18   0.08   0.20
  18   6     0.06  -0.02  -0.08     0.08  -0.03  -0.09     0.01   0.07   0.09
  19   6     0.11  -0.18  -0.11     0.34  -0.43   0.31    -0.01  -0.05  -0.09
  20   1     0.08  -0.01   0.03    -0.09  -0.00  -0.04    -0.03  -0.03  -0.04
  21   1     0.04  -0.07   0.05    -0.04   0.05  -0.08     0.02  -0.00  -0.09
  22   1     0.07  -0.05   0.04    -0.04   0.03  -0.06     0.04   0.01  -0.07
  23   1    -0.03  -0.03   0.01     0.06   0.02  -0.01     0.11   0.01  -0.00
  24   1     0.01   0.02  -0.02     0.01  -0.02   0.04     0.06  -0.01   0.06
  25   1    -0.16   0.00   0.00     0.02   0.01  -0.00    -0.08  -0.01  -0.03
  26   1     0.01  -0.13  -0.05    -0.02   0.03   0.01    -0.02  -0.05  -0.02
  27   1     0.05   0.24  -0.01    -0.02  -0.04   0.01    -0.01   0.05   0.00
  28   1     0.09   0.15  -0.04    -0.02  -0.03   0.01     0.00   0.00  -0.01
  29   1     0.19   0.11  -0.09    -0.05  -0.01   0.03     0.03   0.02   0.00
  30   1    -0.02   0.02   0.02    -0.01  -0.02   0.02    -0.01  -0.03   0.00
  31   1    -0.02   0.02   0.02    -0.00  -0.01  -0.00    -0.00  -0.01  -0.01
  32   1     0.00   0.01   0.00     0.02   0.01  -0.00    -0.14   0.03  -0.13
  33   1     0.02   0.01  -0.01     0.03   0.04  -0.02    -0.19  -0.12   0.01
  34   1    -0.03   0.03  -0.04    -0.02   0.05  -0.05     0.04  -0.08   0.21
  35   1    -0.05   0.03  -0.02    -0.03   0.03  -0.03     0.10   0.07   0.07
  36   1    -0.02   0.03  -0.05     0.00   0.05  -0.05    -0.05  -0.06   0.10
  37   1     0.02   0.02  -0.02    -0.08   0.03  -0.03     0.04   0.03   0.03
  38   1     0.04   0.01  -0.04     0.10   0.04  -0.12     0.01   0.03   0.05
  39   1     0.03  -0.08  -0.03     0.20  -0.16   0.09    -0.04  -0.03  -0.03
  40   1     0.01  -0.06  -0.02     0.01  -0.17   0.18    -0.00  -0.03  -0.04
  41   1     0.06  -0.05  -0.05     0.14  -0.13   0.08     0.03  -0.01  -0.04
                     13                     14                     15
                        a                      a                      a 
 Frequencies --    98.0415                98.9091               114.7606
 Red. masses --    11.6210                11.9043                14.8345
 Frc consts  --     0.0000                 0.0000                 0.0000
 IR Inten    --     0.7478                 3.0808                 9.3960
 Raman Activ --     0.0000                 0.0000                 0.0000
 Depolar     --     0.0000                 0.0000                 0.0000
 Atom AN      X      Y      Z        X      Y      Z        X      Y      Z
   1   6     0.39  -0.25  -0.26    -0.09   0.07   0.08     0.05   0.00  -0.13
   2   6    -0.01   0.15  -0.17     0.10  -0.08   0.10     0.39  -0.13   0.16
   3   8    -0.12  -0.12   0.18     0.07   0.03  -0.03     0.08  -0.04   0.13
   4  15    -0.10   0.02   0.07     0.05  -0.01  -0.05    -0.00  -0.07  -0.05
   5  16     0.20  -0.04  -0.14    -0.02   0.01  -0.03     0.05   0.00  -0.28
   6   8    -0.22   0.22   0.11     0.04  -0.06  -0.07    -0.09  -0.00  -0.07
   7   6    -0.09   0.07   0.06    -0.03  -0.04  -0.05    -0.14  -0.10  -0.06
   8   6    -0.02   0.02   0.19     0.00   0.06  -0.11    -0.04   0.02  -0.07
   9  16    -0.06  -0.04   0.05    -0.01  -0.00   0.01    -0.14   0.07   0.10
  10   6     0.00   0.00   0.00     0.01   0.01   0.00     0.00   0.05   0.17
  11  16    -0.05   0.05  -0.03    -0.10   0.07  -0.05    -0.24   0.10   0.16
  12  15     0.00  -0.01  -0.03    -0.09   0.06  -0.05    -0.00  -0.06   0.01
  13  16     0.06  -0.07  -0.06     0.30  -0.10  -0.20    -0.14   0.05   0.06
  14   8     0.01  -0.01  -0.02    -0.08   0.05  -0.05    -0.04  -0.21   0.00
  15   6     0.12   0.09   0.13     0.14   0.22   0.42     0.11  -0.05  -0.02
  16   6    -0.02  -0.04  -0.06    -0.09  -0.21   0.07     0.01   0.11  -0.09
  17   8    -0.03  -0.02  -0.01    -0.19   0.03   0.09     0.22   0.03  -0.10
  18   6    -0.07  -0.00  -0.01    -0.06   0.03   0.02     0.09  -0.01   0.05
  19   6    -0.05   0.01   0.06    -0.01  -0.11   0.02     0.02   0.19   0.05
  20   1     0.21  -0.13  -0.14    -0.08   0.04   0.05    -0.11   0.01   0.01
  21   1     0.10  -0.15   0.04    -0.02   0.05  -0.04     0.01   0.03  -0.16
  22   1     0.11  -0.01  -0.15    -0.01  -0.00   0.05     0.07  -0.01  -0.03
  23   1    -0.09   0.10   0.01     0.08  -0.05  -0.00     0.24  -0.06  -0.02
  24   1     0.01   0.13  -0.15     0.03  -0.06   0.09     0.13  -0.06   0.19
  25   1    -0.03   0.01  -0.00    -0.04  -0.01  -0.01    -0.09  -0.03  -0.03
  26   1    -0.02   0.01   0.00    -0.00  -0.04  -0.00    -0.03  -0.08  -0.01
  27   1    -0.01   0.01   0.07    -0.00   0.04  -0.04    -0.02   0.05  -0.03
  28   1     0.02  -0.02   0.05    -0.01   0.02  -0.03    -0.03  -0.01  -0.02
  29   1    -0.01   0.01   0.07     0.03   0.01  -0.04     0.04   0.00  -0.02
  30   1     0.01   0.01  -0.00     0.01   0.01  -0.01     0.03   0.05   0.04
  31   1     0.01  -0.01   0.00     0.01  -0.00   0.01     0.02  -0.01   0.08
  32   1     0.05  -0.01   0.12     0.07  -0.01   0.30     0.07  -0.04   0.01
  33   1     0.07   0.10   0.03     0.09   0.25   0.12     0.05   0.01  -0.01
  34   1    -0.02   0.02  -0.10    -0.06   0.01  -0.17    -0.03   0.06  -0.04
  35   1    -0.04  -0.09  -0.01    -0.08  -0.25   0.02    -0.02   0.01  -0.02
  36   1     0.02   0.01   0.02     0.01  -0.03   0.13     0.04   0.06  -0.04
  37   1    -0.03   0.00  -0.00    -0.03   0.02   0.01     0.04  -0.04   0.01
  38   1    -0.02  -0.00  -0.02     0.00   0.02  -0.01     0.00  -0.01   0.05
  39   1     0.00   0.00   0.02     0.01  -0.06   0.01    -0.01   0.10   0.01
  40   1    -0.02   0.01   0.03    -0.02  -0.04   0.03     0.03   0.07  -0.02
  41   1    -0.02   0.01   0.02     0.02  -0.03  -0.01    -0.02   0.05   0.05
                     16                     17                     18
                        a                      a                      a 
 Frequencies --   130.0592               143.3811               145.7798
 Red. masses --    14.0410                20.7455                17.7834
 Frc consts  --     0.0000                 0.0000                 0.0000
 IR Inten    --     3.2727                 4.7504                 6.3034
 Raman Activ --     0.0000                 0.0000                 0.0000
 Depolar     --     0.0000                 0.0000                 0.0000
 Atom AN      X      Y      Z        X      Y      Z        X      Y      Z
   1   6    -0.02  -0.05  -0.04    -0.04   0.17   0.09     0.06   0.01  -0.04
   2   6    -0.08  -0.00  -0.04    -0.09   0.16  -0.03     0.25  -0.09   0.08
   3   8    -0.01  -0.07   0.02     0.04   0.16  -0.05    -0.08   0.07  -0.05
   4  15     0.01  -0.03  -0.02     0.06   0.17   0.02    -0.18   0.03  -0.11
   5  16    -0.12  -0.01   0.08     0.35  -0.00   0.10     0.16  -0.33   0.29
   6   8     0.01   0.01   0.01    -0.06   0.11  -0.09    -0.07   0.09   0.03
   7   6     0.09   0.10   0.00    -0.20  -0.20  -0.07     0.21   0.29  -0.03
   8   6     0.00  -0.02   0.03    -0.01  -0.00  -0.06     0.04  -0.03   0.08
   9  16     0.20   0.03  -0.17    -0.18  -0.36   0.15    -0.20   0.04  -0.14
  10   6    -0.06  -0.07  -0.02    -0.14  -0.17  -0.15    -0.14   0.04  -0.14
  11  16    -0.01  -0.23   0.00    -0.08   0.07  -0.16    -0.07   0.11  -0.15
  12  15    -0.15  -0.04  -0.07     0.02  -0.10   0.05     0.03  -0.07   0.07
  13  16    -0.07   0.30  -0.09     0.13   0.29   0.03     0.14   0.16   0.05
  14   8    -0.16  -0.12  -0.09    -0.02  -0.13   0.01     0.02  -0.05   0.05
  15   6     0.03   0.04   0.10     0.05  -0.06  -0.02     0.03  -0.04  -0.01
  16   6    -0.05   0.04   0.01     0.01   0.04  -0.03     0.01   0.02  -0.02
  17   8     0.08   0.10   0.05     0.03  -0.06   0.04    -0.05  -0.09   0.05
  18   6     0.29  -0.12   0.38     0.04  -0.09   0.09    -0.07  -0.06  -0.00
  19   6     0.07   0.09  -0.06    -0.01  -0.02   0.01    -0.07  -0.07  -0.01
  20   1     0.02  -0.03  -0.03     0.01   0.06   0.02    -0.07   0.04   0.04
  21   1    -0.00  -0.02   0.02    -0.01   0.05   0.04     0.01   0.01  -0.12
  22   1    -0.02  -0.00  -0.03    -0.02   0.04   0.04     0.07  -0.03   0.02
  23   1    -0.04   0.02   0.00    -0.06   0.05   0.01     0.16  -0.07  -0.04
  24   1    -0.02   0.00  -0.04    -0.03   0.04  -0.04     0.09  -0.03   0.14
  25   1     0.08   0.03   0.01    -0.17  -0.06  -0.06     0.20   0.08   0.02
  26   1     0.01   0.08  -0.02    -0.03  -0.16   0.02     0.03   0.21  -0.06
  27   1     0.01  -0.05   0.03    -0.02   0.10  -0.05     0.03  -0.13   0.08
  28   1     0.03   0.01   0.01    -0.04  -0.05  -0.02     0.09   0.04   0.01
  29   1    -0.05  -0.00  -0.00     0.10  -0.00   0.01    -0.12   0.00   0.00
  30   1    -0.03  -0.04   0.00    -0.06  -0.09  -0.05    -0.06  -0.01  -0.04
  31   1    -0.04   0.00  -0.01    -0.05  -0.03  -0.09    -0.05   0.02  -0.07
  32   1     0.05  -0.03   0.08     0.03  -0.02  -0.01     0.01  -0.01  -0.02
  33   1     0.02   0.08   0.03     0.02  -0.02  -0.01     0.01  -0.02  -0.01
  34   1    -0.06   0.06  -0.06    -0.01   0.02  -0.00     0.01  -0.00   0.01
  35   1    -0.03  -0.07  -0.00    -0.01   0.01  -0.01    -0.00   0.03   0.00
  36   1     0.03   0.05   0.05     0.02   0.03  -0.02     0.00   0.00  -0.02
  37   1     0.22  -0.16   0.10     0.04  -0.05   0.03    -0.02  -0.00   0.00
  38   1     0.04  -0.00   0.29    -0.00  -0.02   0.06    -0.02  -0.02  -0.01
  39   1    -0.12   0.15  -0.02    -0.03   0.02   0.00    -0.02  -0.03  -0.00
  40   1     0.08  -0.01  -0.20     0.01  -0.01  -0.03    -0.02  -0.02   0.00
  41   1     0.06  -0.02   0.07     0.00  -0.02   0.02    -0.02  -0.02  -0.01
                     19                     20                     21
                        a                      a                      a 
 Frequencies --   171.0834               170.8509               201.1569
 Red. masses --    25.8714                15.2457                19.8004
 Frc consts  --     0.0000                 0.0000                 0.0000
 IR Inten    --     6.0904                13.8951                45.5408
 Raman Activ --     0.0000                 0.0000                 0.0000
 Depolar     --     0.0000                 0.0000                 0.0000
 Atom AN      X      Y      Z        X      Y      Z        X      Y      Z
   1   6     0.02   0.14   0.06    -0.03  -0.02   0.01    -0.05  -0.11  -0.04
   2   6     0.08   0.07   0.03    -0.05  -0.01  -0.01    -0.05  -0.08  -0.01
   3   8    -0.05   0.18  -0.08     0.04  -0.06   0.03     0.12  -0.19   0.10
   4  15    -0.16   0.09  -0.04     0.07   0.03  -0.09     0.25   0.08  -0.22
   5  16     0.21  -0.16   0.09    -0.04  -0.02   0.17    -0.18   0.10   0.31
   6   8    -0.09   0.08  -0.00    -0.04   0.11  -0.07    -0.11   0.31  -0.21
   7   6    -0.04   0.04  -0.01     0.04   0.09  -0.09     0.05   0.16  -0.25
   8   6    -0.01   0.01   0.05     0.01  -0.01  -0.03     0.02   0.00  -0.14
   9  16    -0.30  -0.15   0.02     0.10  -0.19  -0.11    -0.16  -0.23   0.17
  10   6     0.01  -0.04   0.08    -0.17  -0.20  -0.03     0.21  -0.04   0.18
  11  16     0.33  -0.34   0.26    -0.01  -0.09   0.11    -0.09   0.10   0.10
  12  15     0.01   0.14  -0.19    -0.11   0.07   0.15     0.07   0.01  -0.06
  13  16    -0.24  -0.25  -0.14     0.18  -0.19   0.04    -0.09   0.01  -0.00
  14   8     0.04   0.17  -0.13    -0.23  -0.19   0.03     0.09   0.06  -0.02
  15   6    -0.02   0.10   0.00    -0.07  -0.03   0.08     0.04   0.01  -0.04
  16   6     0.05  -0.09   0.03    -0.16   0.14   0.02     0.07  -0.06  -0.03
  17   8     0.03   0.13  -0.09     0.24   0.14  -0.12    -0.05  -0.03   0.02
  18   6     0.09   0.05   0.03     0.05   0.24  -0.24    -0.02  -0.05   0.05
  19   6     0.07   0.09  -0.00     0.14   0.28   0.05    -0.03  -0.06  -0.00
  20   1    -0.03   0.09   0.05     0.01  -0.03  -0.01     0.02  -0.09  -0.05
  21   1    -0.00   0.04  -0.04    -0.00  -0.00   0.03    -0.00  -0.02   0.05
  22   1     0.04   0.01   0.05    -0.03   0.01  -0.01    -0.06   0.01  -0.05
  23   1     0.05  -0.01  -0.02    -0.03   0.01   0.01    -0.03   0.01   0.02
  24   1     0.03   0.02   0.05    -0.02  -0.01  -0.03    -0.02  -0.03  -0.04
  25   1    -0.01   0.01  -0.01     0.04   0.02  -0.03     0.06   0.04  -0.09
  26   1    -0.01   0.01  -0.01     0.00   0.05  -0.04     0.01   0.08  -0.09
  27   1    -0.01   0.01   0.02     0.01  -0.03   0.00     0.01  -0.03  -0.03
  28   1     0.01  -0.01   0.01     0.02   0.00  -0.01     0.03  -0.01  -0.05
  29   1    -0.00   0.01   0.03    -0.03   0.00  -0.01    -0.04   0.01  -0.03
  30   1    -0.01   0.02   0.05    -0.09  -0.11   0.00     0.11   0.06   0.03
  31   1     0.03  -0.03   0.01    -0.08  -0.02  -0.06     0.11  -0.07   0.11
  32   1    -0.02   0.03   0.02     0.02  -0.04   0.04     0.00   0.01  -0.01
  33   1    -0.02   0.05   0.01    -0.01   0.02   0.02     0.01  -0.00  -0.01
  34   1     0.03  -0.03  -0.02    -0.11   0.08  -0.01     0.05  -0.03  -0.00
  35   1     0.03  -0.06  -0.00    -0.07  -0.00   0.01     0.03  -0.00  -0.01
  36   1    -0.00  -0.04   0.05     0.01   0.09   0.01    -0.00  -0.04  -0.01
  37   1     0.05  -0.02   0.01    -0.07   0.13  -0.07     0.01  -0.03   0.01
  38   1     0.02   0.03   0.05     0.03   0.04  -0.16    -0.01  -0.01   0.03
  39   1    -0.00   0.07  -0.00     0.13   0.02   0.02    -0.03  -0.00  -0.00
  40   1     0.03   0.01  -0.04     0.03   0.13   0.12    -0.01  -0.03  -0.02
  41   1     0.03   0.01   0.04    -0.03   0.11  -0.03     0.01  -0.03   0.01
                     22                     23                     24
                        a                      a                      a 
 Frequencies --   202.7444               223.0979               231.3162
 Red. masses --     5.9640                12.6766                10.9813
 Frc consts  --     0.0000                 0.0000                 0.0000
 IR Inten    --     5.6510                 0.9605                10.8447
 Raman Activ --     0.0000                 0.0000                 0.0000
 Depolar     --     0.0000                 0.0000                 0.0000
 Atom AN      X      Y      Z        X      Y      Z        X      Y      Z
   1   6    -0.00   0.00  -0.00    -0.02  -0.32  -0.16     0.03   0.05   0.01
   2   6    -0.00   0.00  -0.00     0.02  -0.26  -0.00     0.07  -0.09  -0.17
   3   8     0.00  -0.00   0.01    -0.13  -0.11  -0.14     0.00   0.06  -0.36
   4  15     0.00  -0.00   0.00     0.15   0.15   0.01     0.07  -0.08  -0.14
   5  16     0.01  -0.00  -0.01    -0.04   0.23   0.17    -0.17  -0.06   0.08
   6   8    -0.00  -0.01  -0.01     0.18   0.09   0.04     0.00   0.25   0.11
   7   6    -0.00  -0.01  -0.01    -0.00  -0.05   0.07    -0.13   0.06   0.16
   8   6    -0.00  -0.01  -0.01    -0.01  -0.00   0.02    -0.01   0.03   0.34
   9  16     0.01   0.00   0.01    -0.05   0.10   0.17     0.07  -0.07  -0.12
  10   6    -0.06  -0.03   0.03    -0.37   0.01  -0.15     0.26  -0.01   0.07
  11  16    -0.14  -0.10   0.02     0.10  -0.03   0.08    -0.04  -0.01  -0.10
  12  15    -0.12   0.02  -0.02     0.06   0.05  -0.04    -0.06  -0.04   0.03
  13  16     0.16  -0.04  -0.13    -0.03  -0.03  -0.03     0.03   0.03   0.01
  14   8     0.12   0.09   0.20     0.04   0.07  -0.05    -0.04  -0.06   0.05
  15   6     0.09   0.09   0.19     0.02   0.04  -0.04    -0.02  -0.03   0.04
  16   6    -0.08   0.04   0.00     0.07  -0.05  -0.01    -0.07   0.05   0.02
  17   8     0.02   0.02  -0.18    -0.02   0.01  -0.03     0.02  -0.01   0.02
  18   6     0.03  -0.03  -0.04    -0.01  -0.00  -0.00     0.01   0.00   0.01
  19   6     0.03   0.03   0.01    -0.00  -0.01  -0.00     0.01   0.01   0.01
  20   1    -0.00   0.00  -0.00    -0.08  -0.06  -0.01    -0.04   0.13   0.06
  21   1    -0.00  -0.00  -0.00    -0.04  -0.13  -0.14    -0.01   0.01  -0.09
  22   1     0.00   0.00  -0.00     0.09  -0.11  -0.04     0.06  -0.06   0.09
  23   1    -0.00   0.00   0.00     0.06  -0.11  -0.04     0.04  -0.07  -0.07
  24   1    -0.00   0.00  -0.00     0.02  -0.06   0.07     0.02  -0.03  -0.01
  25   1     0.00  -0.00  -0.00    -0.05  -0.02  -0.01    -0.09   0.01  -0.00
  26   1    -0.00  -0.00  -0.00     0.01  -0.06   0.06    -0.03  -0.04   0.07
  27   1     0.00  -0.01   0.01    -0.01   0.12  -0.14    -0.03   0.19  -0.05
  28   1     0.01   0.01  -0.00    -0.14  -0.13   0.01    -0.13  -0.22   0.09
  29   1    -0.01  -0.00  -0.01     0.13   0.01   0.12     0.17   0.03   0.30
  30   1    -0.02  -0.02   0.01    -0.19  -0.13  -0.01     0.14   0.09   0.00
  31   1    -0.03  -0.00   0.01    -0.16   0.08  -0.16     0.11  -0.06   0.11
  32   1     0.01   0.02   0.08    -0.00   0.01  -0.01    -0.00  -0.01   0.01
  33   1     0.06   0.04   0.04     0.00   0.01  -0.01    -0.00  -0.01   0.01
  34   1     0.29  -0.24   0.20     0.03  -0.02  -0.01    -0.02   0.01   0.02
  35   1    -0.13   0.45   0.10     0.03  -0.03  -0.01    -0.04   0.04   0.02
  36   1    -0.29  -0.20  -0.37     0.01  -0.02   0.02    -0.02   0.01  -0.03
  37   1     0.02  -0.04  -0.01     0.00  -0.01  -0.00     0.00   0.00   0.00
  38   1     0.01   0.00   0.02    -0.00   0.00   0.01     0.00  -0.00   0.00
  39   1    -0.02   0.15   0.01    -0.01   0.03  -0.00     0.02  -0.04   0.00
  40   1    -0.00  -0.06  -0.11    -0.01  -0.03  -0.03     0.01   0.04   0.04
  41   1     0.05  -0.05   0.13     0.02  -0.02   0.03    -0.02   0.03  -0.04
                     25                     26                     27
                        a                      a                      a 
 Frequencies --   218.0456               235.4001               258.8969
 Red. masses --     4.7436                 4.8820                12.2574
 Frc consts  --     0.0000                 0.0000                 0.0000
 IR Inten    --     1.5115                 4.2834                 7.0393
 Raman Activ --     0.0000                 0.0000                 0.0000
 Depolar     --     0.0000                 0.0000                 0.0000
 Atom AN      X      Y      Z        X      Y      Z        X      Y      Z
   1   6     0.01   0.02   0.01     0.00  -0.08  -0.06     0.02   0.16   0.08
   2   6     0.01   0.01  -0.02    -0.08  -0.04  -0.11     0.12  -0.05  -0.11
   3   8     0.01   0.01  -0.02    -0.08   0.01  -0.17     0.17  -0.00  -0.20
   4  15     0.00  -0.02  -0.02     0.08   0.05   0.06     0.16  -0.20  -0.09
   5  16    -0.02  -0.02  -0.00    -0.00   0.14   0.02    -0.14  -0.12  -0.05
   6   8    -0.01   0.02   0.01    -0.08   0.05  -0.03    -0.09   0.11   0.02
   7   6    -0.01   0.01   0.01    -0.15  -0.07  -0.01    -0.19  -0.01   0.07
   8   6    -0.00  -0.00   0.03    -0.01   0.01   0.06    -0.02   0.03   0.23
   9  16     0.01  -0.01  -0.01     0.14  -0.07   0.14     0.12   0.04  -0.01
  10   6     0.06   0.01  -0.01     0.07  -0.04   0.03    -0.28  -0.09   0.01
  11  16     0.09   0.13   0.00    -0.01  -0.03  -0.02    -0.13   0.11   0.19
  12  15     0.01   0.09   0.10    -0.01  -0.01   0.01     0.09   0.05  -0.02
  13  16     0.09  -0.11   0.08     0.01   0.00   0.00    -0.05  -0.00   0.02
  14   8    -0.00  -0.02   0.10     0.02   0.02   0.02     0.04   0.07  -0.09
  15   6    -0.08  -0.07  -0.00    -0.01  -0.00  -0.00     0.08   0.07  -0.09
  16   6    -0.09   0.08   0.03    -0.01   0.00   0.00     0.16  -0.11  -0.06
  17   8    -0.02  -0.02  -0.19     0.01   0.00  -0.01    -0.03   0.01   0.05
  18   6    -0.09  -0.02  -0.15     0.01   0.01  -0.01    -0.02   0.03  -0.00
  19   6    -0.03  -0.09  -0.01     0.01   0.01  -0.00    -0.01  -0.02  -0.01
  20   1     0.00   0.01   0.00    -0.15   0.24   0.14     0.11  -0.07  -0.06
  21   1     0.00   0.01   0.00    -0.10  -0.15  -0.32     0.08   0.16   0.20
  22   1    -0.00   0.00   0.01     0.29  -0.18   0.16    -0.21   0.10  -0.03
  23   1     0.00   0.00  -0.00    -0.03  -0.03  -0.04     0.04  -0.03  -0.04
  24   1     0.00   0.00  -0.01    -0.02   0.00  -0.02     0.03  -0.04  -0.03
  25   1    -0.01   0.00  -0.00    -0.07  -0.02  -0.01    -0.09  -0.00  -0.00
  26   1    -0.00  -0.00   0.00    -0.03  -0.05   0.00    -0.04  -0.04   0.03
  27   1    -0.00   0.01   0.00     0.00  -0.21   0.32    -0.01  -0.07   0.24
  28   1    -0.00  -0.01   0.01     0.27   0.28   0.00     0.16   0.11   0.05
  29   1     0.01   0.00   0.02    -0.23  -0.03  -0.24    -0.10  -0.00  -0.03
  30   1     0.02   0.01  -0.00     0.03  -0.01  -0.00    -0.14  -0.13   0.02
  31   1     0.02  -0.00  -0.00     0.02  -0.01   0.02    -0.13   0.04  -0.09
  32   1    -0.03  -0.01  -0.03    -0.01   0.00  -0.00     0.02   0.02  -0.02
  33   1    -0.02  -0.05  -0.00    -0.00  -0.01  -0.00     0.02   0.03  -0.02
  34   1    -0.15   0.12  -0.05    -0.02   0.01  -0.01     0.08  -0.05  -0.03
  35   1    -0.01  -0.11  -0.02     0.00  -0.02  -0.00     0.07  -0.04  -0.03
  36   1     0.09   0.11   0.10     0.01   0.01   0.01     0.01  -0.06   0.02
  37   1    -0.04  -0.02  -0.04     0.00   0.00  -0.00    -0.01   0.02   0.00
  38   1    -0.01   0.01  -0.05     0.00   0.00  -0.00    -0.00   0.01  -0.01
  39   1    -0.11   0.43   0.01     0.00   0.00  -0.00    -0.01   0.02  -0.00
  40   1    -0.09  -0.32  -0.37     0.00   0.01   0.00    -0.02  -0.03  -0.03
  41   1     0.20  -0.23   0.42    -0.00   0.01  -0.00     0.02  -0.02   0.03
                     28                     29                     30
                        a                      a                      a 
 Frequencies --   270.3685               266.6044               298.2930
 Red. masses --    16.6877                10.6854                14.6489
 Frc consts  --     0.0000                 0.0000                 0.0000
 IR Inten    --    22.0285                 0.2558                 0.9444
 Raman Activ --     0.0000                 0.0000                 0.0000
 Depolar     --     0.0000                 0.0000                 0.0000
 Atom AN      X      Y      Z        X      Y      Z        X      Y      Z
   1   6    -0.00  -0.00   0.00     0.02   0.12   0.04     0.03   0.10   0.04
   2   6     0.02  -0.01   0.01    -0.11   0.18  -0.06    -0.00   0.06  -0.07
   3   8    -0.00   0.00  -0.01     0.06  -0.06   0.17     0.12  -0.09   0.06
   4  15    -0.00   0.00  -0.01    -0.05  -0.13   0.02     0.09  -0.14  -0.02
   5  16     0.00  -0.00   0.00    -0.03  -0.14  -0.09    -0.08  -0.09  -0.05
   6   8     0.00   0.01   0.00    -0.11  -0.03  -0.02    -0.09   0.04  -0.03
   7   6    -0.00  -0.00   0.00     0.11   0.11  -0.07    -0.00   0.05  -0.05
   8   6    -0.00  -0.00   0.00     0.02  -0.01  -0.07     0.01   0.00   0.01
   9  16    -0.02   0.02   0.02     0.20  -0.06  -0.07    -0.00   0.06   0.15
  10   6    -0.07  -0.03   0.06    -0.15  -0.15   0.09    -0.12   0.05  -0.05
  11  16    -0.33  -0.24  -0.05    -0.23   0.10   0.18     0.23   0.24   0.12
  12  15    -0.15  -0.10   0.00     0.06   0.03   0.00     0.05   0.16  -0.05
  13  16     0.18   0.04  -0.10    -0.03   0.02   0.04     0.01  -0.10  -0.09
  14   8     0.36   0.43   0.38     0.05   0.08  -0.06     0.05  -0.01   0.09
  15   6    -0.09   0.06  -0.07     0.08   0.07  -0.10    -0.10  -0.09   0.12
  16   6    -0.01  -0.00   0.01     0.18  -0.11  -0.07    -0.21   0.14   0.08
  17   8     0.08  -0.03  -0.17    -0.03   0.01   0.08     0.05   0.00  -0.38
  18   6     0.10  -0.09  -0.03    -0.02   0.05  -0.02    -0.01  -0.25   0.14
  19   6     0.06   0.08   0.02    -0.00   0.01  -0.00    -0.10  -0.18  -0.03
  20   1     0.02  -0.03  -0.02    -0.10   0.28   0.14    -0.01   0.11   0.05
  21   1     0.01   0.02   0.03    -0.07  -0.08  -0.22    -0.01   0.02  -0.04
  22   1    -0.03   0.02  -0.02     0.24  -0.11   0.17     0.05  -0.02   0.07
  23   1     0.01  -0.01  -0.00    -0.09   0.09   0.02    -0.03   0.04   0.01
  24   1     0.01  -0.01   0.01    -0.04   0.06  -0.09    -0.01   0.01  -0.07
  25   1    -0.00  -0.00  -0.00     0.10   0.03   0.00     0.02   0.01  -0.01
  26   1    -0.00  -0.00   0.00     0.02   0.09  -0.06    -0.00   0.03  -0.03
  27   1    -0.00   0.01  -0.01     0.01   0.10  -0.19     0.00   0.01  -0.01
  28   1    -0.01  -0.01   0.00    -0.14  -0.16  -0.01    -0.01  -0.03  -0.00
  29   1     0.01   0.00   0.01     0.11   0.02   0.13     0.01   0.01   0.03
  30   1    -0.00   0.00   0.01    -0.07  -0.09   0.03    -0.09  -0.07   0.00
  31   1    -0.02  -0.01   0.05    -0.07  -0.01  -0.02    -0.06   0.06  -0.10
  32   1    -0.12   0.09  -0.09     0.02   0.02  -0.03    -0.04  -0.01   0.02
  33   1    -0.02  -0.11  -0.03     0.02   0.02  -0.03    -0.02  -0.04   0.03
  34   1    -0.13   0.10  -0.08     0.08  -0.05  -0.03    -0.12   0.07   0.03
  35   1     0.05  -0.19  -0.05     0.08  -0.05  -0.03    -0.10   0.04   0.04
  36   1     0.10   0.08   0.17     0.02  -0.06   0.03    -0.00   0.09  -0.02
  37   1     0.04  -0.06  -0.01    -0.02   0.04  -0.00     0.06  -0.19   0.03
  38   1     0.02  -0.02   0.02    -0.00   0.01  -0.03    -0.02  -0.03   0.16
  39   1     0.04  -0.01   0.01    -0.01   0.05   0.00    -0.04  -0.22  -0.01
  40   1     0.05   0.08   0.04    -0.02  -0.04  -0.04     0.01   0.05   0.09
  41   1    -0.05   0.05  -0.02     0.03  -0.02   0.05    -0.08   0.02  -0.17
                     31                     32                     33
                        a                      a                      a 
 Frequencies --   328.5070               337.2011               339.7151
 Red. masses --    22.3238                16.2203                21.1060
 Frc consts  --     0.0000                 0.0000                 0.0000
 IR Inten    --     8.4429                15.7678                 6.4252
 Raman Activ --     0.0000                 0.0000                 0.0000
 Depolar     --     0.0000                 0.0000                 0.0000
 Atom AN      X      Y      Z        X      Y      Z        X      Y      Z
   1   6     0.04   0.13   0.06    -0.00  -0.00  -0.00     0.01   0.00   0.00
   2   6     0.01   0.06  -0.10     0.01  -0.02  -0.01     0.06  -0.08  -0.05
   3   8     0.21  -0.20   0.15    -0.03   0.04  -0.06    -0.18   0.18  -0.30
   4  15     0.21  -0.20  -0.04    -0.03  -0.00   0.04    -0.14  -0.05   0.21
   5  16    -0.11  -0.09  -0.04    -0.00   0.00  -0.02    -0.03  -0.01  -0.10
   6   8    -0.06   0.08  -0.02    -0.07  -0.00  -0.01    -0.38   0.02  -0.05
   7   6    -0.02   0.04  -0.04     0.01   0.02  -0.03     0.07   0.11  -0.19
   8   6    -0.00   0.00   0.02     0.01  -0.00  -0.02     0.04  -0.01  -0.14
   9  16    -0.27   0.25   0.31     0.08  -0.02   0.08     0.35  -0.02   0.49
  10   6    -0.06   0.25  -0.16    -0.03  -0.02   0.02     0.05  -0.01  -0.01
  11  16     0.14  -0.28  -0.26     0.03  -0.07   0.05     0.06  -0.04  -0.09
  12  15    -0.05  -0.17  -0.02    -0.14   0.22  -0.13     0.01  -0.09   0.01
  13  16    -0.00   0.06  -0.04    -0.02  -0.02  -0.30    -0.01   0.02   0.04
  14   8    -0.01  -0.02  -0.00     0.26  -0.29   0.33    -0.05   0.04  -0.07
  15   6    -0.01  -0.02   0.02     0.21  -0.36   0.00    -0.05   0.06   0.01
  16   6    -0.04   0.02   0.02     0.06   0.04  -0.09    -0.03   0.00   0.03
  17   8    -0.04  -0.04   0.21    -0.22   0.23   0.21     0.03  -0.06   0.01
  18   6     0.05   0.10  -0.08    -0.08   0.25   0.12     0.03  -0.03  -0.04
  19   6     0.08   0.14   0.02    -0.03  -0.04  -0.01     0.03   0.04   0.01
  20   1    -0.00   0.13   0.06     0.01  -0.02  -0.01     0.04  -0.06  -0.04
  21   1     0.00   0.03  -0.04     0.01   0.01   0.02     0.03   0.05   0.08
  22   1     0.04  -0.02   0.09    -0.02   0.01  -0.01    -0.09   0.03  -0.03
  23   1    -0.05   0.07   0.02     0.01  -0.02  -0.01     0.06  -0.09  -0.06
  24   1    -0.02   0.00  -0.10     0.01  -0.00   0.02     0.03  -0.01   0.07
  25   1     0.00   0.01  -0.01     0.02   0.01  -0.00     0.11   0.03  -0.02
  26   1    -0.01   0.02  -0.02     0.00   0.02  -0.02     0.01   0.11  -0.13
  27   1    -0.00   0.01   0.01     0.00   0.00  -0.02     0.02   0.03  -0.11
  28   1     0.00  -0.02   0.00    -0.00  -0.01  -0.01    -0.05  -0.07  -0.04
  29   1     0.00   0.00   0.02     0.00   0.00   0.00     0.04   0.01   0.03
  30   1    -0.03   0.04  -0.05    -0.02  -0.02   0.01     0.01  -0.06  -0.02
  31   1    -0.03   0.09  -0.05    -0.02   0.01  -0.01    -0.01   0.03  -0.02
  32   1    -0.00  -0.01   0.01     0.05  -0.08  -0.06    -0.01   0.01   0.02
  33   1    -0.00   0.00   0.01     0.09  -0.17  -0.02    -0.02   0.03   0.01
  34   1    -0.02   0.01   0.01    -0.06   0.06  -0.01     0.00  -0.01   0.01
  35   1    -0.02   0.01   0.01    -0.02   0.00  -0.01    -0.01   0.01   0.01
  36   1    -0.00   0.01  -0.01     0.10   0.08  -0.07    -0.02  -0.01   0.01
  37   1    -0.02   0.09  -0.02    -0.02   0.10   0.03     0.00   0.00  -0.01
  38   1     0.02   0.01  -0.08    -0.01   0.08   0.01     0.01  -0.02  -0.02
  39   1     0.04   0.11   0.01    -0.03  -0.05  -0.01     0.02   0.03   0.00
  40   1     0.02   0.02  -0.02    -0.05  -0.05   0.00     0.02   0.02  -0.00
  41   1     0.01   0.01   0.08     0.07  -0.01  -0.04    -0.01   0.01   0.02
                     34                     35                     36
                        a                      a                      a 
 Frequencies --   384.0678               405.7473               422.6703
 Red. masses --    18.9586                11.6458                20.3552
 Frc consts  --     0.0000                 0.0000                 0.0000
 IR Inten    --    10.0752                 7.8412                35.3414
 Raman Activ --     0.0000                 0.0000                 0.0000
 Depolar     --     0.0000                 0.0000                 0.0000
 Atom AN      X      Y      Z        X      Y      Z        X      Y      Z
   1   6     0.01   0.02   0.01    -0.06  -0.13  -0.04     0.00   0.00   0.00
   2   6     0.01  -0.00  -0.02    -0.09   0.03   0.15     0.00  -0.01  -0.01
   3   8     0.00  -0.03   0.00     0.16   0.15   0.00     0.01  -0.00  -0.01
   4  15     0.01  -0.02   0.01     0.09   0.04  -0.03     0.04  -0.02   0.06
   5  16    -0.01  -0.01  -0.00     0.08   0.08  -0.02     0.01   0.03  -0.00
   6   8    -0.02   0.03   0.01    -0.01  -0.50  -0.34    -0.04  -0.04  -0.02
   7   6     0.01  -0.01  -0.01    -0.23   0.25  -0.16    -0.01   0.02  -0.03
   8   6     0.00  -0.00  -0.02    -0.00   0.05   0.35     0.00   0.00   0.01
   9  16    -0.05   0.05   0.10    -0.03  -0.01   0.06    -0.06   0.04   0.03
  10   6     0.07   0.07  -0.06     0.01   0.02  -0.01    -0.02  -0.01  -0.04
  11  16     0.10  -0.09  -0.14     0.03   0.02  -0.01    -0.29  -0.37  -0.17
  12  15    -0.41   0.21   0.27    -0.04  -0.01   0.01     0.31   0.23  -0.02
  13  16     0.15  -0.08   0.18     0.01  -0.00  -0.00     0.04  -0.01   0.19
  14   8    -0.24  -0.12   0.14    -0.01  -0.01   0.01     0.02   0.02  -0.14
  15   6     0.13   0.11  -0.20     0.01   0.01  -0.01    -0.03  -0.00   0.04
  16   6     0.32  -0.16  -0.15     0.02  -0.01  -0.01    -0.06   0.03   0.04
  17   8    -0.00   0.15  -0.31    -0.03  -0.01  -0.01     0.39   0.20  -0.06
  18   6    -0.02  -0.02   0.06     0.01  -0.01  -0.01    -0.18   0.20   0.17
  19   6    -0.03  -0.06  -0.01     0.01   0.02   0.00    -0.15  -0.22  -0.06
  20   1     0.01   0.01   0.00    -0.04  -0.09  -0.02     0.00   0.00   0.00
  21   1     0.00   0.01   0.00    -0.04  -0.09  -0.03     0.00   0.00   0.00
  22   1    -0.01  -0.00   0.01     0.04   0.01  -0.07    -0.00  -0.00   0.00
  23   1     0.00   0.00  -0.00    -0.04   0.02   0.05     0.00  -0.00  -0.00
  24   1     0.00  -0.00  -0.01    -0.03  -0.00   0.01     0.00  -0.00  -0.00
  25   1     0.00  -0.00  -0.00     0.02   0.08   0.03     0.01   0.01   0.00
  26   1     0.00  -0.00  -0.00    -0.08   0.14  -0.09    -0.01   0.02  -0.02
  27   1     0.00  -0.00  -0.01    -0.03   0.07   0.19    -0.00   0.01   0.00
  28   1    -0.01   0.00  -0.00     0.12  -0.17   0.04     0.00  -0.02  -0.00
  29   1     0.00  -0.00  -0.01     0.01   0.05   0.27     0.00   0.00   0.02
  30   1     0.04   0.04  -0.03     0.00  -0.00  -0.00     0.03   0.03  -0.02
  31   1     0.03   0.01   0.02     0.00   0.01  -0.01    -0.01  -0.01   0.06
  32   1     0.07   0.01  -0.06     0.00   0.00  -0.00    -0.01  -0.01   0.03
  33   1     0.05   0.02  -0.06     0.00  -0.00  -0.00    -0.02   0.02   0.02
  34   1     0.16  -0.08  -0.07     0.01  -0.00  -0.00    -0.03   0.01   0.02
  35   1     0.16  -0.07  -0.08     0.01  -0.00  -0.00    -0.03   0.02   0.02
  36   1     0.01  -0.11   0.05     0.00  -0.01   0.00    -0.01   0.02  -0.01
  37   1     0.03  -0.09   0.01     0.01  -0.01  -0.00    -0.07   0.06   0.05
  38   1    -0.00   0.03   0.09     0.00   0.00   0.00    -0.06   0.03   0.01
  39   1    -0.02  -0.08  -0.01     0.01   0.01   0.00    -0.12  -0.15  -0.02
  40   1    -0.01  -0.01   0.02     0.01   0.01   0.00    -0.12  -0.16  -0.04
  41   1     0.00   0.00  -0.06    -0.01   0.01   0.01     0.13  -0.07  -0.10
                     37                     38                     39
                        a                      a                      a 
 Frequencies --   462.0702               472.9522               482.9102
 Red. masses --    23.3375                16.9809                22.2570
 Frc consts  --     0.0000                 0.0000                 0.0000
 IR Inten    --   143.3841                79.5879               115.8496
 Raman Activ --     0.0000                 0.0000                 0.0000
 Depolar     --     0.0000                 0.0000                 0.0000
 Atom AN      X      Y      Z        X      Y      Z        X      Y      Z
   1   6     0.05   0.11   0.04     0.09   0.21   0.07     0.02   0.05   0.02
   2   6     0.10  -0.13  -0.24     0.13  -0.07  -0.24     0.02   0.02  -0.02
   3   8    -0.11  -0.21  -0.07    -0.37  -0.38   0.19    -0.12  -0.08   0.09
   4  15     0.19  -0.15   0.43    -0.18   0.22  -0.24    -0.11   0.13  -0.20
   5  16     0.16   0.39   0.10     0.05   0.10   0.06    -0.03  -0.09  -0.01
   6   8    -0.25  -0.17  -0.01     0.19  -0.21  -0.12     0.14  -0.03  -0.04
   7   6     0.01   0.04  -0.05    -0.07   0.04  -0.05    -0.03   0.00  -0.00
   8   6     0.02  -0.00  -0.02    -0.01   0.01   0.08    -0.01   0.00   0.03
   9  16    -0.23  -0.00  -0.31     0.14  -0.05   0.15     0.11   0.01   0.16
  10   6     0.00  -0.05  -0.04     0.02  -0.01   0.03     0.01  -0.01  -0.02
  11  16    -0.05  -0.01   0.03     0.07   0.06   0.02    -0.20  -0.20  -0.11
  12  15     0.06   0.09   0.00    -0.10  -0.14   0.00     0.28   0.38  -0.04
  13  16     0.01  -0.02   0.04    -0.03   0.02  -0.09     0.07  -0.06   0.28
  14   8     0.00  -0.02  -0.01    -0.01   0.03   0.03     0.03  -0.08  -0.12
  15   6     0.01  -0.03   0.00    -0.01   0.04  -0.01     0.03  -0.11   0.02
  16   6    -0.00   0.00  -0.00     0.00  -0.00   0.00    -0.02   0.02   0.00
  17   8    -0.17  -0.03  -0.03     0.19   0.02   0.04    -0.48  -0.04  -0.10
  18   6     0.05  -0.06  -0.04    -0.05   0.06   0.04     0.12  -0.14  -0.08
  19   6     0.04   0.05   0.01    -0.05  -0.05  -0.02     0.10   0.12   0.03
  20   1     0.05   0.10   0.02     0.08   0.16   0.03     0.02   0.03   0.01
  21   1     0.05   0.11   0.04     0.07   0.16   0.07     0.01   0.03   0.02
  22   1    -0.09  -0.03   0.09    -0.10  -0.02   0.13    -0.02   0.00   0.02
  23   1     0.04  -0.04  -0.07     0.07  -0.01  -0.08     0.02   0.01  -0.01
  24   1     0.04  -0.03  -0.04     0.06   0.01  -0.01     0.01   0.01   0.01
  25   1     0.08   0.02   0.03    -0.03   0.01   0.00    -0.03   0.00  -0.01
  26   1    -0.01   0.07  -0.07    -0.02   0.00   0.00    -0.00  -0.02   0.02
  27   1     0.01   0.01  -0.02    -0.01   0.02   0.06    -0.01   0.00   0.03
  28   1    -0.01  -0.03  -0.01     0.05  -0.04   0.01     0.02  -0.01   0.00
  29   1     0.01   0.00   0.02    -0.00   0.01   0.06    -0.00   0.00   0.02
  30   1     0.01   0.05   0.01     0.00  -0.03   0.01     0.02  -0.01  -0.03
  31   1     0.02  -0.05   0.02     0.00   0.01  -0.01    -0.01   0.01   0.03
  32   1     0.00  -0.01  -0.00    -0.00   0.01  -0.00     0.01  -0.03   0.01
  33   1     0.00  -0.01   0.00    -0.00   0.01  -0.00     0.00  -0.02   0.01
  34   1    -0.01   0.00   0.00     0.01  -0.01  -0.00    -0.03   0.02   0.01
  35   1    -0.00   0.00   0.00     0.01  -0.01  -0.00    -0.03   0.02   0.01
  36   1     0.01   0.01  -0.01    -0.01  -0.01   0.01     0.02   0.03  -0.03
  37   1     0.03  -0.03  -0.01    -0.03   0.04   0.01     0.08  -0.09  -0.03
  38   1     0.02   0.00   0.02    -0.02  -0.00  -0.03     0.05   0.02   0.07
  39   1     0.03   0.03   0.01    -0.04  -0.03  -0.01     0.08   0.08   0.01
  40   1     0.03   0.05   0.01    -0.04  -0.05  -0.02     0.08   0.11   0.04
  41   1    -0.04   0.02   0.02     0.04  -0.02  -0.02    -0.10   0.05   0.05
                     40                     41                     42
                        a                      a                      a 
 Frequencies --   622.0132               638.7658               670.4752
 Red. masses --    26.2979                22.9288                18.3878
 Frc consts  --     0.0000                 0.0000                 0.0000
 IR Inten    --   183.1470                99.0343                 6.0067
 Raman Activ --     0.0000                 0.0000                 0.0000
 Depolar     --     0.0000                 0.0000                 0.0000
 Atom AN      X      Y      Z        X      Y      Z        X      Y      Z
   1   6    -0.01  -0.01  -0.00    -0.04  -0.05  -0.00    -0.00  -0.00  -0.00
   2   6     0.00  -0.02  -0.02     0.01  -0.08  -0.07     0.00  -0.01  -0.02
   3   8     0.08  -0.00  -0.01     0.37  -0.02  -0.03     0.02  -0.01  -0.01
   4  15    -0.06  -0.03  -0.08    -0.31  -0.08  -0.43     0.01   0.06   0.09
   5  16     0.05   0.09   0.04     0.20   0.35   0.16    -0.03  -0.06  -0.03
   6   8    -0.07  -0.03   0.04    -0.32  -0.17   0.18     0.03   0.02  -0.01
   7   6     0.02  -0.02   0.04     0.07  -0.11   0.20    -0.01   0.01  -0.03
   8   6    -0.00   0.00   0.00    -0.01   0.01   0.03     0.00  -0.00  -0.01
   9  16     0.02  -0.05  -0.02     0.08  -0.07   0.07     0.13  -0.37  -0.07
  10   6    -0.06   0.06   0.11    -0.04   0.15   0.03     0.09   0.61  -0.44
  11  16     0.09   0.08   0.00    -0.02  -0.04  -0.03    -0.19  -0.06   0.37
  12  15    -0.29  -0.32  -0.42     0.08   0.09   0.10    -0.01  -0.02  -0.05
  13  16     0.19  -0.02   0.53    -0.04   0.00  -0.11     0.01   0.00   0.03
  14   8     0.18   0.08  -0.20    -0.04  -0.02   0.04    -0.01   0.00   0.03
  15   6     0.04  -0.11   0.03    -0.01   0.02  -0.01    -0.00   0.01  -0.00
  16   6    -0.02   0.00   0.02     0.00   0.00  -0.00     0.00   0.00  -0.00
  17   8    -0.13   0.19  -0.14     0.03  -0.04   0.03     0.00  -0.00  -0.01
  18   6    -0.03   0.18   0.06     0.01  -0.04  -0.01     0.00   0.01   0.01
  19   6     0.01   0.02   0.00    -0.00  -0.01  -0.00     0.00   0.00   0.00
  20   1    -0.00  -0.00   0.00    -0.02  -0.01   0.01     0.00   0.01   0.00
  21   1    -0.00  -0.00  -0.00    -0.01  -0.01  -0.01    -0.00  -0.00   0.00
  22   1    -0.00  -0.01   0.00    -0.01  -0.02   0.01    -0.01  -0.01   0.01
  23   1    -0.01   0.00   0.00    -0.04   0.01   0.01     0.00  -0.01  -0.01
  24   1    -0.00  -0.01  -0.02    -0.02  -0.05  -0.09    -0.00  -0.01  -0.01
  25   1     0.02  -0.01   0.02     0.08  -0.03   0.10    -0.01   0.00  -0.01
  26   1     0.00   0.01  -0.00     0.01   0.02  -0.02    -0.00  -0.00   0.00
  27   1     0.00   0.00  -0.01     0.01   0.01  -0.05    -0.00  -0.00   0.01
  28   1    -0.02   0.02   0.01    -0.09   0.08   0.04     0.01  -0.01  -0.01
  29   1     0.01  -0.00  -0.01     0.03  -0.01  -0.06    -0.00   0.00   0.01
  30   1    -0.02  -0.01   0.03    -0.01   0.00  -0.01     0.00   0.15  -0.10
  31   1    -0.01   0.02  -0.01    -0.02   0.04   0.01     0.04   0.14  -0.10
  32   1    -0.00  -0.02   0.02     0.00   0.00  -0.00    -0.00   0.01  -0.00
  33   1    -0.01  -0.01   0.02     0.00   0.00  -0.00     0.00   0.00  -0.00
  34   1    -0.05   0.02   0.02     0.01  -0.00  -0.00     0.01  -0.00  -0.00
  35   1    -0.04   0.02   0.02     0.01  -0.01  -0.00     0.00  -0.00  -0.00
  36   1     0.04   0.04  -0.05    -0.01  -0.01   0.01    -0.01  -0.00   0.01
  37   1     0.01   0.00   0.01    -0.00  -0.00  -0.00    -0.00   0.00   0.00
  38   1    -0.00   0.08   0.06     0.00  -0.02  -0.01    -0.00   0.00  -0.00
  39   1    -0.01  -0.03  -0.00     0.00   0.01   0.00    -0.00  -0.00  -0.00
  40   1    -0.03  -0.03   0.01     0.01   0.01  -0.00    -0.00  -0.00  -0.00
  41   1     0.07   0.01  -0.03    -0.02  -0.00   0.01     0.01   0.00  -0.00
                     43                     44                     45
                        a                      a                      a 
 Frequencies --   701.0538               721.7955               747.0101
 Red. masses --    16.5934                19.9149                24.1000
 Frc consts  --     0.0000                 0.0000                 0.0000
 IR Inten    --    73.0906               221.0711               217.8864
 Raman Activ --     0.0000                 0.0000                 0.0000
 Depolar     --     0.0000                 0.0000                 0.0000
 Atom AN      X      Y      Z        X      Y      Z        X      Y      Z
   1   6    -0.01  -0.01  -0.00     0.06   0.11   0.01     0.01   0.03   0.01
   2   6     0.01  -0.02  -0.03    -0.08   0.23   0.24    -0.02   0.09   0.10
   3   8     0.04  -0.02  -0.01    -0.51   0.07  -0.00    -0.08   0.02  -0.02
   4  15    -0.05   0.01   0.17     0.44  -0.27  -0.34    -0.31  -0.62  -0.01
   5  16    -0.02  -0.03  -0.02     0.02   0.09   0.04     0.16   0.30   0.13
   6   8     0.11   0.06  -0.05    -0.18  -0.10   0.07     0.31   0.22  -0.09
   7   6    -0.03   0.05  -0.08     0.03  -0.07   0.09    -0.05   0.13  -0.17
   8   6     0.00  -0.00  -0.02    -0.00   0.00   0.03     0.01  -0.01  -0.06
   9  16     0.10  -0.30  -0.11     0.03  -0.10  -0.02     0.02   0.03   0.04
  10   6    -0.43   0.40   0.52    -0.09   0.14   0.06     0.05  -0.00  -0.07
  11  16     0.13  -0.00  -0.30     0.01  -0.00  -0.03    -0.02  -0.01   0.04
  12  15     0.02   0.09   0.05     0.03  -0.02   0.01    -0.10   0.12  -0.05
  13  16    -0.01  -0.00  -0.03    -0.00   0.00  -0.01     0.02  -0.00   0.04
  14   8    -0.00  -0.02  -0.01    -0.01  -0.01   0.02     0.03   0.02  -0.04
  15   6    -0.01   0.00  -0.00    -0.00   0.01  -0.00     0.01  -0.03   0.01
  16   6    -0.00   0.00  -0.00    -0.00   0.00   0.00     0.01  -0.00  -0.00
  17   8     0.03  -0.03   0.03    -0.01   0.01  -0.01     0.08  -0.05   0.08
  18   6     0.01  -0.05  -0.02    -0.00   0.01   0.00     0.02  -0.08  -0.03
  19   6    -0.01  -0.01  -0.00     0.00   0.00   0.00    -0.02  -0.02  -0.00
  20   1     0.00   0.01   0.00     0.02  -0.03  -0.02    -0.01  -0.03  -0.00
  21   1     0.00   0.00   0.00    -0.02  -0.05   0.01    -0.01  -0.02  -0.01
  22   1    -0.01  -0.01   0.01     0.10   0.09  -0.07     0.04   0.04  -0.04
  23   1     0.00  -0.00  -0.01     0.06   0.00   0.00    -0.01   0.01   0.02
  24   1    -0.00  -0.01  -0.01     0.01   0.09   0.19    -0.00   0.03   0.03
  25   1    -0.04   0.01  -0.04     0.08  -0.02   0.06    -0.15   0.03  -0.10
  26   1    -0.00  -0.01   0.01    -0.01   0.04  -0.02     0.01  -0.07   0.04
  27   1    -0.00  -0.01   0.02     0.00   0.02  -0.03     0.00  -0.03   0.04
  28   1     0.04  -0.03  -0.02    -0.05   0.05   0.03     0.09  -0.09  -0.05
  29   1    -0.01   0.01   0.02     0.03  -0.01  -0.04    -0.05   0.02   0.07
  30   1    -0.04   0.16   0.09    -0.01   0.05   0.01    -0.00  -0.04  -0.02
  31   1    -0.05   0.04   0.18    -0.01   0.02   0.03    -0.00   0.02  -0.04
  32   1     0.00  -0.00   0.00     0.00   0.00  -0.00     0.00  -0.01   0.01
  33   1    -0.00   0.00  -0.00     0.00  -0.00  -0.00    -0.00  -0.00   0.00
  34   1    -0.00  -0.00   0.00     0.00  -0.00  -0.00    -0.01   0.00   0.00
  35   1     0.00   0.00  -0.00     0.00  -0.00  -0.00    -0.01   0.01   0.00
  36   1    -0.00  -0.00   0.00    -0.01  -0.00   0.01     0.01   0.01  -0.02
  37   1    -0.00  -0.00  -0.00     0.00  -0.00   0.00    -0.01   0.01  -0.00
  38   1     0.00  -0.02  -0.01    -0.00   0.01   0.01     0.00  -0.04  -0.04
  39   1     0.00   0.01   0.00     0.00  -0.00   0.00    -0.00   0.01   0.00
  40   1     0.01   0.01  -0.00    -0.00  -0.00   0.00     0.01   0.01  -0.01
  41   1    -0.02  -0.00   0.01     0.01   0.00  -0.00    -0.04  -0.01   0.02
                     46                     47                     48
                        a                      a                      a 
 Frequencies --   755.8762               786.7779               805.5119
 Red. masses --    19.9657                19.8925                 5.8925
 Frc consts  --     0.0000                 0.0000                 0.0000
 IR Inten    --   195.4921               283.8505                 4.6081
 Raman Activ --     0.0000                 0.0000                 0.0000
 Depolar     --     0.0000                 0.0000                 0.0000
 Atom AN      X      Y      Z        X      Y      Z        X      Y      Z
   1   6    -0.00   0.00   0.00    -0.00  -0.00  -0.00    -0.00  -0.01   0.00
   2   6     0.00   0.01   0.01     0.00  -0.01  -0.01     0.00  -0.01  -0.01
   3   8     0.01   0.00  -0.00     0.01   0.00   0.00     0.02   0.01   0.02
   4  15    -0.11  -0.15   0.02     0.01   0.02  -0.00    -0.02  -0.03  -0.03
   5  16     0.04   0.07   0.03    -0.00  -0.01  -0.00     0.00   0.00   0.00
   6   8     0.10   0.07  -0.03    -0.01  -0.01   0.01     0.00   0.00   0.00
   7   6    -0.01   0.04  -0.05     0.00  -0.00   0.00     0.00   0.00  -0.00
   8   6     0.00  -0.01  -0.02     0.00   0.00   0.00    -0.00   0.00  -0.00
   9  16     0.02  -0.01   0.01    -0.00   0.02   0.00     0.10   0.07   0.10
  10   6    -0.01   0.02   0.02    -0.03  -0.04   0.02    -0.43  -0.15  -0.30
  11  16    -0.01   0.00  -0.03     0.03   0.02  -0.00     0.09   0.05   0.11
  12  15     0.41  -0.42   0.13     0.13   0.10  -0.59    -0.01  -0.03  -0.01
  13  16    -0.05   0.01  -0.12     0.07  -0.01   0.18    -0.00   0.00  -0.01
  14   8    -0.14  -0.08   0.21    -0.22  -0.23   0.47     0.01   0.03  -0.02
  15   6    -0.06   0.13  -0.03    -0.10   0.26  -0.04     0.02  -0.02   0.01
  16   6    -0.03   0.02   0.01    -0.06   0.07   0.01     0.01  -0.01   0.00
  17   8    -0.32   0.18  -0.30     0.08  -0.06   0.14    -0.00   0.01  -0.00
  18   6    -0.06   0.30   0.08     0.03  -0.08  -0.01    -0.00   0.00   0.00
  19   6     0.08   0.08   0.00    -0.03  -0.03  -0.00     0.00  -0.00   0.00
  20   1    -0.00  -0.01  -0.00     0.00   0.00   0.00    -0.01  -0.00   0.00
  21   1    -0.00  -0.00  -0.00    -0.00  -0.00   0.00     0.00   0.01  -0.01
  22   1     0.00   0.01  -0.01    -0.00  -0.00   0.00    -0.00  -0.00   0.00
  23   1    -0.00   0.00   0.00     0.00   0.00  -0.00    -0.01   0.00   0.01
  24   1    -0.00   0.00  -0.01    -0.00  -0.00  -0.00     0.00   0.00  -0.01
  25   1    -0.04   0.01  -0.03     0.00   0.00   0.00    -0.01   0.00   0.00
  26   1     0.00  -0.02   0.02     0.00  -0.00  -0.00     0.00  -0.01   0.00
  27   1    -0.00  -0.00   0.02     0.00  -0.00  -0.00     0.00  -0.01  -0.00
  28   1     0.03  -0.03  -0.02    -0.00   0.00   0.00     0.00  -0.00  -0.00
  29   1    -0.01   0.01   0.02    -0.00  -0.00  -0.00    -0.01   0.00   0.00
  30   1    -0.00  -0.00   0.00     0.01   0.01  -0.00     0.26   0.47  -0.20
  31   1    -0.01   0.01   0.01     0.00  -0.02   0.01     0.15  -0.40   0.37
  32   1    -0.00   0.03  -0.03     0.01   0.07  -0.09    -0.00   0.00  -0.00
  33   1     0.00  -0.00  -0.02    -0.01  -0.03  -0.03    -0.00  -0.01   0.00
  34   1     0.05  -0.02  -0.03     0.13  -0.05  -0.08    -0.00   0.00  -0.00
  35   1     0.04  -0.03  -0.02     0.08  -0.07  -0.05    -0.01   0.00   0.01
  36   1    -0.07  -0.05   0.08    -0.16  -0.10   0.17     0.01   0.01  -0.01
  37   1     0.06  -0.05   0.01    -0.03   0.03  -0.00    -0.00   0.00   0.00
  38   1    -0.03   0.14   0.17     0.01  -0.05  -0.07     0.00   0.00   0.00
  39   1     0.03  -0.05  -0.00    -0.02   0.02  -0.00    -0.00  -0.00   0.00
  40   1    -0.06  -0.05   0.03     0.02   0.02  -0.01     0.00  -0.00  -0.00
  41   1     0.15   0.02  -0.05    -0.05  -0.01   0.02     0.00   0.00  -0.00
                     49                     50                     51
                        a                      a                      a 
 Frequencies --   820.8607               821.2530               825.6363
 Red. masses --     2.7686                 2.6186                 2.7886
 Frc consts  --     0.0000                 0.0000                 0.0000
 IR Inten    --     5.4115                 3.3891                 0.4630
 Raman Activ --     0.0000                 0.0000                 0.0000
 Depolar     --     0.0000                 0.0000                 0.0000
 Atom AN      X      Y      Z        X      Y      Z        X      Y      Z
   1   6     0.07  -0.02   0.04     0.05  -0.01   0.03     0.04  -0.01   0.02
   2   6     0.15  -0.07   0.11     0.12  -0.05   0.08     0.10  -0.04   0.06
   3   8    -0.11   0.01  -0.04    -0.07  -0.00  -0.03    -0.07   0.01  -0.03
   4  15     0.06   0.03  -0.03    -0.03  -0.04   0.02     0.03   0.02  -0.01
   5  16    -0.01  -0.01  -0.00     0.00   0.01   0.01    -0.00  -0.00  -0.00
   6   8    -0.08  -0.07  -0.00     0.13   0.10   0.02    -0.03  -0.03   0.00
   7   6     0.10   0.10   0.02    -0.17  -0.16  -0.04     0.03   0.03   0.01
   8   6     0.04   0.04   0.01    -0.06  -0.07  -0.02     0.01   0.01   0.01
   9  16     0.01  -0.02  -0.00     0.01  -0.00  -0.00     0.00  -0.01  -0.00
  10   6     0.00   0.02   0.01    -0.00   0.00   0.00     0.00   0.00  -0.00
  11  16    -0.00   0.00  -0.00    -0.00  -0.00   0.00    -0.00  -0.01   0.00
  12  15     0.02  -0.03   0.03     0.01  -0.00   0.00    -0.03   0.04  -0.05
  13  16    -0.00  -0.00  -0.01    -0.00  -0.00  -0.00     0.00  -0.00   0.01
  14   8    -0.00  -0.00  -0.00    -0.00   0.00   0.00     0.01  -0.00   0.03
  15   6     0.00   0.00   0.00     0.00  -0.00  -0.00    -0.03  -0.01  -0.04
  16   6     0.00   0.00   0.00     0.00  -0.00  -0.00    -0.01  -0.01  -0.02
  17   8    -0.06   0.01  -0.08    -0.01   0.01  -0.01     0.10  -0.01   0.14
  18   6     0.05  -0.02   0.12     0.01  -0.01   0.03    -0.09   0.03  -0.22
  19   6     0.03  -0.01   0.04     0.00  -0.01   0.01    -0.07   0.02  -0.08
  20   1    -0.27  -0.12   0.08    -0.20  -0.09   0.06    -0.17  -0.08   0.05
  21   1     0.08   0.24  -0.19     0.06   0.17  -0.14     0.05   0.15  -0.11
  22   1    -0.09   0.05  -0.05    -0.06   0.04  -0.04    -0.05   0.03  -0.03
  23   1    -0.30  -0.04   0.17    -0.22  -0.03   0.12    -0.19  -0.02   0.10
  24   1     0.06   0.19  -0.29     0.05   0.14  -0.22     0.04   0.12  -0.19
  25   1    -0.23   0.05   0.04     0.39  -0.08  -0.07    -0.07   0.02   0.02
  26   1     0.10  -0.22  -0.03    -0.17   0.36   0.04     0.03  -0.07  -0.01
  27   1     0.08  -0.19  -0.10    -0.13   0.31   0.17     0.02  -0.06  -0.03
  28   1    -0.06  -0.05   0.01     0.11   0.08  -0.02    -0.02  -0.01   0.00
  29   1    -0.19   0.05   0.09     0.31  -0.08  -0.16    -0.06   0.01   0.03
  30   1    -0.01  -0.01   0.01     0.00  -0.00  -0.00    -0.00   0.00   0.00
  31   1    -0.00   0.01  -0.01     0.00   0.00  -0.00     0.00  -0.00  -0.00
  32   1     0.00   0.00  -0.01    -0.00  -0.00   0.00    -0.01  -0.03   0.09
  33   1    -0.01  -0.01   0.00     0.00   0.00  -0.00     0.06   0.06  -0.03
  34   1     0.00   0.00  -0.01    -0.00  -0.00   0.00    -0.03  -0.01   0.07
  35   1    -0.01  -0.00   0.00     0.00   0.00  -0.00     0.07   0.03  -0.03
  36   1    -0.00  -0.00  -0.00     0.00   0.00   0.00     0.01   0.01   0.03
  37   1    -0.21   0.07   0.03    -0.05   0.02   0.01     0.39  -0.12  -0.05
  38   1     0.13   0.03  -0.18     0.04   0.01  -0.05    -0.24  -0.06   0.33
  39   1    -0.20  -0.01  -0.00    -0.05  -0.00  -0.00     0.37   0.02   0.00
  40   1     0.14   0.07  -0.13     0.04   0.02  -0.03    -0.26  -0.13   0.24
  41   1    -0.02   0.03  -0.06    -0.01   0.01  -0.01     0.03  -0.06   0.12
                     52                     53                     54
                        a                      a                      a 
 Frequencies --   827.8860               906.4391               917.2626
 Red. masses --     2.1645                12.7943                13.0187
 Frc consts  --     0.0000                 0.0000                 0.0000
 IR Inten    --     5.3185               369.5407               294.6708
 Raman Activ --     0.0000                 0.0000                 0.0000
 Depolar     --     0.0000                 0.0000                 0.0000
 Atom AN      X      Y      Z        X      Y      Z        X      Y      Z
   1   6    -0.01   0.00  -0.00    -0.11  -0.24  -0.04    -0.01  -0.01  -0.00
   2   6    -0.02   0.01  -0.01     0.04  -0.16  -0.28     0.01  -0.01  -0.01
   3   8     0.01  -0.00   0.00    -0.09   0.50   0.35    -0.00   0.02   0.01
   4  15    -0.01  -0.00   0.00     0.15  -0.10  -0.13     0.02   0.01  -0.03
   5  16     0.00   0.00   0.00     0.01  -0.01  -0.00     0.00   0.00   0.00
   6   8     0.00   0.00   0.00     0.02  -0.05   0.34     0.00  -0.02   0.13
   7   6    -0.00  -0.00  -0.00    -0.11   0.06  -0.17    -0.05   0.02  -0.06
   8   6    -0.00  -0.00  -0.00     0.03  -0.04  -0.14     0.01  -0.01  -0.06
   9  16     0.00   0.00   0.00    -0.00  -0.00  -0.01    -0.00   0.01  -0.00
  10   6    -0.01  -0.01  -0.00     0.01   0.02   0.01    -0.01  -0.01  -0.01
  11  16     0.00   0.00   0.00    -0.00  -0.00  -0.00     0.00   0.02   0.01
  12  15     0.03  -0.00  -0.03     0.02  -0.02   0.00    -0.16   0.18   0.03
  13  16     0.00  -0.00   0.01    -0.00   0.00  -0.00     0.00  -0.00   0.01
  14   8     0.04   0.00   0.11    -0.04   0.03   0.01     0.30  -0.22  -0.12
  15   6    -0.15  -0.08  -0.18     0.01  -0.02   0.01    -0.10   0.18  -0.05
  16   6    -0.07  -0.04  -0.08     0.01  -0.01  -0.01    -0.11   0.06   0.05
  17   8    -0.03  -0.00  -0.02     0.01   0.08   0.01    -0.04  -0.57  -0.10
  18   6     0.02  -0.01   0.05     0.01  -0.03  -0.02    -0.05   0.25   0.18
  19   6     0.01  -0.01   0.02    -0.02  -0.03  -0.00     0.16   0.20   0.02
  20   1     0.03   0.01  -0.01     0.02   0.09   0.02    -0.01   0.00   0.00
  21   1    -0.01  -0.02   0.02     0.03   0.08   0.04     0.00   0.00   0.00
  22   1     0.01  -0.00   0.00    -0.21  -0.20   0.18    -0.01  -0.01   0.01
  23   1     0.03   0.00  -0.02     0.02   0.07  -0.03    -0.00   0.00   0.00
  24   1    -0.01  -0.02   0.03     0.06   0.09  -0.02     0.00   0.01  -0.01
  25   1     0.01  -0.00  -0.00    -0.04   0.03   0.03    -0.01   0.01   0.02
  26   1    -0.00   0.01   0.00    -0.03   0.00   0.01    -0.01   0.00   0.00
  27   1    -0.00   0.01   0.00    -0.01   0.00   0.04    -0.00  -0.00   0.02
  28   1     0.00   0.00  -0.00     0.12  -0.11  -0.08     0.05  -0.05  -0.03
  29   1     0.01  -0.00  -0.00    -0.00   0.01   0.05     0.00   0.00   0.02
  30   1     0.00   0.01  -0.00    -0.01  -0.01   0.01     0.00   0.01  -0.00
  31   1     0.00  -0.01   0.00    -0.00   0.01  -0.01     0.01  -0.01   0.00
  32   1    -0.08  -0.13   0.46    -0.00  -0.00   0.00     0.03   0.01  -0.03
  33   1     0.32   0.33  -0.16    -0.00  -0.00   0.00     0.00   0.01  -0.02
  34   1    -0.16  -0.03   0.39    -0.01   0.00   0.00     0.05  -0.02  -0.02
  35   1     0.37   0.17  -0.16    -0.00   0.00   0.00     0.03  -0.03  -0.02
  36   1     0.07   0.06   0.13     0.02   0.01  -0.02    -0.12  -0.06   0.12
  37   1    -0.08   0.03   0.01     0.00   0.00  -0.00    -0.03  -0.03   0.03
  38   1     0.05   0.01  -0.07     0.01   0.01  -0.00    -0.10  -0.06   0.03
  39   1    -0.08  -0.00  -0.00     0.00   0.01   0.00    -0.03  -0.08  -0.00
  40   1     0.05   0.03  -0.05     0.01   0.01   0.00    -0.06  -0.08  -0.01
  41   1    -0.01   0.01  -0.02    -0.04  -0.01   0.01     0.31   0.05  -0.12
                     55                     56                     57
                        a                      a                      a 
 Frequencies --   922.1990               942.7083              1037.6659
 Red. masses --    12.0683                12.0103                 8.3930
 Frc consts  --     0.0000                 0.0000                 0.0000
 IR Inten    --   137.5521               152.3229               254.9965
 Raman Activ --     0.0000                 0.0000                 0.0000
 Depolar     --     0.0000                 0.0000                 0.0000
 Atom AN      X      Y      Z        X      Y      Z        X      Y      Z
   1   6     0.07   0.15   0.02    -0.00  -0.01  -0.00     0.13   0.29   0.05
   2   6    -0.04   0.07   0.15     0.01  -0.00  -0.01    -0.13  -0.39  -0.14
   3   8     0.08  -0.27  -0.20    -0.00   0.01   0.01    -0.03   0.17   0.18
   4  15     0.01   0.16  -0.05    -0.00  -0.00   0.00     0.01  -0.02  -0.00
   5  16    -0.01  -0.01  -0.00     0.00  -0.00  -0.00     0.00  -0.01  -0.00
   6   8    -0.02  -0.11   0.59     0.00   0.00  -0.02     0.08  -0.03   0.16
   7   6    -0.19   0.11  -0.25     0.01  -0.00   0.01     0.04  -0.06  -0.36
   8   6     0.06  -0.06  -0.26    -0.00   0.00   0.01    -0.09   0.08   0.25
   9  16    -0.01   0.02  -0.02    -0.00  -0.00  -0.00    -0.00   0.00  -0.01
  10   6     0.00  -0.02   0.00    -0.00  -0.00   0.02     0.00   0.00   0.00
  11  16     0.00   0.00  -0.00     0.01   0.01  -0.01    -0.00  -0.00  -0.00
  12  15     0.03  -0.03  -0.01     0.07   0.07  -0.17     0.00  -0.00   0.00
  13  16    -0.00   0.00  -0.00     0.01  -0.00   0.02    -0.00   0.00  -0.00
  14   8    -0.06   0.05   0.02    -0.46   0.33   0.20    -0.02   0.03  -0.01
  15   6     0.02  -0.04   0.01     0.09  -0.25   0.10     0.06  -0.04  -0.02
  16   6     0.02  -0.01  -0.01     0.22  -0.12  -0.10    -0.05   0.02   0.03
  17   8     0.01   0.07   0.01     0.02  -0.36  -0.05    -0.00   0.06   0.03
  18   6     0.01  -0.03  -0.02    -0.06   0.10   0.11    -0.06  -0.10  -0.02
  19   6    -0.02  -0.03  -0.00     0.13   0.15   0.01     0.06   0.06   0.00
  20   1    -0.01  -0.05  -0.02    -0.00   0.00   0.00    -0.00  -0.10  -0.04
  21   1    -0.02  -0.05  -0.02     0.00   0.00   0.00    -0.04  -0.08  -0.06
  22   1     0.14   0.12  -0.11    -0.01  -0.00   0.00     0.23   0.22  -0.19
  23   1    -0.01  -0.04   0.01    -0.00   0.00   0.00    -0.09  -0.12  -0.01
  24   1    -0.04  -0.07   0.02     0.00   0.00  -0.00    -0.06  -0.15  -0.03
  25   1    -0.06   0.05   0.08     0.00  -0.00  -0.00     0.04  -0.03  -0.13
  26   1    -0.05   0.00   0.01     0.00  -0.00  -0.00     0.03  -0.06  -0.12
  27   1    -0.01  -0.01   0.08     0.00  -0.00  -0.00    -0.00   0.02  -0.07
  28   1     0.23  -0.22  -0.15    -0.01   0.01   0.00    -0.19   0.18   0.13
  29   1    -0.01   0.02   0.10     0.00  -0.00  -0.00    -0.03  -0.00  -0.07
  30   1     0.01  -0.00  -0.00    -0.00  -0.01   0.00    -0.01   0.00   0.01
  31   1    -0.00  -0.00   0.00    -0.01   0.01   0.00     0.00  -0.00  -0.01
  32   1    -0.01  -0.00   0.01    -0.08   0.00   0.06     0.02  -0.01  -0.02
  33   1    -0.00  -0.00   0.01    -0.05  -0.00   0.05     0.03  -0.01  -0.01
  34   1    -0.01   0.00   0.00    -0.09   0.04   0.03     0.01  -0.01   0.00
  35   1    -0.01   0.01   0.00    -0.07   0.06   0.04     0.01  -0.01  -0.00
  36   1     0.02   0.01  -0.03     0.23   0.11  -0.24    -0.04  -0.02   0.04
  37   1     0.00   0.00  -0.00    -0.04  -0.03   0.02    -0.04  -0.02  -0.00
  38   1     0.01   0.01  -0.00    -0.08  -0.06   0.01    -0.03  -0.04  -0.00
  39   1     0.00   0.01   0.00    -0.02  -0.06  -0.01    -0.01  -0.03  -0.00
  40   1     0.01   0.01   0.00    -0.04  -0.06  -0.01    -0.01  -0.02  -0.01
  41   1    -0.04  -0.01   0.02     0.24   0.04  -0.09     0.09   0.02  -0.04
                     58                     59                     60
                        a                      a                      a 
 Frequencies --  1039.2317              1045.1159              1053.0117
 Red. masses --     8.4505                 9.0376                 9.7808
 Frc consts  --     0.0000                 0.0000                 0.0000
 IR Inten    --   156.5345                96.3315                76.6253
 Raman Activ --     0.0000                 0.0000                 0.0000
 Depolar     --     0.0000                 0.0000                 0.0000
 Atom AN      X      Y      Z        X      Y      Z        X      Y      Z
   1   6     0.03   0.07   0.01     0.11   0.24   0.03     0.00  -0.00  -0.00
   2   6    -0.03  -0.09  -0.04    -0.12  -0.34  -0.12    -0.00   0.00   0.00
   3   8    -0.01   0.04   0.05    -0.04   0.16   0.18     0.00  -0.00  -0.00
   4  15     0.00  -0.01  -0.00     0.02  -0.01  -0.01     0.00   0.00  -0.00
   5  16     0.00  -0.00  -0.00    -0.00  -0.01  -0.00    -0.00   0.00  -0.00
   6   8     0.02  -0.01   0.04    -0.08   0.05  -0.25    -0.00   0.00  -0.00
   7   6     0.01  -0.02  -0.09    -0.05   0.08   0.47    -0.01   0.01   0.01
   8   6    -0.02   0.02   0.06     0.11  -0.10  -0.29     0.01  -0.01  -0.01
   9  16     0.00   0.00  -0.00     0.01  -0.01   0.01     0.00   0.00   0.00
  10   6    -0.00  -0.00   0.00     0.00   0.01   0.00    -0.00   0.00  -0.00
  11  16     0.00   0.01   0.00    -0.00  -0.00  -0.00    -0.01  -0.01   0.00
  12  15     0.00   0.01  -0.01    -0.00   0.00  -0.00     0.01  -0.03   0.01
  13  16    -0.00   0.00   0.00     0.00  -0.00   0.00     0.00  -0.00   0.00
  14   8     0.08  -0.14   0.04    -0.00   0.00   0.00     0.18  -0.24   0.02
  15   6    -0.29   0.16   0.11     0.00  -0.00  -0.00    -0.42   0.22   0.17
  16   6     0.23  -0.07  -0.13    -0.00   0.00   0.00     0.29  -0.05  -0.19
  17   8    -0.00  -0.24  -0.11     0.00  -0.01  -0.00    -0.02   0.26   0.10
  18   6     0.23   0.38   0.08     0.00   0.01   0.00    -0.18  -0.31  -0.08
  19   6    -0.22  -0.24  -0.01    -0.00  -0.00   0.00     0.15   0.17   0.01
  20   1    -0.00  -0.03  -0.01     0.00  -0.07  -0.03     0.00   0.00   0.00
  21   1    -0.01  -0.02  -0.02    -0.02  -0.05  -0.05     0.00   0.00   0.00
  22   1     0.05   0.05  -0.04     0.18   0.17  -0.15     0.00  -0.00   0.00
  23   1    -0.02  -0.03  -0.00    -0.08  -0.10  -0.01     0.00   0.00   0.00
  24   1    -0.01  -0.04  -0.01    -0.05  -0.12  -0.02    -0.00   0.00   0.00
  25   1     0.01  -0.01  -0.03    -0.05   0.04   0.15    -0.00   0.00   0.00
  26   1     0.01  -0.02  -0.03    -0.04   0.07   0.16    -0.00   0.00   0.00
  27   1    -0.00   0.01  -0.02     0.00  -0.02   0.08     0.00  -0.00  -0.00
  28   1    -0.05   0.04   0.03     0.23  -0.20  -0.15     0.01  -0.00  -0.00
  29   1    -0.01  -0.00  -0.02     0.04  -0.00   0.08     0.00  -0.00  -0.00
[...]
  33   1     0.00   0.00   0.00     0.00   0.00   0.00     0.00  -0.00   0.00
  34   1     0.00   0.00   0.00    -0.00  -0.00  -0.00     0.00  -0.00  -0.00
  35   1     0.00  -0.00   0.00     0.00  -0.00   0.00    -0.00   0.00  -0.00
  36   1     0.00  -0.00  -0.00    -0.00   0.00   0.00    -0.00   0.00   0.00
  37   1     0.00   0.00  -0.00     0.00  -0.00  -0.00    -0.00  -0.00   0.00
  38   1    -0.00   0.00  -0.00    -0.00   0.00  -0.00     0.01  -0.00   0.00
  39   1     0.00  -0.00  -0.00    -0.00  -0.00   0.00     0.00  -0.00  -0.00
  40   1     0.00  -0.00  -0.00     0.00  -0.00   0.00    -0.00   0.00  -0.00
  41   1     0.00   0.00   0.00    -0.00   0.00   0.00     0.00   0.00   0.00
                    103                    104                    105
                        a                      a                      a 
 Frequencies --  2975.0381              2976.8354              2985.8736
 Red. masses --     1.7272                 1.7333                 2.0594
 Frc consts  --     0.0000                 0.0000                 0.0000
 IR Inten    --    10.8478                 6.4510                 8.8743
 Raman Activ --     0.0000                 0.0000                 0.0000
 Depolar     --     0.0000                 0.0000                 0.0000
 Atom AN      X      Y      Z        X      Y      Z        X      Y      Z
   1   6    -0.02   0.01   0.00     0.00   0.00  -0.00    -0.00  -0.00   0.00
   2   6     0.23  -0.08  -0.04     0.04  -0.02  -0.01     0.00  -0.00  -0.00
   3   8     0.00  -0.01  -0.01     0.00  -0.00  -0.00    -0.00  -0.00  -0.00
   4  15    -0.00   0.00   0.00    -0.00   0.00   0.00     0.00   0.00   0.00
   5  16     0.00  -0.00   0.00     0.00   0.00   0.00     0.00   0.00   0.00
   6   8    -0.00   0.00   0.00    -0.00  -0.00   0.00    -0.00  -0.00   0.00
   7   6    -0.00  -0.00   0.00     0.00  -0.00   0.00    -0.00  -0.00   0.00
   8   6     0.00   0.00  -0.00     0.00   0.00  -0.00    -0.00   0.00  -0.00
   9  16    -0.00   0.00   0.00    -0.00   0.00   0.00    -0.00   0.00  -0.00
  10   6    -0.00  -0.00   0.00     0.00   0.00  -0.00    -0.26  -0.05  -0.16
  11  16    -0.00  -0.00   0.00    -0.00  -0.00  -0.00    -0.00  -0.00  -0.00
  12  15    -0.00   0.00  -0.00     0.00  -0.00   0.00     0.00   0.00  -0.00
  13  16     0.00   0.00  -0.00     0.00  -0.00   0.00     0.00   0.00   0.00
  14   8     0.00   0.00  -0.00    -0.00   0.00  -0.00    -0.00  -0.00  -0.00
  15   6     0.00   0.00   0.00    -0.00  -0.00  -0.00     0.00   0.00  -0.00
  16   6     0.00  -0.00  -0.00     0.00   0.00   0.00    -0.00  -0.00  -0.00
  17   8     0.00  -0.00  -0.00    -0.00   0.01   0.00    -0.00   0.00  -0.00
  18   6     0.03  -0.03   0.02    -0.18   0.15  -0.08    -0.00   0.00  -0.00
  19   6    -0.00   0.00  -0.00     0.02  -0.02   0.01    -0.00   0.00   0.00
  20   1     0.00  -0.00   0.01     0.00  -0.00   0.01    -0.00   0.00  -0.00
  21   1     0.10  -0.04  -0.01    -0.01   0.00   0.00     0.00  -0.00  -0.00
  22   1    -0.00  -0.01  -0.01    -0.00  -0.00  -0.00    -0.00   0.00   0.00
  23   1     0.04  -0.02   0.02     0.01  -0.00  -0.00     0.00  -0.00   0.00
  24   1    -0.87   0.34   0.14    -0.16   0.06   0.02    -0.00   0.00   0.00
  25   1     0.00   0.00  -0.00     0.00   0.00  -0.00     0.00   0.00  -0.00
  26   1     0.00   0.00   0.00    -0.00  -0.00  -0.00    -0.00  -0.00  -0.00
  27   1    -0.00  -0.00  -0.00    -0.00  -0.00  -0.00     0.00   0.00   0.00
  28   1     0.00   0.00   0.00     0.00  -0.00   0.00     0.00  -0.00   0.00
  29   1    -0.00  -0.00   0.00    -0.00  -0.00   0.00    -0.00  -0.00   0.00
  30   1    -0.01   0.00  -0.01     0.00  -0.00   0.00     0.47  -0.22   0.53
  31   1     0.01   0.01   0.00    -0.00  -0.00  -0.00     0.44   0.40   0.05
  32   1    -0.00  -0.00  -0.00     0.00   0.00   0.00    -0.00  -0.00  -0.00
  33   1    -0.00   0.00  -0.00     0.00  -0.00   0.00     0.00  -0.00   0.00
  34   1     0.00   0.00  -0.00    -0.00  -0.00  -0.00     0.00   0.00   0.00
  35   1     0.00  -0.00   0.00     0.00   0.00  -0.00     0.00  -0.00   0.00
  36   1    -0.00   0.00  -0.00     0.00  -0.00   0.00    -0.00   0.00  -0.00
  37   1     0.00  -0.00   0.00    -0.02   0.02  -0.02     0.00  -0.00   0.00
  38   1    -0.12   0.10  -0.05     0.67  -0.59   0.30     0.00  -0.00   0.00
  39   1    -0.00   0.00   0.00     0.00  -0.00  -0.02    -0.00  -0.00  -0.00
  40   1     0.02  -0.01   0.01    -0.09   0.08  -0.04     0.00  -0.00   0.00
  41   1    -0.00  -0.00  -0.00     0.01   0.01   0.01    -0.00   0.00   0.00
                    106                    107                    108
                        a                      a                      a 
 Frequencies --  3020.0767              3032.8527              3037.0248
 Red. masses --     1.7562                 1.7788                 1.8401
 Frc consts  --     0.0000                 0.0000                 0.0000
 IR Inten    --    43.3838                38.9489                37.8674
 Raman Activ --     0.0000                 0.0000                 0.0000
 Depolar     --     0.0000                 0.0000                 0.0000
 Atom AN      X      Y      Z        X      Y      Z        X      Y      Z
   1   6    -0.00   0.00   0.00    -0.24   0.10   0.01     0.01  -0.00   0.00
   2   6    -0.00   0.00  -0.00    -0.03   0.01  -0.00     0.00  -0.00   0.00
   3   8     0.00   0.00  -0.00     0.00   0.00   0.00    -0.00   0.00   0.00
   4  15    -0.00  -0.00  -0.00    -0.00  -0.00  -0.00    -0.00   0.00   0.00
   5  16     0.00   0.00  -0.00    -0.00  -0.00  -0.00     0.00   0.00  -0.00
   6   8     0.00   0.00   0.00     0.00   0.00   0.00     0.00  -0.00  -0.00
   7   6    -0.00   0.00  -0.00     0.00   0.00  -0.00     0.01   0.03  -0.00
   8   6     0.00   0.00  -0.00     0.00   0.01  -0.00     0.09   0.25  -0.03
   9  16     0.00  -0.00   0.00     0.00   0.00   0.00     0.00   0.00   0.00
  10   6    -0.00   0.00  -0.00     0.00   0.00  -0.00     0.00  -0.00   0.00
  11  16     0.00   0.00  -0.00    -0.00  -0.00  -0.00    -0.00   0.00  -0.00
  12  15     0.00   0.00   0.00    -0.00   0.00  -0.00    -0.00  -0.00  -0.00
  13  16    -0.00  -0.00   0.00     0.00  -0.00   0.00     0.00   0.00   0.00
  14   8    -0.00  -0.00  -0.00     0.00  -0.00  -0.00     0.00  -0.00  -0.00
  15   6     0.00   0.00  -0.00    -0.00   0.00   0.00     0.00   0.00   0.00
  16   6     0.00  -0.00   0.00    -0.00   0.00   0.00    -0.00   0.00  -0.00
  17   8    -0.00  -0.00   0.00     0.00   0.00   0.00     0.00   0.00   0.00
  18   6     0.03  -0.02   0.02    -0.01   0.00  -0.00     0.00  -0.00  -0.00
  19   6     0.17  -0.16   0.11    -0.00   0.00  -0.00    -0.00   0.00   0.00
  20   1    -0.00   0.00  -0.00     0.01  -0.02   0.10    -0.00   0.00  -0.01
  21   1     0.01  -0.00  -0.00     0.87  -0.36  -0.13    -0.03   0.01   0.00
  22   1    -0.00  -0.00  -0.00    -0.03   0.02  -0.00     0.00  -0.00  -0.00
  23   1     0.00  -0.00   0.00     0.01  -0.01   0.02    -0.00   0.00  -0.00
  24   1     0.00  -0.00  -0.00     0.09  -0.04  -0.01    -0.00   0.00   0.00
  25   1    -0.00  -0.00   0.00    -0.00  -0.00  -0.00    -0.01  -0.07   0.02
  26   1     0.00   0.00   0.00     0.00   0.00  -0.00    -0.02  -0.01  -0.00
  27   1    -0.01  -0.00  -0.00    -0.00   0.00  -0.00    -0.24  -0.04  -0.05
  28   1     0.00   0.00   0.00    -0.00   0.00  -0.00     0.01   0.04  -0.03
  29   1    -0.00  -0.00   0.00    -0.00  -0.03   0.01    -0.10  -0.90   0.20
  30   1     0.00  -0.00   0.00    -0.00   0.00  -0.00    -0.00   0.00  -0.00
  31   1    -0.00  -0.00  -0.00    -0.00   0.00   0.00     0.00   0.00  -0.00
  32   1    -0.00  -0.00  -0.00    -0.00  -0.00  -0.00    -0.00  -0.00  -0.00
  33   1     0.00  -0.00   0.00    -0.00   0.00   0.00    -0.00   0.00  -0.00
  34   1    -0.00  -0.00  -0.00    -0.00  -0.00  -0.00    -0.00  -0.00  -0.00
  35   1    -0.00   0.00  -0.01    -0.00   0.00  -0.00     0.00   0.00   0.00
  36   1    -0.00   0.00   0.00     0.00  -0.00   0.00     0.00  -0.00  -0.00
  37   1     0.00  -0.00  -0.02    -0.00   0.00  -0.01     0.00  -0.00   0.00
  38   1    -0.09   0.08  -0.04     0.02  -0.02   0.01    -0.00   0.00  -0.00
  39   1     0.02  -0.02  -0.05    -0.00   0.00   0.00     0.00   0.00  -0.00
  40   1    -0.66   0.60  -0.33     0.01  -0.01   0.00     0.00  -0.00   0.00
  41   1     0.02  -0.03   0.01     0.00   0.00   0.00     0.00   0.00   0.00
                    109                    110                    111
                        a                      a                      a 
 Frequencies --  3041.9497              3044.1734              3048.5947
 Red. masses --     1.6505                 1.5186                 1.6126
 Frc consts  --     0.0000                 0.0000                 0.0000
 IR Inten    --    21.6871                19.2926                15.2988
 Raman Activ --     0.0000                 0.0000                 0.0000
 Depolar     --     0.0000                 0.0000                 0.0000
 Atom AN      X      Y      Z        X      Y      Z        X      Y      Z
   1   6     0.07  -0.07   0.22     0.00  -0.00   0.01    -0.00   0.00  -0.00
   2   6     0.01  -0.01   0.02     0.00  -0.00   0.00    -0.00   0.00  -0.00
   3   8     0.00   0.00  -0.00    -0.00   0.00   0.00    -0.00   0.00   0.00
   4  15    -0.00  -0.00   0.00    -0.00   0.00  -0.00     0.00   0.00  -0.00
   5  16    -0.00  -0.00  -0.00     0.00  -0.00  -0.00    -0.00  -0.00  -0.00
   6   8    -0.00   0.00   0.00     0.00  -0.00   0.00    -0.00  -0.00   0.00
   7   6     0.00  -0.00  -0.00    -0.02  -0.00  -0.00    -0.00  -0.00   0.00
   8   6     0.01  -0.00   0.00    -0.21  -0.01  -0.02    -0.00  -0.00   0.00
   9  16     0.00   0.00   0.00     0.00   0.00   0.00     0.00   0.00   0.00
  10   6     0.00  -0.00   0.00     0.00  -0.00   0.00     0.00   0.00  -0.00
  11  16     0.00  -0.00   0.00    -0.00   0.00   0.00    -0.00  -0.00   0.00
  12  15    -0.00   0.00  -0.00     0.00   0.00  -0.00    -0.00  -0.00   0.00
  13  16     0.00  -0.00   0.00     0.00  -0.00   0.00     0.00  -0.00   0.00
  14   8     0.00  -0.00  -0.00    -0.00  -0.00   0.00     0.00   0.00  -0.00
  15   6     0.00   0.00   0.00    -0.00   0.00   0.00    -0.00  -0.00  -0.00
  16   6    -0.00   0.00  -0.00    -0.00  -0.00  -0.00    -0.00   0.00  -0.00
  17   8     0.00   0.00   0.00    -0.00  -0.00   0.00     0.00  -0.00  -0.00
  18   6    -0.00   0.00  -0.00    -0.00   0.00  -0.00     0.00  -0.00   0.02
  19   6    -0.00  -0.00   0.00     0.00  -0.00  -0.00    -0.03  -0.03   0.23
  20   1    -0.35   0.30  -0.84    -0.01   0.01  -0.03     0.00  -0.00   0.01
  21   1     0.11  -0.05   0.02    -0.00   0.00   0.00    -0.00   0.00   0.00
  22   1     0.01   0.02   0.05     0.00   0.00   0.00     0.00   0.00   0.00
  23   1    -0.02   0.02  -0.04    -0.00   0.00  -0.00     0.00  -0.00   0.00
  24   1    -0.00   0.00   0.00    -0.00   0.00   0.00     0.00  -0.00  -0.00
  25   1     0.00   0.00  -0.00    -0.00  -0.01   0.00     0.00   0.00  -0.00
  26   1    -0.00  -0.00   0.00     0.04   0.02   0.00     0.00   0.00   0.00
  27   1    -0.03  -0.01  -0.01     0.87   0.25   0.17     0.01   0.00   0.00
  28   1     0.00   0.00  -0.00    -0.06   0.02  -0.14    -0.00   0.00  -0.01
  29   1     0.00   0.02  -0.00    -0.06  -0.25   0.05     0.00   0.00  -0.00
  30   1    -0.00   0.00  -0.00    -0.00   0.00  -0.00     0.00   0.00  -0.00
  31   1     0.00   0.00   0.00    -0.00  -0.00  -0.00    -0.00  -0.00  -0.00
  32   1    -0.00  -0.00  -0.00    -0.00  -0.00  -0.00     0.00   0.00   0.00
  33   1    -0.00   0.00  -0.00    -0.00  -0.00  -0.00    -0.00   0.00  -0.00
  34   1    -0.00  -0.00  -0.00     0.01   0.01   0.00    -0.00  -0.00  -0.00
  35   1     0.00  -0.00   0.00     0.00  -0.00   0.00     0.00   0.00   0.00
  36   1     0.00  -0.00  -0.00     0.00  -0.00  -0.00     0.01  -0.01   0.00
  37   1    -0.00   0.00  -0.00    -0.00   0.00   0.00    -0.00   0.00  -0.04
  38   1     0.01  -0.01   0.00     0.00  -0.00   0.00    -0.01   0.01  -0.00
  39   1     0.00   0.00  -0.01    -0.00  -0.00   0.01     0.03   0.02  -0.95
  40   1     0.00  -0.00   0.00    -0.00   0.00  -0.00     0.05  -0.05   0.05
  41   1     0.00   0.00   0.00    -0.00  -0.00  -0.00     0.03   0.14   0.09
                    112                    113                    114
                        a                      a                      a 
 Frequencies --  3053.6291              3056.1510              3057.2021
 Red. masses --     1.9078                 1.4451                 1.7851
 Frc consts  --     0.0000                 0.0000                 0.0000
 IR Inten    --    24.8834                13.6146                 8.9619
 Raman Activ --     0.0000                 0.0000                 0.0000
 Depolar     --     0.0000                 0.0000                 0.0000
 Atom AN      X      Y      Z        X      Y      Z        X      Y      Z
   1   6     0.00  -0.00  -0.00     0.00  -0.00   0.00     0.00   0.00   0.00
   2   6     0.00  -0.00   0.00     0.00  -0.00   0.00    -0.00   0.00   0.00
   3   8    -0.00   0.00   0.00    -0.00   0.00   0.00    -0.00  -0.00  -0.00
   4  15    -0.00  -0.00  -0.00     0.00   0.00  -0.00     0.00  -0.00   0.00
   5  16     0.00   0.00  -0.00    -0.00  -0.00   0.00    -0.00  -0.00   0.00
   6   8     0.00  -0.00   0.00    -0.00   0.00   0.00    -0.00   0.00  -0.00
   7   6    -0.00  -0.00   0.00     0.00  -0.00   0.00     0.00   0.00  -0.00
   8   6    -0.00  -0.00   0.00     0.00  -0.00   0.01    -0.00  -0.00  -0.00
   9  16     0.00  -0.00   0.00    -0.00   0.00   0.00     0.00  -0.00  -0.00
  10   6    -0.00   0.00  -0.00    -0.00   0.00  -0.00    -0.00   0.00   0.00
  11  16     0.00   0.00   0.00    -0.00  -0.00   0.00     0.00   0.00  -0.00
  12  15     0.00   0.00   0.00     0.00  -0.00  -0.00    -0.00   0.00  -0.00
  13  16    -0.00   0.00   0.00    -0.00   0.00   0.00     0.00   0.00  -0.00
  14   8    -0.00  -0.00  -0.00    -0.00   0.00   0.00    -0.00  -0.00   0.00
  15   6     0.01   0.01   0.01     0.00  -0.00   0.01     0.00   0.00  -0.00
  16   6     0.16   0.17   0.16     0.01  -0.08   0.18     0.01   0.02  -0.02
  17   8     0.00   0.00  -0.00    -0.00   0.00   0.00    -0.00   0.00   0.00
  18   6    -0.00   0.00   0.00     0.00  -0.00  -0.00     0.00  -0.01  -0.01
  19   6     0.00   0.01   0.01    -0.01  -0.04  -0.02    -0.04  -0.23  -0.13
  20   1    -0.00   0.00  -0.00    -0.00   0.00  -0.00     0.00  -0.00   0.00
  21   1    -0.00   0.00   0.00    -0.00   0.00   0.00    -0.00   0.00   0.00
  22   1     0.00   0.00   0.00     0.00  -0.00  -0.00    -0.00  -0.01  -0.01
  23   1    -0.00   0.00  -0.00    -0.00   0.00  -0.00     0.00  -0.00   0.00
  24   1    -0.00   0.00   0.00    -0.00   0.00  -0.00     0.00  -0.00  -0.00
  25   1     0.00   0.00  -0.00     0.00   0.00  -0.00    -0.00  -0.00   0.00
  26   1     0.00   0.00   0.00    -0.00  -0.00  -0.00    -0.00  -0.00   0.00
  27   1     0.01   0.00   0.00    -0.01  -0.00  -0.00     0.00   0.00   0.00
  28   1    -0.00   0.00  -0.01    -0.01   0.00  -0.03    -0.00  -0.00  -0.00
  29   1    -0.00  -0.00   0.00     0.00   0.00   0.00     0.00   0.00  -0.00
  30   1     0.00  -0.00   0.00     0.00  -0.00   0.00    -0.00   0.00   0.00
  31   1     0.00   0.00  -0.00    -0.00  -0.00  -0.00    -0.00  -0.00   0.00
  32   1    -0.02  -0.04  -0.01     0.00   0.01   0.00    -0.00  -0.00  -0.00
  33   1    -0.01   0.00  -0.02    -0.01   0.00  -0.03     0.00  -0.00   0.00
  34   1    -0.42  -0.72  -0.20     0.21   0.33   0.12    -0.06  -0.10  -0.03
  35   1    -0.16   0.07  -0.37    -0.36   0.09  -0.77     0.06  -0.01   0.12
  36   1     0.01   0.04   0.02     0.11  -0.15   0.02    -0.03   0.04  -0.00
  37   1     0.00   0.00  -0.00     0.00  -0.00   0.00     0.00  -0.00   0.01
  38   1     0.00  -0.00   0.00    -0.00   0.00  -0.00    -0.01   0.01  -0.01
  39   1     0.00   0.00  -0.01    -0.00  -0.01   0.02    -0.01  -0.03   0.13
  40   1     0.00  -0.00   0.00     0.00  -0.01  -0.00    -0.01  -0.02  -0.02
  41   1    -0.01  -0.05  -0.02     0.03   0.16   0.06     0.16   0.86   0.34
                    115                    116                    117
                        a                      a                      a 
 Frequencies --  3058.7624              3059.1758              3062.8117
 Red. masses --     1.8116                 1.7396                 1.8380
 Frc consts  --     0.0000                 0.0000                 0.0000
 IR Inten    --    16.6528                 8.7264                11.5672
 Raman Activ --     0.0000                 0.0000                 0.0000
 Depolar     --     0.0000                 0.0000                 0.0000
 Atom AN      X      Y      Z        X      Y      Z        X      Y      Z
   1   6     0.00   0.00   0.00     0.01   0.19   0.17     0.00  -0.00  -0.00
   2   6    -0.00   0.00   0.00    -0.00   0.01   0.01     0.00  -0.00  -0.00
   3   8     0.00  -0.00  -0.00     0.00  -0.00  -0.00    -0.00   0.00   0.00
   4  15    -0.00  -0.00   0.00     0.00  -0.00   0.00     0.00  -0.00   0.00
   5  16     0.00  -0.00   0.00    -0.00   0.00  -0.00     0.00   0.00   0.00
   6   8     0.00  -0.00   0.00    -0.00   0.00  -0.00    -0.00   0.00  -0.00
   7   6    -0.01   0.01  -0.01     0.00  -0.00   0.00     0.00  -0.00  -0.00
   8   6    -0.09   0.05  -0.25     0.00  -0.00   0.00    -0.00  -0.00  -0.00
   9  16     0.00   0.00   0.00     0.00   0.00   0.00    -0.00   0.00  -0.00
  10   6     0.00   0.00   0.00    -0.00  -0.00  -0.00    -0.00  -0.00  -0.00
  11  16    -0.00   0.00  -0.00     0.00   0.00  -0.00    -0.00   0.00   0.00
  12  15     0.00   0.00   0.00     0.00  -0.00  -0.00     0.00   0.00  -0.00
  13  16    -0.00  -0.00   0.00     0.00  -0.00   0.00    -0.00  -0.00   0.00
  14   8    -0.00  -0.00   0.00    -0.00  -0.00   0.00    -0.00  -0.00   0.00
  15   6     0.00   0.00   0.00     0.00   0.00   0.00    -0.00   0.01  -0.00
  16   6     0.00  -0.00   0.01    -0.00   0.00   0.00    -0.16   0.22  -0.03
  17   8    -0.00   0.00  -0.00     0.00  -0.00  -0.00    -0.00   0.00   0.00
  18   6     0.00  -0.00   0.00     0.00  -0.00   0.00     0.00  -0.00  -0.00
  19   6    -0.00  -0.00   0.00     0.00   0.00   0.00     0.00  -0.00  -0.00
  20   1    -0.00   0.00  -0.01    -0.01   0.03  -0.01     0.00  -0.00   0.00
  21   1     0.00  -0.00   0.00     0.00   0.02   0.02    -0.00   0.00   0.00
  22   1    -0.00  -0.01  -0.01    -0.04  -0.75  -0.61     0.00   0.00   0.00
  23   1    -0.00   0.00  -0.00    -0.01   0.01  -0.01     0.00  -0.00   0.00
  24   1     0.00  -0.00  -0.00     0.02  -0.01  -0.00    -0.00   0.00   0.00
  25   1    -0.00  -0.02   0.00     0.00   0.00  -0.00    -0.00   0.00  -0.00
  26   1     0.01   0.01   0.00    -0.00  -0.00  -0.00    -0.00  -0.00   0.00
  27   1     0.12   0.04  -0.01    -0.00  -0.00   0.00     0.00   0.00   0.00
  28   1     0.21  -0.16   0.92    -0.00   0.00  -0.02     0.00  -0.00   0.00
  29   1    -0.02  -0.05  -0.02     0.00   0.00   0.00     0.00   0.00  -0.00
  30   1    -0.00   0.00  -0.00    -0.00   0.00  -0.00     0.00   0.00   0.00
  31   1    -0.00  -0.00  -0.00     0.00   0.00   0.00     0.00   0.00   0.00
  32   1    -0.00  -0.00  -0.00    -0.00  -0.00  -0.00    -0.01  -0.01  -0.00
  33   1    -0.00   0.00  -0.00    -0.00   0.00  -0.00     0.01  -0.00   0.01
  34   1     0.00   0.01   0.00    -0.00  -0.00  -0.00    -0.07  -0.05  -0.03
  35   1    -0.01   0.00  -0.02    -0.00   0.00  -0.00     0.04   0.01   0.14
  36   1     0.00  -0.00   0.00     0.00  -0.00   0.00     0.59  -0.74  -0.01
  37   1     0.00  -0.00  -0.00    -0.00   0.00  -0.00     0.00  -0.00   0.00
  38   1    -0.00   0.00  -0.00    -0.00   0.00  -0.00    -0.00   0.00  -0.00
  39   1     0.00  -0.00  -0.01     0.00   0.00  -0.00    -0.00  -0.00   0.01
  40   1     0.00  -0.00   0.00     0.00  -0.00   0.00    -0.01   0.00  -0.00
  41   1     0.00   0.01   0.00    -0.00  -0.01  -0.00     0.00   0.01   0.01
