
                                 *****************
                                 * O   R   C   A *
                                 *****************

                                            #,                                       
                                            ###                                      
                                            ####                                     
                                            #####                                    
                                            ######                                   
                                           ########,                                 
                                     ,,################,,,,,                         
                               ,,#################################,,                 
                          ,,##########################################,,             
                       ,#########################################, ''#####,          
                    ,#############################################,,   '####,        
                  ,##################################################,,,,####,       
                ,###########''''           ''''###############################       
              ,#####''   ,,,,##########,,,,          '''####'''          '####       
            ,##' ,,,,###########################,,,                        '##       
           ' ,,###''''                  '''############,,,                           
         ,,##''                                '''############,,,,        ,,,,,,###''
      ,#''                                            '''#######################'''  
     '                                                          ''''####''''         
             ,#######,   #######,   ,#######,      ##                                
            ,#'     '#,  ##    ##  ,#'     '#,    #''#        ,####,   ,####,        
            ##       ##  ##   ,#'  ##            #'  '#       #'       #'  '#        
            ##       ##  #######   ##           ,######,      #####,   #    #        
            '#,     ,#'  ##    ##  '#,     ,#' ,#      #,     #,   #   #,  ,#        
             '#######'   ##     ##  '#######'  #'      '#     '####' # '####'        



                #########################################################
                #                        -***-                          #
                #          Department of theory and spectroscopy        #
                #                                                       #
                #                      Frank Neese                      #
                #                                                       #
                #     Directorship, Architecture, Infrastructure        #
                #                    SHARK, DRIVERS                     #
                #        Core code/Algorithms in most modules           #
                #                                                       #
                #        Max Planck Institute fuer Kohlenforschung      #
                #                Kaiser Wilhelm Platz 1                 #
                #                 D-45470 Muelheim/Ruhr                 #
                #                      Germany                          #
                #                                                       #
                #                  All rights reserved                  #
                #                        -***-                          #
                #########################################################


                         Program Version 6.0.0  -   RELEASE  -


 With contributions from (in alphabetic order):
   Daniel Aravena         : Magnetic Suceptibility
   Michael Atanasov       : Ab Initio Ligand Field Theory (pilot matlab implementation)
   Alexander A. Auer      : GIAO ZORA, VPT2 properties, NMR spectrum
   Ute Becker             : All parallelization in ORCA, NUMFREQ, NUMCALC
   Giovanni Bistoni       : ED, misc. LED, open-shell LED, HFLD
   Martin Brehm           : Molecular dynamics
   Dmytro Bykov           : pre 5.0 version of the SCF Hessian
   Marcos Casanova-Páez   : Triplet and SCS-CIS(D). UHF-(DLPNO)-IP/EA/STEOM-CCSD. UHF-CVS-IP/STEOM-CCSD
   Vijay G. Chilkuri      : MRCI spin determinant printing, contributions to CSF-ICE
   Pauline Colinet        : FMM embedding
   Dipayan Datta          : RHF DLPNO-CCSD density
   Achintya Kumar Dutta   : EOM-CC, STEOM-CC
   Nicolas Foglia         : Exact transition moments, OPA infrastructure, MCD improvements
   Dmitry Ganyushin       : Spin-Orbit,Spin-Spin,Magnetic field MRCI
   Miquel Garcia          : C-PCM and meta-GGA Hessian, CCSD/C-PCM, Gaussian charge scheme
   Tiago L. C. Gouveia    : GS-ROHF, GS-ROCIS
   Yang Guo               : DLPNO-NEVPT2, F12-NEVPT2, CIM, IAO-localization
   Andreas Hansen         : Spin unrestricted coupled pair/coupled cluster methods
   Ingolf Harden          : AUTO-CI MPn and infrastructure 
   Benjamin Helmich-Paris : MC-RPA, TRAH-(SCF,CASSCF), AVAS, COSX integrals, SCF dyn. polar.
   Lee Huntington         : MR-EOM, pCC
   Robert Izsak           : Overlap fitted RIJCOSX, COSX-SCS-MP3, EOM
   Riya Kayal             : Wick's Theorem for AUTO-CI, AUTO-CI UHF-CCSDT
   Emily Kempfer          : AUTO-CI, RHF CISDT and CCSDT
   Christian Kollmar      : KDIIS, OOCD, Brueckner-CCSD(T), CCSD density, CASPT2, CASPT2-K, improved NEVPT2
   Axel Koslowski         : Symmetry handling
   Simone Kossmann        : Meta GGA functionals, TD-DFT gradient, OOMP2, (MP2 Hessian; deprecated post 5.0)
   Lucas Lang             : DCDCAS
   Marvin Lechner         : AUTO-CI (C++ implementation), FIC-MRCC
   Spencer Leger          : CASSCF response
   Dagmar Lenk            : GEPOL surface, SMD, ORCA-2-JSON
   Dimitrios Liakos       : Extrapolation schemes; Compound Job, initial MDCI parallelization
   Dimitrios Manganas     : Further ROCIS development; embedding schemes. LFT, Crystal Embedding
   Dimitrios Pantazis     : SARC Basis sets
   Anastasios Papadopoulos: AUTO-CI, single reference methods and gradients
   Taras Petrenko         : pre 6.0 DFT Hessian and TD-DFT gradient, (ASA, deprecated), ECA, 1-Electron XAS/XES, NRVS
   Peter Pinski           : DLPNO-MP2, DLPNO-MP2 Gradient
   Christoph Reimann      : Effective Core Potentials
   Marius Retegan         : Local ZFS, SOC
   Christoph Riplinger    : Optimizer, TS searches, QM/MM, DLPNO-CCSD(T), (RO)-DLPNO pert. Triples
   Michael Roemelt        : Original ROCIS implementation
   Masaaki Saitow         : Open-shell DLPNO-CCSD energy and density
   Barbara Sandhoefer     : DKH picture change effects
   Kantharuban Sivalingam : CASSCF convergence/infrastructure, NEVPT2 and variants, FIC-MRCI
   Bernardo de Souza      : ESD, SOC TD-DFT
   Georgi Stoychev        : AutoAux, RI-MP2 NMR, DLPNO-MP2 response, X2C
   Van Anh Tran           : RI-MP2 g-tensors
   Willem Van den Heuvel  : Paramagnetic NMR
   Zikuan Wang            : NOTCH, Electric field optimization 
   Frank Wennmohs         : Technical directorship and infrastructure
   Hang Xu                : AUTO-CI-Response properties 


 We gratefully acknowledge several colleagues who have allowed us to
 interface, adapt or use parts of their codes:
   Stefan Grimme, W. Hujo, H. Kruse, P. Pracht,  : VdW corrections, initial TS optimization,
                  C. Bannwarth, S. Ehlert,         DFT functionals, gCP, sTDA/sTD-DF
                  L. Wittmann, M. Mueller
   Ed Valeev, F. Pavosevic, A. Kumar             : LibInt (2-el integral package), F12 methods
   Garnet Chan, S. Sharma, J. Yang, R. Olivares  : DMRG
   Ulf Ekstrom                                   : XCFun DFT Library
   Mihaly Kallay                                 : mrcc  (arbitrary order and MRCC methods)
   Frank Weinhold                                : gennbo (NPA and NBO analysis)
   Simon Mueller                                 : openCOSMO-RS
   Christopher J. Cramer and Donald G. Truhlar   : smd solvation model
   Lars Goerigk                                  : TD-DFT with DH, B97 family of functionals
   V. Asgeirsson, H. Jonsson                     : NEB implementation
   FAccTs GmbH                                   : IRC, NEB, NEB-TS, DLPNO-Multilevel, CI-OPT
                                                   MM, QMMM, 2- and 3-layer-ONIOM, Crystal-QMMM,
                                                   LR-CPCM, SF, NACMEs, symmetry and pop. for TD-DFT,
                                                   nearIR, NL-DFT gradient (VV10), updates on ESD,
                                                   ML-optimized integration grids, MBIS, APM,
                                                   GOAT, DOCKER, SOLVATOR, interface openCOSMO-RS
   S Lehtola, MJT Oliveira, MAL Marques          : LibXC Library
   Liviu Ungur et al                             : ANISO software


 Your calculation uses the libint2 library for the computation of 2-el integrals
 For citations please refer to: http://libint.valeyev.net

 Your ORCA version has been built with support for libXC version: 6.2.2
 For citations please refer to: https://libxc.gitlab.io

 This ORCA versions uses:
   CBLAS   interface :  Fast vector & matrix operations
   LAPACKE interface :  Fast linear algebra routines
   SCALAPACK package :  Parallel linear algebra routines
   Shared memory     :  Shared parallel matrices
   BLAS/LAPACK       :  OpenBLAS 0.3.27  USE64BITINT DYNAMIC_ARCH NO_AFFINITY SapphireRapids SINGLE_THREADED
        Core in use  :  SapphireRapids
   Copyright (c) 2011-2014, The OpenBLAS Project


Your calculation utilizes the geometrical counterpoise correction gCP
Please cite in your paper:
H.Kruse, S. Grimme J.Chem.Phys., 136, (2012), 154101 
   

Your calculation utilizes the atom-pairwise dispersion correction
based on EEQ partial charges (D4)


================================================================================

----- Orbital basis set information -----
Your calculation utilizes the basis: def2-SV(P)
   F. Weigend and R. Ahlrichs, Phys. Chem. Chem. Phys. 7, 3297 (2005).

----- AuxJ basis set information -----
Your calculation utilizes the auxiliary basis: def2/J
   F. Weigend, Phys. Chem. Chem. Phys. 8, 1057 (2006).

================================================================================
                                        WARNINGS
                       Please study these warnings very carefully!
================================================================================


================================================================================
                                       INPUT FILE
================================================================================
NAME = sp.inp
|  1> ! pbe def2-sv(p) def2/J RI DEFGRID1 loosescf d4 GCP(DFT/SV(P)) printgap
|  2> %output
|  3>     printlevel normal
|  4> end
|  5> * xyz 0 1
|  6> C 3.3323062499 2.4213182483 -1.7001228659
|  7> C 4.1855853004 1.9064216195 -0.558924736
|  8> O 3.8755081932 0.5405110797 -0.2368751141
|  9> P 2.4706278611 0.1101089181 0.3725712106
| 10> S 1.812232591 1.3609542289 1.7404344666
| 11> O 2.7804047793 -1.3625358899 0.856592023
| 12> C 2.9609379318 -1.7367330415 2.2406773362
| 13> C 1.913294572 -2.7606554117 2.6298638546
| 14> S 1.2991903134 -0.301381038 -1.3429040386
| 15> C 0.1745449006 -1.5455137614 -0.6457346217
| 16> S -0.8192587851 -0.9442819318 0.7450988503
| 17> P -2.4187413973 -0.0321473461 -0.3345307375
| 18> S -2.5996114346 -0.6394798539 -2.1947393294
| 19> O -2.3543815068 1.5179739366 -0.0387217889
| 20> C -1.2458806288 2.3879979574 -0.3161982715
| 21> C -1.0198009728 2.5846754266 -1.8023677207
| 22> O -3.6830477339 -0.2967599709 0.5739438072
| 23> C -4.4357719954 -1.5237850566 0.4940483863
| 24> C -5.9055899674 -1.1941491319 0.6640975052
| 25> H 3.6503826724 3.4237138365 -1.9677494254
| 26> H 3.4214148686 1.7687454945 -2.564914865
| 27> H 2.2869920196 2.4505293591 -1.3920710479
| 28> H 4.0363800834 2.5152938279 0.3388475972
| 29> H 5.2439590284 1.882436714 -0.8209832371
| 30> H 3.9697225675 -2.1468387731 2.3113276366
| 31> H 2.8838555695 -0.8412410812 2.8659225238
| 32> H 0.9170719922 -2.3304236689 2.5398862927
| 33> H 1.9828513956 -3.6339277453 1.9873042208
| 34> H 2.077388879 -3.0612929492 3.6594836736
| 35> H 0.7516619757 -2.3922987849 -0.2855431378
| 36> H -0.4912317066 -1.8300072892 -1.463615589
| 37> H -1.5293958206 3.3242354138 0.1685428558
| 38> H -0.3494665316 1.9952554324 0.1758072881
| 39> H -0.6730474227 1.6627397077 -2.2666109208
| 40> H -1.9469857655 2.8887697237 -2.2817632394
| 41> H -0.2710841756 3.3566285442 -1.9505415567
| 42> H -4.2484196053 -1.9964813263 -0.4768627831
| 43> H -4.0801350995 -2.1797271642 1.2923969864
| 44> H -6.0629551387 -0.680988932 1.60827226
| 45> H -6.2392119775 -0.5502544462 -0.1452028764
| 46> H -6.4814365982 -2.1137250774 0.6513362735
| 47> *
| 48> 
| 49>                          ****END OF INPUT****
================================================================================

                       ****************************
                       * Single Point Calculation *
                       ****************************

---------------------------------
CARTESIAN COORDINATES (ANGSTROEM)
---------------------------------
  C      3.332306    2.421318   -1.700123
  C      4.185585    1.906422   -0.558925
  O      3.875508    0.540511   -0.236875
  P      2.470628    0.110109    0.372571
  S      1.812233    1.360954    1.740434
  O      2.780405   -1.362536    0.856592
  C      2.960938   -1.736733    2.240677
  C      1.913295   -2.760655    2.629864
  S      1.299190   -0.301381   -1.342904
  C      0.174545   -1.545514   -0.645735
  S     -0.819259   -0.944282    0.745099
  P     -2.418741   -0.032147   -0.334531
  S     -2.599611   -0.639480   -2.194739
  O     -2.354382    1.517974   -0.038722
  C     -1.245881    2.387998   -0.316198
  C     -1.019801    2.584675   -1.802368
  O     -3.683048   -0.296760    0.573944
  C     -4.435772   -1.523785    0.494048
  C     -5.905590   -1.194149    0.664098
  H      3.650383    3.423714   -1.967749
  H      3.421415    1.768745   -2.564915
  H      2.286992    2.450529   -1.392071
  H      4.036380    2.515294    0.338848
  H      5.243959    1.882437   -0.820983
  H      3.969723   -2.146839    2.311328
  H      2.883856   -0.841241    2.865923
  H      0.917072   -2.330424    2.539886
  H      1.982851   -3.633928    1.987304
  H      2.077389   -3.061293    3.659484
  H      0.751662   -2.392299   -0.285543
  H     -0.491232   -1.830007   -1.463616
  H     -1.529396    3.324235    0.168543
  H     -0.349467    1.995255    0.175807
  H     -0.673047    1.662740   -2.266611
  H     -1.946986    2.888770   -2.281763
  H     -0.271084    3.356629   -1.950542
  H     -4.248420   -1.996481   -0.476863
  H     -4.080135   -2.179727    1.292397
  H     -6.062955   -0.680989    1.608272
  H     -6.239212   -0.550254   -0.145203
  H     -6.481437   -2.113725    0.651336

----------------------------
CARTESIAN COORDINATES (A.U.)
----------------------------
  NO LB      ZA    FRAG     MASS         X           Y           Z
   0 C     6.0000    0    12.011    6.297146    4.575628   -3.212767
   1 C     6.0000    0    12.011    7.909610    3.602615   -1.056215
   2 O     8.0000    0    15.999    7.323649    1.021418   -0.447629
   3 P    15.0000    0    30.974    4.668810    0.208076    0.704058
   4 S    16.0000    0    32.060    3.424623    2.571831    3.288944
   5 O     8.0000    0    15.999    5.254204   -2.574820    1.618724
   6 C     6.0000    0    12.011    5.595362   -3.281950    4.234267
   7 C     6.0000    0    12.011    3.615603   -5.216883    4.969722
   8 S    16.0000    0    32.060    2.455114   -0.569528   -2.537721
   9 C     6.0000    0    12.011    0.329842   -2.920598   -1.220262
  10 S    16.0000    0    32.060   -1.548175   -1.784434    1.408033
  11 P    15.0000    0    30.974   -4.570759   -0.060750   -0.632171
  12 S    16.0000    0    32.060   -4.912554   -1.208442   -4.147456
  13 O     8.0000    0    15.999   -4.449136    2.868555   -0.073174
  14 C     6.0000    0    12.011   -2.354373    4.512662   -0.597528
  15 C     6.0000    0    12.011   -1.927145    4.884329   -3.405981
  16 O     8.0000    0    15.999   -6.959952   -0.560795    1.084597
  17 C     6.0000    0    12.011   -8.382394   -2.879536    0.933616
  18 C     6.0000    0    12.011  -11.159948   -2.256615    1.254962
  19 H     1.0000    0     1.008    6.898224    6.469882   -3.718508
  20 H     1.0000    0     1.008    6.465537    3.342445   -4.846987
  21 H     1.0000    0     1.008    4.321789    4.630829   -2.630633
  22 H     1.0000    0     1.008    7.627653    4.753216    0.640329
  23 H     1.0000    0     1.008    9.909646    3.557290   -1.551433
  24 H     1.0000    0     1.008    7.501688   -4.056937    4.367776
  25 H     1.0000    0     1.008    5.449697   -1.589715    5.415809
  26 H     1.0000    0     1.008    1.733015   -4.403863    4.799690
  27 H     1.0000    0     1.008    3.747046   -6.867128    3.755461
  28 H     1.0000    0     1.008    3.925696   -5.785005    6.915422
  29 H     1.0000    0     1.008    1.420435   -4.520790   -0.539598
  30 H     1.0000    0     1.008   -0.928293   -3.458213   -2.765833
  31 H     1.0000    0     1.008   -2.890139    6.281895    0.318500
  32 H     1.0000    0     1.008   -0.660396    3.770486    0.332228
  33 H     1.0000    0     1.008   -1.271875    3.142123   -4.283274
  34 H     1.0000    0     1.008   -3.679270    5.458984   -4.311908
  35 H     1.0000    0     1.008   -0.512275    6.343109   -3.685989
  36 H     1.0000    0     1.008   -8.028350   -3.772803   -0.901140
  37 H     1.0000    0     1.008   -7.710338   -4.119087    2.442276
  38 H     1.0000    0     1.008  -11.457325   -1.286883    3.039194
  39 H     1.0000    0     1.008  -11.790402   -1.039830   -0.274394
  40 H     1.0000    0     1.008  -12.248140   -3.994362    1.230847

--------------------------------
INTERNAL COORDINATES (ANGSTROEM)
--------------------------------
 C      0   0   0     0.000000000000     0.00000000     0.00000000
 C      1   0   0     1.515102916656     0.00000000     0.00000000
 O      2   1   0     1.437210970635   111.73146512     0.00000000
 P      3   2   1     1.590710404480   122.24531106   293.58964922
 S      4   3   2     1.967015050872   112.95347058   318.62294562
 O      4   3   2     1.580797462174   101.32068776   193.33264475
 C      6   4   3     1.445097879603   123.98446255   105.47632099
 C      7   6   4     1.515730772807   109.54213429   119.56062131
 S      4   3   2     2.117650878391   103.34207552    89.95652153
 C      9   4   3     1.816243027193    99.47919004   151.23326441
 S     10   9   4     1.812054973082   114.01309368    60.04454116
 P     11  10   9     2.134463439840    99.47034836    84.27841628
 S     12  11  10     1.965182625305   114.56289831    19.23961968
 O     12  11  10     1.579405306011   107.10620425   244.98424231
 C     14  12  11     1.436213490987   126.14360195    59.19427440
 C     15  14  12     1.516078385006   112.52395822    68.27298956
 O     12  11  10     1.579182178325   103.73054583   145.11400318
 C     17  12  11     1.441723847714   121.91951567   274.86474624
 C     18  17  12     1.515896241999   108.35739603   217.64852465
 H      1   2   3     1.085169802908   109.54845749   184.64604338
 H      1   2   3     1.087040361089   110.42845162   305.36380435
 H      1   2   3     1.090151847971   109.65062162    65.03455839
 H      2   1   3     1.094980696269   110.60029176   239.17034537
 H      2   1   3     1.090598405377   111.90238514   116.19313256
 H      7   6   4     1.091249108711   105.95071611   240.09653188
 H      7   6   4     1.094887704816   109.04848597   357.98893512
 H      8   7   6     1.088877744589   110.13521164   297.67143183
 H      8   7   6     1.086427909863   110.29653779    58.15429719
 H      8   7   6     1.085093010862   109.04298416   178.05804574
 H     10   9   4     1.086207576603   109.40869145   300.04519301
 H     10   9   4     1.092302309220   105.57008686   179.75264602
 H     15  14  12     1.091739620626   103.48994290   188.49178598
 H     15  14  12     1.095387783061   109.12612184   304.09327497
 H     16  15  14     1.088910117103   110.82886718   291.82345890
 H     16  15  14     1.087182158009   109.95997919    52.01416806
 H     16  15  14     1.085561579947   109.20218571   171.83309184
 H     18  17  12     1.095997801243   109.08124768   338.64065810
 H     18  17  12     1.092747975303   107.48597955    97.19880658
 H     19  18  17     1.086076956528   109.92280798   302.69327406
 H     19  18  17     1.086678940421   110.05873017    62.56611866
 H     19  18  17     1.085072398866   109.20574535   182.54890596

---------------------------
INTERNAL COORDINATES (A.U.)
---------------------------
 C      0   0   0     0.000000000000     0.00000000     0.00000000
 C      1   0   0     2.863129577185     0.00000000     0.00000000
 O      2   1   0     2.715935131166   111.73146512     0.00000000
 P      3   2   1     3.006007022847   122.24531106   293.58964922
 S      4   3   2     3.717119747448   112.95347058   318.62294562
 O      4   3   2     2.987274276706   101.32068776   193.33264475
 C      6   4   3     2.730839229160   123.98446255   105.47632099
 C      7   6   4     2.864316053362   109.54213429   119.56062131
 S      4   3   2     4.001780207417   103.34207552    89.95652153
 C      9   4   3     3.432201914039    99.47919004   151.23326441
 S     10   9   4     3.424287638735   114.01309368    60.04454116
 P     11  10   9     4.033551344165    99.47034836    84.27841628
 S     12  11  10     3.713656964968   114.56289831    19.23961968
 O     12  11  10     2.984643482823   107.10620425   244.98424231
 C     14  12  11     2.714050167808   126.14360195    59.19427440
 C     15  14  12     2.864972945220   112.52395822    68.27298956
 O     12  11  10     2.984221832603   103.73054583   145.11400318
 C     17  12  11     2.724463232924   121.91951567   274.86474624
 C     18  17  12     2.864628744818   108.35739603   217.64852465
 H      1   2   3     2.050673736297   109.54845749   184.64604338
 H      1   2   3     2.054208578977   110.42845162   305.36380435
 H      1   2   3     2.060088437054   109.65062162    65.03455839
 H      2   1   3     2.069213637878   110.60029176   239.17034537
 H      2   1   3     2.060932308254   111.90238514   116.19313256
 H      7   6   4     2.062161959349   105.95071611   240.09653188
 H      7   6   4     2.069037909499   109.04848597   357.98893512
 H      8   7   6     2.057680730595   110.13521164   297.67143183
 H      8   7   6     2.053051213890   110.29653779    58.15429719
 H      8   7   6     2.050528620361   109.04298416   178.05804574
 H     10   9   4     2.052634844370   109.40869145   300.04519301
 H     10   9   4     2.064152219875   105.57008686   179.75264602
 H     15  14  12     2.063088892534   103.48994290   188.49178598
 H     15  14  12     2.069982920429   109.12612184   304.09327497
 H     16  15  14     2.057741905781   110.82886718   291.82345890
 H     16  15  14     2.054476536322   109.95997919    52.01416806
 H     16  15  14     2.051414087606   109.20218571   171.83309184
 H     18  17  12     2.071135687730   109.08124768   338.64065810
 H     18  17  12     2.064994406720   107.48597955    97.19880658
 H     19  18  17     2.052388008201   109.92280798   302.69327406
 H     19  18  17     2.053525592895   110.05873017    62.56611866
 H     19  18  17     2.050489669333   109.20574535   182.54890596

---------------------
BASIS SET INFORMATION
---------------------
There are 5 groups of distinct atoms

 Group   1 Type C   : 7s4p1d contracted to 3s2p1d pattern {511/31/1}
 Group   2 Type O   : 7s4p1d contracted to 3s2p1d pattern {511/31/1}
 Group   3 Type P   : 10s7p1d contracted to 4s3p1d pattern {5311/511/1}
 Group   4 Type S   : 10s7p1d contracted to 4s3p1d pattern {5311/511/1}
 Group   5 Type H   : 4s contracted to 2s pattern {31}

Atom   0C    basis set group =>   1
Atom   1C    basis set group =>   1
Atom   2O    basis set group =>   2
Atom   3P    basis set group =>   3
Atom   4S    basis set group =>   4
Atom   5O    basis set group =>   2
Atom   6C    basis set group =>   1
Atom   7C    basis set group =>   1
Atom   8S    basis set group =>   4
Atom   9C    basis set group =>   1
Atom  10S    basis set group =>   4
Atom  11P    basis set group =>   3
Atom  12S    basis set group =>   4
Atom  13O    basis set group =>   2
Atom  14C    basis set group =>   1
Atom  15C    basis set group =>   1
Atom  16O    basis set group =>   2
Atom  17C    basis set group =>   1
Atom  18C    basis set group =>   1
Atom  19H    basis set group =>   5
Atom  20H    basis set group =>   5
Atom  21H    basis set group =>   5
Atom  22H    basis set group =>   5
Atom  23H    basis set group =>   5
Atom  24H    basis set group =>   5
Atom  25H    basis set group =>   5
Atom  26H    basis set group =>   5
Atom  27H    basis set group =>   5
Atom  28H    basis set group =>   5
Atom  29H    basis set group =>   5
Atom  30H    basis set group =>   5
Atom  31H    basis set group =>   5
Atom  32H    basis set group =>   5
Atom  33H    basis set group =>   5
Atom  34H    basis set group =>   5
Atom  35H    basis set group =>   5
Atom  36H    basis set group =>   5
Atom  37H    basis set group =>   5
Atom  38H    basis set group =>   5
Atom  39H    basis set group =>   5
Atom  40H    basis set group =>   5
---------------------------------
AUXILIARY/J BASIS SET INFORMATION
---------------------------------
There are 5 groups of distinct atoms

 Group   1 Type C   : 12s5p4d2f1g contracted to 6s4p3d1f1g pattern {711111/2111/211/2/1}
 Group   2 Type O   : 12s5p4d2f1g contracted to 6s4p3d1f1g pattern {711111/2111/211/2/1}
 Group   3 Type P   : 14s5p5d2f1g contracted to 8s4p3d1f1g pattern {71111111/2111/311/2/1}
 Group   4 Type S   : 14s5p5d2f1g contracted to 8s4p3d1f1g pattern {71111111/2111/311/2/1}
 Group   5 Type H   : 5s2p1d contracted to 3s1p1d pattern {311/2/1}

Atom   0C    basis set group =>   1
Atom   1C    basis set group =>   1
Atom   2O    basis set group =>   2
Atom   3P    basis set group =>   3
Atom   4S    basis set group =>   4
Atom   5O    basis set group =>   2
Atom   6C    basis set group =>   1
Atom   7C    basis set group =>   1
Atom   8S    basis set group =>   4
Atom   9C    basis set group =>   1
Atom  10S    basis set group =>   4
Atom  11P    basis set group =>   3
Atom  12S    basis set group =>   4
Atom  13O    basis set group =>   2
Atom  14C    basis set group =>   1
Atom  15C    basis set group =>   1
Atom  16O    basis set group =>   2
Atom  17C    basis set group =>   1
Atom  18C    basis set group =>   1
Atom  19H    basis set group =>   5
Atom  20H    basis set group =>   5
Atom  21H    basis set group =>   5
Atom  22H    basis set group =>   5
Atom  23H    basis set group =>   5
Atom  24H    basis set group =>   5
Atom  25H    basis set group =>   5
Atom  26H    basis set group =>   5
Atom  27H    basis set group =>   5
Atom  28H    basis set group =>   5
Atom  29H    basis set group =>   5
Atom  30H    basis set group =>   5
Atom  31H    basis set group =>   5
Atom  32H    basis set group =>   5
Atom  33H    basis set group =>   5
Atom  34H    basis set group =>   5
Atom  35H    basis set group =>   5
Atom  36H    basis set group =>   5
Atom  37H    basis set group =>   5
Atom  38H    basis set group =>   5
Atom  39H    basis set group =>   5
Atom  40H    basis set group =>   5
------------------------------------------------------------------------------
                             ORCA STARTUP CALCULATIONS
                           -- RI-GTO INTEGRALS CHOSEN --
------------------------------------------------------------------------------
------------------------------------------------------------------------------
                   ___                                                        
                  /   \      - P O W E R E D   B Y -                         
                 /     \                                                     
                 |  |  |   _    _      __       _____    __    __             
                 |  |  |  | |  | |    /  \     |  _  \  |  |  /  |          
                  \  \/   | |  | |   /    \    | | | |  |  | /  /          
                 / \  \   | |__| |  /  /\  \   | |_| |  |  |/  /          
                |  |  |   |  __  | /  /__\  \  |    /   |      \           
                |  |  |   | |  | | |   __   |  |    \   |  |\   \          
                \     /   | |  | | |  |  |  |  | |\  \  |  | \   \       
                 \___/    |_|  |_| |__|  |__|  |_| \__\ |__|  \__/        
                                                                              
                      - O R C A' S   B I G   F R I E N D -                    
                                      &                                       
                       - I N T E G R A L  F E E D E R -                       
                                                                              
 v1 FN, 2020, v2 2021, v3 2022-2024                                           
------------------------------------------------------------------------------


----------------------
SHARK INTEGRAL PACKAGE
----------------------

Number of atoms                             ...     41
Number of basis functions                   ...    334
Number of shells                            ...    170
Maximum angular momentum                    ...      2
Integral batch strategy                     ... SHARK/LIBINT Hybrid
RI-J (if used) integral strategy            ... SPLIT-RIJ (Revised 2003 algorithm where possible)
Printlevel                                  ...      1
Contraction scheme used                     ... SEGMENTED contraction
Prescreening option                         ... SCHWARTZ
   Thresh                                   ... 1.000e-09
   Tcut                                     ... 1.000e-10
   Tpresel                                  ... 1.000e-10 
Coulomb Range Separation                    ... NOT USED
Exchange Range Separation                   ... NOT USED
Multipole approximations                    ... NOT USED
Finite Nucleus Model                        ... NOT USED
CABS basis                                  ... NOT available
Auxiliary Coulomb fitting basis             ... AVAILABLE
   # of basis functions in Aux-J            ...   1185
   # of shells in Aux-J                     ...    407
   Maximum angular momentum in Aux-J        ...      4
Auxiliary J/K fitting basis                 ... NOT available
Auxiliary Correlation fitting basis         ... NOT available
Auxiliary 'external' fitting basis          ... NOT available

Checking pre-screening integrals            ... done (  0.0 sec) Dimension = 170
Check shell pair data                       ... done (  0.0 sec)
Shell pair information
Shell pair cut-off parameter TPreSel        ...   1.0e-10
Total number of shell pairs                 ...     14535
Shell pairs after pre-screening             ...     10126
Total number of primitive shell pairs       ...     62501
Primitive shell pairs kept                  ...     25152
          la=0 lb=0:   3936 shell pairs
          la=1 lb=0:   3429 shell pairs
          la=1 lb=1:    792 shell pairs
          la=2 lb=0:   1279 shell pairs
          la=2 lb=1:    580 shell pairs
          la=2 lb=2:    110 shell pairs

Calculating one electron integrals          ... done (  0.0 sec)
Calculating RI/J V-Matrix + Cholesky decomp.... done (  0.1 sec)
Calculating Nuclear repulsion               ... done (  0.0 sec) ENN=   2751.657788239311 Eh

Diagonalization of the overlap matrix:
Smallest eigenvalue                        ... 3.184e-03
Time for diagonalization                   ...    0.010 sec
Threshold for overlap eigenvalues          ... 1.000e-07
Number of eigenvalues below threshold      ... 0
Time for construction of square roots      ...    0.021 sec
Total time needed                          ...    0.039 sec

-------------------
DFT GRID GENERATION
-------------------

General Integration Accuracy     IntAcc      ... 4.159
Radial Grid Type                 RadialGrid  ... OptM3 with GC (2021)
Angular Grid (max. ang.)         AngularGrid ... 3 (Lebedev-194)
Angular grid pruning method      GridPruning ... 4 (adaptive)
Weight generation scheme         WeightScheme... mBecke (2022)
Basis function cutoff            BFCut       ... 1.0000e-10
Integration weight cutoff        WCut        ... 1.0000e-14
Partially contracted basis set               ... off
Rotationally invariant grid construction     ... off
Angular grids for H and He will be reduced by one unit

Total number of grid points                  ...    97472
Total number of batches                      ...     1546
Average number of points per batch           ...       63
Average number of grid points per atom       ...     2377
Initializing property integral containers    ... done (  0.0 sec)

SHARK setup successfully completed in   1.5 seconds

Maximum memory used throughout the entire STARTUP-calculation: 51.1 MB
-------------------------------------------------------------------------------
                                 ORCA GUESS
                   Start orbitals & Density for SCF / CASSCF
-------------------------------------------------------------------------------

------------
SCF SETTINGS
------------
Hamiltonian:
 Density Functional     Method          .... DFT(GTOs)
 Exchange Functional    Exchange        .... PBE
   PBE kappa parameter   XKappa         ....  0.804000
   PBE mue parameter    XMuePBE         ....  0.219520
 Correlation Functional Correlation     .... PBE
   PBE beta parameter  CBetaPBE         ....  0.066725
 LDA part of GGA corr.  LDAOpt          .... PW91-LDA
 Gradients option       PostSCFGGA      .... off
   NL short-range parameter             ....  6.400000
 RI-approximation to the Coulomb term is turned on
   Number of AuxJ basis functions       .... 1185


General Settings:
 Integral files         IntName         .... sp
 Hartree-Fock type      HFTyp           .... RHF
 Total Charge           Charge          ....    0
 Multiplicity           Mult            ....    1
 Number of Electrons    NEL             ....  202
 Basis Dimension        Dim             ....  334
 Nuclear Repulsion      ENuc            ....   2751.6577882393 Eh

Convergence Acceleration:
 AO-DIIS                CNVDIIS         .... on
   Start iteration      DIISMaxIt       ....    12
   Startup error        DIISStart       ....  0.200000
   # of expansion vecs  DIISMaxEq       ....     5
   Bias factor          DIISBfac        ....   1.050
   Max. coefficient     DIISMaxC        ....  10.000
 MO-DIIS                CNVKDIIS        .... off
 Trust-Rad. Augm. Hess. CNVTRAH         .... auto
   Auto Start mean grad. ratio tolernc. ....  1.125000
   Auto Start start iteration           ....    50
   Auto Start num. interpolation iter.  ....    10
   Max. Number of Micro iterations      ....    24
   Max. Number of Macro iterations      .... Maxiter - #DIIS iter
   Number of Davidson start vectors     ....     2
   Converg. threshold    (grad. norm)   ....   1.000e-04
   Grad. Scal. Fac. for Micro threshold ....   0.100
   Minimum threshold for Micro iter.    ....   1.000e-02
   NR start threshold (gradient norm)   ....   1.000e-04
   Initial trust radius                 ....   0.400
   Minimum AH scaling param. (alpha)    ....   1.000
   Maximum AH scaling param. (alpha)    .... 1000.000
   Quad. conv. algorithm                .... NR
   White noise on init. David. guess    .... on
   Maximum white noise                  ....   0.010
   Pseudo random numbers                .... off
   Inactive MOs                         .... canonical
   Orbital update algorithm             .... Taylor
   Preconditioner                       .... Diag
   Full preconditioner red. dimension   ....   250
 SOSCF                  CNVSOSCF        .... on
   Start iteration      SOSCFMaxIt      ....   150
   Startup grad/error   SOSCFStart      ....  0.003300
   Hessian update       SOSCFHessUp     .... L-BFGS
 Level Shifting         CNVShift        .... on
   Level shift para.    LevelShift      ....    0.2500
   Turn off err/grad.   ShiftErr        ....    0.0010
 Zerner damping         CNVZerner       .... off
 Static damping         CNVDamp         .... on
   Fraction old density DampFac         ....    0.7000
   Max. Damping (<1)    DampMax         ....    0.9800
   Min. Damping (>=0)   DampMin         ....    0.0000
   Turn off err/grad.   DampErr         ....    0.1000

SCF Procedure:
 Maximum # iterations   MaxIter         ....   125
 SCF integral mode      SCFMode         .... Direct
   Integral package                     .... SHARK and LIBINT hybrid scheme
 Reset frequency        DirectResetFreq ....    20
 Integral Threshold     Thresh          ....  1.000e-09 Eh
 Primitive CutOff       TCut            ....  1.000e-10 Eh

Convergence Tolerance:
 Convergence Check Mode ConvCheckMode   .... Total+1el-Energy
 Convergence forced     ConvForced      .... 0
 Energy Change          TolE            ....  1.000e-05 Eh
 1-El. energy change                    ....  1.000e-02 Eh
 Orbital Gradient       TolG            ....  1.000e-04
 Orbital Rotation angle TolX            ....  1.000e-04
 DIIS Error             TolErr          ....  5.000e-04

------------------------------
INITIAL GUESS: MODEL POTENTIAL
------------------------------
Loading Hartree-Fock densities                     ... done
Calculating cut-offs                               ... done
Initializing the effective Hamiltonian             ... done
Setting up the integral package (SHARK)            ... done
Starting the Coulomb interaction                   ... done (   0.6 sec)
Making the grid                                    ... done (   0.6 sec)
Mapping shells                                     ... done
Starting the XC term evaluation                    ... done (   0.3 sec)
  promolecular density results
     # of electrons  =    201.995708552
     EX              =   -229.997459481
     EC              =     -7.286753831
     EX+EC           =   -237.284213312
Transforming the Hamiltonian                       ... done (   0.0 sec)
Diagonalizing the Hamiltonian                      ... done (   0.0 sec)
Back transforming the eigenvectors                 ... done (   0.0 sec)
Now organizing SCF variables                       ... done
                      ------------------
                      INITIAL GUESS DONE (   1.6 sec)
                      ------------------
             **** ENERGY FILE WAS UPDATED (sp.en.tmp) ****
Finished Guess after   1.9 sec
Maximum memory used throughout the entire GUESS-calculation: 38.9 MB

-------------------------------------------------------------------------------------------
                                      ORCA LEAN-SCF
                              memory conserving SCF solver
-------------------------------------------------------------------------------------------

----------------------------------------D-I-I-S--------------------------------------------
Iteration    Energy (Eh)           Delta-E    RMSDP     MaxDP     DIISErr   Damp  Time(sec)
-------------------------------------------------------------------------------------------
               ***  Starting incremental Fock matrix formation  ***
    1    -2929.1943469281109174     0.00e+00  2.69e-03  1.39e-01  1.85e-01  0.700   2.2
    2    -2929.4198785878547824    -2.26e-01  1.73e-03  7.07e-02  7.54e-02  0.700   2.1
                               ***Turning on AO-DIIS***
    3    -2929.4906179935410364    -7.07e-02  6.80e-04  1.62e-02  2.24e-02  0.700   2.0
    4    -2929.5357044810684783    -4.51e-02  1.04e-03  3.01e-02  1.11e-02  0.000   2.0
    5    -2929.6410615882991806    -1.05e-01  3.09e-04  1.05e-02  8.04e-03  0.000   2.0
                              *** Initializing SOSCF ***
---------------------------------------S-O-S-C-F--------------------------------------
Iteration    Energy (Eh)           Delta-E    RMSDP     MaxDP     MaxGrad    Time(sec)
--------------------------------------------------------------------------------------
    6    -2929.6421536830143850    -1.09e-03  1.09e-04  2.92e-03  2.48e-03     1.9
               *** Restarting incremental Fock matrix formation ***
    7    -2929.6422869832053948    -1.33e-04  7.05e-05  1.40e-03  2.05e-04     2.2
    8    -2929.6422920368408995    -5.05e-06  2.78e-05  6.92e-04  1.49e-04     1.7
                 **** Energy Check signals convergence ****

               *****************************************************
               *                     SUCCESS                       *
               *           SCF CONVERGED AFTER   8 CYCLES          *
               *****************************************************

             **** ENERGY FILE WAS UPDATED (sp.en.tmp) ****

----------------
TOTAL SCF ENERGY
----------------

Total Energy       :      -2929.64229203684090 Eh          -79719.61963 eV

Components:
Nuclear Repulsion  :       2751.65778823931078 Eh           74876.41506 eV
Electronic Energy  :      -5681.30008027615168 Eh         -154596.03469 eV
One Electron Energy:      -9521.69592380824724 Eh         -259098.51840 eV
Two Electron Energy:       3840.39584353209557 Eh          104502.48371 eV

Virial components:
Potential Energy   :      -5848.88603145543129 Eh         -159156.28026 eV
Kinetic Energy     :       2919.24373941859039 Eh           79436.66063 eV
Virial Ratio       :          2.00356207070956

DFT components:
N(Alpha)           :      101.000066492130 electrons
N(Beta)            :      101.000066492130 electrons
N(Total)           :      202.000132984260 electrons
E(X)               :     -231.804632228125 Eh       
E(C)               :       -7.294982587157 Eh       
E(XC)              :     -239.099614815282 Eh       

---------------
SCF CONVERGENCE
---------------

  Last Energy change         ...    5.0536e-06  Tolerance :   1.0000e-05
  Last MAX-Density change    ...    6.9152e-04  Tolerance :   1.0000e-03
  Last RMS-Density change    ...    2.7767e-05  Tolerance :   1.0000e-04
  Last DIIS Error            ...    2.4783e-03  Tolerance :   5.0000e-04
  Last Orbital Gradient      ...    1.4949e-04  Tolerance :   1.0000e-04
  Last Orbital Rotation      ...    3.8681e-04  Tolerance :   1.0000e-04


----------------
ORBITAL ENERGIES
----------------

  NO   OCC          E(Eh)            E(eV) 
   0   2.0000     -88.045461     -2395.8388 
   1   2.0000     -88.043853     -2395.7950 
   2   2.0000     -87.991288     -2394.3647 
   3   2.0000     -87.989783     -2394.3237 
   4   2.0000     -76.431461     -2079.8058 
   5   2.0000     -76.426449     -2079.6694 
   6   2.0000     -18.799402      -511.5577 
   7   2.0000     -18.793483      -511.3967 
   8   2.0000     -18.789054      -511.2761 
   9   2.0000     -18.786734      -511.2130 
  10   2.0000      -9.957312      -270.9522 
  11   2.0000      -9.956763      -270.9373 
  12   2.0000      -9.955242      -270.8959 
  13   2.0000      -9.950207      -270.7589 
  14   2.0000      -9.942423      -270.5471 
  15   2.0000      -9.891178      -269.1526 
  16   2.0000      -9.890147      -269.1246 
  17   2.0000      -9.884494      -268.9708 
  18   2.0000      -9.872662      -268.6488 
  19   2.0000      -7.690420      -209.2670 
  20   2.0000      -7.688409      -209.2122 
  21   2.0000      -7.635822      -207.7813 
  22   2.0000      -7.634653      -207.7495 
  23   2.0000      -6.428909      -174.9395 
  24   2.0000      -6.423784      -174.8000 
  25   2.0000      -5.718481      -155.6078 
  26   2.0000      -5.716224      -155.5464 
  27   2.0000      -5.714901      -155.5104 
  28   2.0000      -5.712875      -155.4552 
  29   2.0000      -5.707240      -155.3019 
  30   2.0000      -5.705591      -155.2570 
  31   2.0000      -5.664627      -154.1423 
  32   2.0000      -5.663429      -154.1097 
  33   2.0000      -5.656582      -153.9234 
  34   2.0000      -5.656020      -153.9081 
  35   2.0000      -5.655266      -153.8876 
  36   2.0000      -5.654972      -153.8796 
  37   2.0000      -4.651552      -126.5752 
  38   2.0000      -4.650688      -126.5516 
  39   2.0000      -4.649277      -126.5133 
  40   2.0000      -4.646063      -126.4258 
  41   2.0000      -4.645833      -126.4195 
  42   2.0000      -4.644222      -126.3757 
  43   2.0000      -0.991463       -26.9791 
  44   2.0000      -0.986901       -26.8549 
  45   2.0000      -0.951174       -25.8828 
  46   2.0000      -0.941512       -25.6199 
  47   2.0000      -0.764335       -20.7986 
  48   2.0000      -0.724486       -19.7143 
  49   2.0000      -0.712302       -19.3827 
  50   2.0000      -0.691236       -18.8095 
  51   2.0000      -0.679794       -18.4981 
  52   2.0000      -0.675056       -18.3692 
  53   2.0000      -0.654372       -17.8064 
  54   2.0000      -0.641188       -17.4476 
  55   2.0000      -0.602662       -16.3993 
  56   2.0000      -0.593380       -16.1467 
  57   2.0000      -0.577660       -15.7189 
  58   2.0000      -0.565652       -15.3922 
  59   2.0000      -0.558664       -15.2020 
  60   2.0000      -0.506704       -13.7881 
  61   2.0000      -0.500694       -13.6246 
  62   2.0000      -0.476081       -12.9548 
  63   2.0000      -0.468995       -12.7620 
  64   2.0000      -0.458653       -12.4806 
  65   2.0000      -0.445715       -12.1285 
  66   2.0000      -0.438620       -11.9355 
  67   2.0000      -0.436602       -11.8805 
  68   2.0000      -0.428698       -11.6655 
  69   2.0000      -0.419315       -11.4101 
  70   2.0000      -0.407736       -11.0951 
  71   2.0000      -0.402959       -10.9651 
  72   2.0000      -0.394915       -10.7462 
  73   2.0000      -0.391708       -10.6589 
  74   2.0000      -0.378701       -10.3050 
  75   2.0000      -0.377367       -10.2687 
  76   2.0000      -0.367891       -10.0108 
  77   2.0000      -0.362110        -9.8535 
  78   2.0000      -0.359086        -9.7712 
  79   2.0000      -0.353545        -9.6204 
  80   2.0000      -0.347159        -9.4467 
  81   2.0000      -0.346204        -9.4207 
  82   2.0000      -0.338763        -9.2182 
  83   2.0000      -0.335716        -9.1353 
  84   2.0000      -0.332430        -9.0459 
  85   2.0000      -0.320099        -8.7103 
  86   2.0000      -0.309345        -8.4177 
  87   2.0000      -0.301942        -8.2163 
  88   2.0000      -0.296620        -8.0715 
  89   2.0000      -0.290321        -7.9000 
  90   2.0000      -0.287509        -7.8235 
  91   2.0000      -0.277986        -7.5644 
  92   2.0000      -0.267029        -7.2662 
  93   2.0000      -0.264854        -7.2070 
  94   2.0000      -0.257651        -7.0111 
  95   2.0000      -0.246031        -6.6949 
  96   2.0000      -0.221962        -6.0399 
  97   2.0000      -0.209960        -5.7133 
  98   2.0000      -0.208948        -5.6858 
  99   2.0000      -0.203835        -5.5466 
 100   2.0000      -0.196550        -5.3484 
 101   0.0000      -0.050696        -1.3795 
 102   0.0000      -0.029971        -0.8155 
 103   0.0000      -0.019712        -0.5364 
 104   0.0000      -0.000260        -0.0071 
 105   0.0000       0.010423         0.2836 
 106   0.0000       0.027719         0.7543 
 107   0.0000       0.036202         0.9851 
 108   0.0000       0.039935         1.0867 
 109   0.0000       0.045678         1.2430 
 110   0.0000       0.047442         1.2910 
 111   0.0000       0.051976         1.4143 
*Only the first 10 virtual orbitals were printed.

                    ********************************
                    * MULLIKEN POPULATION ANALYSIS *
                    ********************************

-----------------------
MULLIKEN ATOMIC CHARGES
-----------------------
   0 C :   -0.345212
   1 C :    0.001405
   2 O :   -0.364425
   3 P :    0.605116
   4 S :   -0.316161
   5 O :   -0.373352
   6 C :   -0.006918
   7 C :   -0.312030
   8 S :   -0.091055
   9 C :   -0.355004
  10 S :   -0.108366
  11 P :    0.617116
  12 S :   -0.330740
  13 O :   -0.350402
  14 C :   -0.034680
  15 C :   -0.317044
  16 O :   -0.360377
  17 C :   -0.007971
  18 C :   -0.281136
  19 H :    0.118247
  20 H :    0.126622
  21 H :    0.138661
  22 H :    0.110989
  23 H :    0.108206
  24 H :    0.109136
  25 H :    0.114060
  26 H :    0.134441
  27 H :    0.119001
  28 H :    0.115684
  29 H :    0.192130
  30 H :    0.193452
  31 H :    0.103427
  32 H :    0.135339
  33 H :    0.133337
  34 H :    0.114714
  35 H :    0.111775
  36 H :    0.103378
  37 H :    0.100329
  38 H :    0.117966
  39 H :    0.120628
  40 H :    0.109714
Sum of atomic charges:    0.0000000

--------------------------------
MULLIKEN REDUCED ORBITAL CHARGES
--------------------------------
  0 C s       :     3.122463  s :     3.122463
      pz      :     1.047638  p :     3.194732
      px      :     1.076647
      py      :     1.070447
      dz2     :     0.006468  d :     0.028018
      dxz     :     0.004384
      dyz     :     0.006523
      dx2y2   :     0.008103
      dxy     :     0.002539

  1 C s       :     3.072206  s :     3.072206
      pz      :     1.049046  p :     2.865741
      px      :     1.064957
      py      :     0.751737
      dz2     :     0.010692  d :     0.060648
      dxz     :     0.005336
      dyz     :     0.016937
      dx2y2   :     0.018897
      dxy     :     0.008787

  2 O s       :     3.755106  s :     3.755106
      pz      :     1.716567  p :     4.596215
      px      :     1.471934
      py      :     1.407714
      dz2     :     0.001908  d :     0.013104
      dxz     :     0.002345
      dyz     :     0.001799
      dx2y2   :     0.004722
      dxy     :     0.002329

  3 P s       :     5.221754  s :     5.221754
      pz      :     2.904167  p :     8.588281
      px      :     2.854137
      py      :     2.829978
      dz2     :     0.100873  d :     0.584849
      dxz     :     0.130605
      dyz     :     0.105522
      dx2y2   :     0.132898
      dxy     :     0.114951

  4 S s       :     5.920193  s :     5.920193
      pz      :     3.326071  p :    10.352937
      px      :     3.623598
      py      :     3.403267
      dz2     :     0.008230  d :     0.043031
      dxz     :     0.007558
      dyz     :     0.014903
      dx2y2   :     0.005707
      dxy     :     0.006633

  5 O s       :     3.752076  s :     3.752076
      pz      :     1.403069  p :     4.608448
      px      :     1.748337
      py      :     1.457041
      dz2     :     0.003990  d :     0.012828
      dxz     :     0.001606
      dyz     :     0.002464
      dx2y2   :     0.002567
      dxy     :     0.002201

  6 C s       :     3.077035  s :     3.077035
      pz      :     0.740054  p :     2.870636
      px      :     1.078749
      py      :     1.051834
      dz2     :     0.018226  d :     0.059247
      dxz     :     0.009174
      dyz     :     0.015195
      dx2y2   :     0.009603
      dxy     :     0.007049

  7 C s       :     3.106697  s :     3.106697
      pz      :     1.059872  p :     3.177527
      px      :     1.064915
      py      :     1.052740
      dz2     :     0.006803  d :     0.027806
      dxz     :     0.001697
      dyz     :     0.006243
      dx2y2   :     0.007421
      dxy     :     0.005642

  8 S s       :     5.877090  s :     5.877090
      pz      :     3.322769  p :    10.139099
      px      :     3.348500
      py      :     3.467831
      dz2     :     0.013739  d :     0.074866
      dxz     :     0.022612
      dyz     :     0.014911
      dx2y2   :     0.008908
      dxy     :     0.014695

  9 C s       :     3.215327  s :     3.215327
      pz      :     1.027811  p :     3.099789
      px      :     1.024953
      py      :     1.047025
      dz2     :     0.005426  d :     0.039887
      dxz     :     0.011667
      dyz     :     0.007583
      dx2y2   :     0.005958
      dxy     :     0.009254

 10 S s       :     5.884132  s :     5.884132
      pz      :     3.268020  p :    10.149494
      px      :     3.257173
      py      :     3.624300
      dz2     :     0.014632  d :     0.074740
      dxz     :     0.026942
      dyz     :     0.013907
      dx2y2   :     0.007458
      dxy     :     0.011801

 11 P s       :     5.225818  s :     5.225818
      pz      :     2.860110  p :     8.569410
      px      :     2.866513
      py      :     2.842788
      dz2     :     0.113287  d :     0.587655
      dxz     :     0.128326
      dyz     :     0.121088
      dx2y2   :     0.133239
      dxy     :     0.091716

 12 S s       :     5.922495  s :     5.922495
      pz      :     3.094183  p :    10.365283
      px      :     3.642435
      py      :     3.628665
      dz2     :     0.019300  d :     0.042963
      dxz     :     0.008743
      dyz     :     0.012214
      dx2y2   :     0.001186
      dxy     :     0.001519

 13 O s       :     3.746285  s :     3.746285
      pz      :     1.745136  p :     4.591222
      px      :     1.549145
      py      :     1.296941
      dz2     :     0.001715  d :     0.012896
      dxz     :     0.001745
      dyz     :     0.002474
      dx2y2   :     0.004322
      dxy     :     0.002641

 14 C s       :     3.094387  s :     3.094387
      pz      :     1.053674  p :     2.879967
      px      :     0.888355
      py      :     0.937938
      dz2     :     0.009986  d :     0.060326
      dxz     :     0.012526
      dyz     :     0.011370
      dx2y2   :     0.011485
      dxy     :     0.014959

 15 C s       :     3.108814  s :     3.108814
      pz      :     1.019932  p :     3.180337
      px      :     1.072002
      py      :     1.088404
      dz2     :     0.006586  d :     0.027893
      dxz     :     0.005644
      dyz     :     0.005522
      dx2y2   :     0.003309
      dxy     :     0.006832

 16 O s       :     3.759689  s :     3.759689
      pz      :     1.668836  p :     4.587496
      px      :     1.437507
      py      :     1.481153
      dz2     :     0.002291  d :     0.013192
      dxz     :     0.003009
      dyz     :     0.002236
      dx2y2   :     0.003648
      dxy     :     0.002008

 17 C s       :     3.070471  s :     3.070471
      pz      :     1.088845  p :     2.877679
      px      :     0.964144
      py      :     0.824690
      dz2     :     0.009151  d :     0.059821
      dxz     :     0.007388
      dyz     :     0.013773
      dx2y2   :     0.012893
      dxy     :     0.016617

 18 C s       :     3.093706  s :     3.093706
      pz      :     1.093827  p :     3.159603
      px      :     1.005525
      py      :     1.060252
      dz2     :     0.005757  d :     0.027827
      dxz     :     0.004538
      dyz     :     0.006776
      dx2y2   :     0.004416
      dxy     :     0.006340

 19 H s       :     0.881753  s :     0.881753

 20 H s       :     0.873378  s :     0.873378

 21 H s       :     0.861339  s :     0.861339

 22 H s       :     0.889011  s :     0.889011

 23 H s       :     0.891794  s :     0.891794

 24 H s       :     0.890864  s :     0.890864

 25 H s       :     0.885940  s :     0.885940

 26 H s       :     0.865559  s :     0.865559

 27 H s       :     0.880999  s :     0.880999

 28 H s       :     0.884316  s :     0.884316

 29 H s       :     0.807870  s :     0.807870

 30 H s       :     0.806548  s :     0.806548

 31 H s       :     0.896573  s :     0.896573

 32 H s       :     0.864661  s :     0.864661

 33 H s       :     0.866663  s :     0.866663

 34 H s       :     0.885286  s :     0.885286

 35 H s       :     0.888225  s :     0.888225

 36 H s       :     0.896622  s :     0.896622

 37 H s       :     0.899671  s :     0.899671

 38 H s       :     0.882034  s :     0.882034

 39 H s       :     0.879372  s :     0.879372

 40 H s       :     0.890286  s :     0.890286


------------------------
MULLIKEN OVERLAP CHARGES
------------------------
B(  0-C ,  1-C ) :   0.9181 B(  0-C ,  2-O ) :  -0.0946 B(  0-C , 19-H ) :   0.6896 
B(  0-C , 20-H ) :   0.7272 B(  0-C , 21-H ) :   0.7261 B(  0-C , 22-H ) :  -0.0684 
B(  1-C ,  2-O ) :   0.5655 B(  1-C ,  3-P ) :  -0.0759 B(  1-C , 21-H ) :  -0.0501 
B(  1-C , 22-H ) :   0.7159 B(  1-C , 23-H ) :   0.7245 B(  2-O ,  3-P ) :   0.6372 
B(  2-O ,  4-S ) :  -0.0811 B(  2-O ,  5-O ) :  -0.0570 B(  2-O ,  8-S ) :  -0.0724 
B(  2-O , 22-H ) :  -0.0680 B(  2-O , 23-H ) :  -0.0561 B(  3-P ,  4-S ) :   0.9266 
B(  3-P ,  5-O ) :   0.6210 B(  3-P ,  6-C ) :  -0.0856 B(  3-P ,  8-S ) :   0.5483 
B(  3-P ,  9-C ) :  -0.0686 B(  4-S ,  5-O ) :  -0.0649 B(  4-S ,  8-S ) :  -0.0801 
B(  4-S , 22-H ) :   0.0660 B(  4-S , 25-H ) :   0.0857 B(  4-S , 32-H ) :   0.0641 
B(  5-O ,  6-C ) :   0.5441 B(  5-O ,  7-C ) :  -0.1126 B(  5-O ,  8-S ) :  -0.0898 
B(  5-O , 24-H ) :  -0.0585 B(  5-O , 25-H ) :  -0.0650 B(  6-C ,  7-C ) :   0.8922 
B(  6-C , 24-H ) :   0.7336 B(  6-C , 25-H ) :   0.6950 B(  7-C , 24-H ) :  -0.0593 
B(  7-C , 25-H ) :  -0.0541 B(  7-C , 26-H ) :   0.7351 B(  7-C , 27-H ) :   0.7416 
B(  7-C , 28-H ) :   0.6959 B(  8-S ,  9-C ) :   0.4784 B(  8-S , 10-S ) :  -0.1652 
B(  8-S , 29-H ) :  -0.0678 B(  8-S , 30-H ) :  -0.0517 B(  9-C , 10-S ) :   0.5047 
B(  9-C , 11-P ) :  -0.0650 B(  9-C , 12-S ) :  -0.0504 B(  9-C , 29-H ) :   0.6970 
B(  9-C , 30-H ) :   0.6319 B( 10-S , 11-P ) :   0.4836 B( 10-S , 12-S ) :  -0.1016 
B( 10-S , 13-O ) :  -0.0665 B( 10-S , 16-O ) :  -0.0630 B( 10-S , 29-H ) :  -0.0648 
B( 10-S , 30-H ) :  -0.0525 B( 11-P , 12-S ) :   0.9202 B( 11-P , 13-O ) :   0.6819 
B( 11-P , 14-C ) :  -0.0957 B( 11-P , 16-O ) :   0.6756 B( 11-P , 17-C ) :  -0.1020 
B( 12-S , 13-O ) :  -0.0619 B( 12-S , 16-O ) :  -0.0689 B( 12-S , 30-H ) :   0.1204 
B( 12-S , 36-H ) :   0.0829 B( 13-O , 14-C ) :   0.5654 B( 13-O , 15-C ) :  -0.1038 
B( 13-O , 16-O ) :  -0.0855 B( 13-O , 31-H ) :  -0.0566 B( 13-O , 32-H ) :  -0.0517 
B( 14-C , 15-C ) :   0.9045 B( 14-C , 31-H ) :   0.7286 B( 14-C , 32-H ) :   0.7068 
B( 15-C , 32-H ) :  -0.0706 B( 15-C , 33-H ) :   0.7385 B( 15-C , 34-H ) :   0.7180 
B( 15-C , 35-H ) :   0.6839 B( 16-O , 17-C ) :   0.5631 B( 16-O , 18-C ) :  -0.1159 
B( 16-O , 36-H ) :  -0.0678 B( 16-O , 37-H ) :  -0.0643 B( 17-C , 18-C ) :   0.8581 
B( 17-C , 36-H ) :   0.6779 B( 17-C , 37-H ) :   0.7320 B( 18-C , 37-H ) :  -0.0596 
B( 18-C , 38-H ) :   0.7458 B( 18-C , 39-H ) :   0.7317 B( 18-C , 40-H ) :   0.6974 
B( 20-H , 21-H ) :  -0.0565 B( 22-H , 23-H ) :  -0.0649 B( 24-H , 25-H ) :  -0.0638 
B( 26-H , 27-H ) :  -0.0565 B( 31-H , 32-H ) :  -0.0611 B( 33-H , 34-H ) :  -0.0516 
B( 36-H , 37-H ) :  -0.0709 B( 38-H , 39-H ) :  -0.0528 


                     *******************************
                     * LOEWDIN POPULATION ANALYSIS *
                     *******************************

----------------------
LOEWDIN ATOMIC CHARGES
----------------------
   0 C :   -0.372523
   1 C :   -0.119782
   2 O :   -0.243864
   3 P :    0.568455
   4 S :   -0.306867
   5 O :   -0.241286
   6 C :   -0.115998
   7 C :   -0.359786
   8 S :    0.096131
   9 C :   -0.483805
  10 S :    0.076639
  11 P :    0.570516
  12 S :   -0.308919
  13 O :   -0.226262
  14 C :   -0.122276
  15 C :   -0.371475
  16 O :   -0.236334
  17 C :   -0.120713
  18 C :   -0.350806
  19 H :    0.133786
  20 H :    0.127413
  21 H :    0.120504
  22 H :    0.109925
  23 H :    0.120384
  24 H :    0.118858
  25 H :    0.109010
  26 H :    0.121789
  27 H :    0.124963
  28 H :    0.133434
  29 H :    0.132919
  30 H :    0.127375
  31 H :    0.119930
  32 H :    0.099345
  33 H :    0.113874
  34 H :    0.125735
  35 H :    0.126848
  36 H :    0.104946
  37 H :    0.111609
  38 H :    0.127356
  39 H :    0.129388
  40 H :    0.129561

-------------------------------
LOEWDIN REDUCED ORBITAL CHARGES
-------------------------------
  0 C s       :     2.954787  s :     2.954787
      pz      :     1.101930  p :     3.348590
      px      :     1.121283
      py      :     1.125377
      dz2     :     0.014787  d :     0.069146
      dxz     :     0.012205
      dyz     :     0.016694
      dx2y2   :     0.019521
      dxy     :     0.005940

  1 C s       :     2.926979  s :     2.926979
      pz      :     1.107403  p :     3.057169
      px      :     1.105799
      py      :     0.843968
      dz2     :     0.023033  d :     0.135633
      dxz     :     0.013390
      dyz     :     0.038423
      dx2y2   :     0.042586
      dxy     :     0.018200

  2 O s       :     3.501935  s :     3.501935
      pz      :     1.722800  p :     4.717999
      px      :     1.537411
      py      :     1.457788
      dz2     :     0.002984  d :     0.023931
      dxz     :     0.004142
      dyz     :     0.003147
      dx2y2   :     0.009589
      dxy     :     0.004068

  3 P s       :     5.061309  s :     5.061309
      pz      :     2.898596  p :     8.556571
      px      :     2.844599
      py      :     2.813376
      dz2     :     0.135368  d :     0.813664
      dxz     :     0.186832
      dyz     :     0.147770
      dx2y2   :     0.192078
      dxy     :     0.151616

  4 S s       :     5.768594  s :     5.768594
      pz      :     3.394948  p :    10.480498
      px      :     3.634451
      py      :     3.451100
      dz2     :     0.009847  d :     0.057775
      dxz     :     0.009757
      dyz     :     0.022700
      dx2y2   :     0.006943
      dxy     :     0.008528

  5 O s       :     3.497278  s :     3.497278
      pz      :     1.452178  p :     4.720580
      px      :     1.742658
      py      :     1.525744
      dz2     :     0.008026  d :     0.023428
      dxz     :     0.002761
      dyz     :     0.004572
      dx2y2   :     0.004787
      dxy     :     0.003282

  6 C s       :     2.930794  s :     2.930794
      pz      :     0.830641  p :     3.052693
      px      :     1.113899
      py      :     1.108153
      dz2     :     0.040836  d :     0.132511
      dxz     :     0.019341
      dyz     :     0.033602
      dx2y2   :     0.019891
      dxy     :     0.018840

  7 C s       :     2.953179  s :     2.953179
      pz      :     1.121680  p :     3.337702
      px      :     1.111399
      py      :     1.104623
      dz2     :     0.016962  d :     0.068905
      dxz     :     0.003948
      dyz     :     0.015667
      dx2y2   :     0.016500
      dxy     :     0.015828

  8 S s       :     5.639519  s :     5.639519
      pz      :     3.357082  p :    10.170314
      px      :     3.348620
      py      :     3.464613
      dz2     :     0.016159  d :     0.094036
      dxz     :     0.028879
      dyz     :     0.018392
      dx2y2   :     0.010697
      dxy     :     0.019908

  9 C s       :     3.062677  s :     3.062677
      pz      :     1.114168  p :     3.333056
      px      :     1.110866
      py      :     1.108022
      dz2     :     0.011860  d :     0.088072
      dxz     :     0.026770
      dyz     :     0.017009
      dx2y2   :     0.011501
      dxy     :     0.020933

 10 S s       :     5.647174  s :     5.647174
      pz      :     3.322480  p :    10.181808
      px      :     3.254228
      py      :     3.605100
      dz2     :     0.016668  d :     0.094379
      dxz     :     0.035870
      dyz     :     0.016656
      dx2y2   :     0.009935
      dxy     :     0.015250

 11 P s       :     5.059113  s :     5.059113
      pz      :     2.902741  p :     8.551995
      px      :     2.840964
      py      :     2.808291
      dz2     :     0.159532  d :     0.818376
      dxz     :     0.183995
      dyz     :     0.160755
      dx2y2   :     0.196622
      dxy     :     0.117472

 12 S s       :     5.766656  s :     5.766656
      pz      :     3.197928  p :    10.485030
      px      :     3.648510
      py      :     3.638591
      dz2     :     0.028778  d :     0.057233
      dxz     :     0.009881
      dyz     :     0.015635
      dx2y2   :     0.001251
      dxy     :     0.001688

 13 O s       :     3.489594  s :     3.489594
      pz      :     1.744521  p :     4.712999
      px      :     1.579625
      py      :     1.388853
      dz2     :     0.002792  d :     0.023670
      dxz     :     0.002503
      dyz     :     0.004330
      dx2y2   :     0.009046
      dxy     :     0.004999

 14 C s       :     2.926094  s :     2.926094
      pz      :     1.103174  p :     3.061265
      px      :     0.957964
      py      :     1.000127
      dz2     :     0.026552  d :     0.134917
      dxz     :     0.026316
      dyz     :     0.024092
      dx2y2   :     0.025222
      dxy     :     0.032736

 15 C s       :     2.953963  s :     2.953963
      pz      :     1.079128  p :     3.348343
      px      :     1.129854
      py      :     1.139361
      dz2     :     0.018697  d :     0.069170
      dxz     :     0.013129
      dyz     :     0.012720
      dx2y2   :     0.008087
      dxy     :     0.016538

 16 O s       :     3.499400  s :     3.499400
      pz      :     1.701113  p :     4.713125
      px      :     1.490301
      py      :     1.521710
      dz2     :     0.003395  d :     0.023810
      dxz     :     0.006184
      dyz     :     0.003242
      dx2y2   :     0.006999
      dxy     :     0.003991

 17 C s       :     2.929710  s :     2.929710
      pz      :     1.142513  p :     3.057692
      px      :     1.017725
      py      :     0.897455
      dz2     :     0.021124  d :     0.133310
      dxz     :     0.013562
      dyz     :     0.031857
      dx2y2   :     0.031523
      dxy     :     0.035244

 18 C s       :     2.951605  s :     2.951605
      pz      :     1.137133  p :     3.330131
      px      :     1.069539
      py      :     1.123459
      dz2     :     0.014658  d :     0.069070
      dxz     :     0.009455
      dyz     :     0.016522
      dx2y2   :     0.012671
      dxy     :     0.015765

 19 H s       :     0.866214  s :     0.866214

 20 H s       :     0.872587  s :     0.872587

 21 H s       :     0.879496  s :     0.879496

 22 H s       :     0.890075  s :     0.890075

 23 H s       :     0.879616  s :     0.879616

 24 H s       :     0.881142  s :     0.881142

 25 H s       :     0.890990  s :     0.890990

 26 H s       :     0.878211  s :     0.878211

 27 H s       :     0.875037  s :     0.875037

 28 H s       :     0.866566  s :     0.866566

 29 H s       :     0.867081  s :     0.867081

 30 H s       :     0.872625  s :     0.872625

 31 H s       :     0.880070  s :     0.880070

 32 H s       :     0.900655  s :     0.900655

 33 H s       :     0.886126  s :     0.886126

 34 H s       :     0.874265  s :     0.874265

 35 H s       :     0.873152  s :     0.873152

 36 H s       :     0.895054  s :     0.895054

 37 H s       :     0.888391  s :     0.888391

 38 H s       :     0.872644  s :     0.872644

 39 H s       :     0.870612  s :     0.870612

 40 H s       :     0.870439  s :     0.870439


---------------------------------
LOEWDIN BOND ORDERS (THRESH 0.050000)
---------------------------------
B(  0-C ,  1-C ) :   1.1561 B(  0-C ,  2-O ) :   0.0607 B(  0-C , 19-H ) :   0.9249 
B(  0-C , 20-H ) :   0.9347 B(  0-C , 21-H ) :   0.9247 B(  1-C ,  2-O ) :   1.0956 
B(  1-C ,  3-P ) :   0.0654 B(  1-C , 22-H ) :   0.9069 B(  1-C , 23-H ) :   0.9166 
B(  2-O ,  3-P ) :   1.2761 B(  2-O ,  4-S ) :   0.0969 B(  2-O ,  8-S ) :   0.0601 
B(  3-P ,  4-S ) :   1.7096 B(  3-P ,  5-O ) :   1.2900 B(  3-P ,  6-C ) :   0.0662 
B(  3-P ,  8-S ) :   1.0614 B(  4-S ,  5-O ) :   0.0944 B(  4-S ,  8-S ) :   0.1165 
B(  5-O ,  6-C ) :   1.0715 B(  5-O ,  7-C ) :   0.0603 B(  5-O ,  8-S ) :   0.0546 
B(  6-C ,  7-C ) :   1.1575 B(  6-C , 24-H ) :   0.9172 B(  6-C , 25-H ) :   0.9005 
B(  7-C , 26-H ) :   0.9277 B(  7-C , 27-H ) :   0.9368 B(  7-C , 28-H ) :   0.9260 
B(  8-S ,  9-C ) :   1.1602 B(  8-S , 10-S ) :   0.1028 B(  9-C , 10-S ) :   1.1775 
B(  9-C , 29-H ) :   0.9205 B(  9-C , 30-H ) :   0.8939 B( 10-S , 11-P ) :   1.0377 
B( 10-S , 12-S ) :   0.1374 B( 10-S , 13-O ) :   0.0684 B( 10-S , 16-O ) :   0.0597 
B( 11-P , 12-S ) :   1.7098 B( 11-P , 13-O ) :   1.3098 B( 11-P , 14-C ) :   0.0622 
B( 11-P , 16-O ) :   1.2885 B( 11-P , 17-C ) :   0.0684 B( 12-S , 13-O ) :   0.0877 
B( 12-S , 16-O ) :   0.0882 B( 12-S , 30-H ) :   0.0742 B( 13-O , 14-C ) :   1.0902 
B( 13-O , 15-C ) :   0.0579 B( 14-C , 15-C ) :   1.1558 B( 14-C , 31-H ) :   0.9159 
B( 14-C , 32-H ) :   0.8955 B( 15-C , 33-H ) :   0.9246 B( 15-C , 34-H ) :   0.9337 
B( 15-C , 35-H ) :   0.9246 B( 16-O , 17-C ) :   1.0821 B( 16-O , 18-C ) :   0.0596 
B( 17-C , 18-C ) :   1.1561 B( 17-C , 36-H ) :   0.9014 B( 17-C , 37-H ) :   0.9180 
B( 18-C , 38-H ) :   0.9372 B( 18-C , 39-H ) :   0.9366 B( 18-C , 40-H ) :   0.9291 


------------------------------------------
LOEWDIN REDUCED ORBITAL POPULATIONS PER MO
-------------------------------------------
THRESHOLD FOR PRINTING IS 0.1%%
                      0         1         2         3         4         5   
                 -88.04546 -88.04385 -87.99129 -87.98978 -76.43146 -76.42645
                   2.00000   2.00000   2.00000   2.00000   2.00000   2.00000
                  --------  --------  --------  --------  --------  --------
 3 P  s               0.0       0.0       0.0       0.0     100.0       0.0
 4 S  s               0.0       0.0     100.0       0.0       0.0       0.0
 8 S  s             100.0       0.0       0.0       0.0       0.0       0.0
10 S  s               0.0     100.0       0.0       0.0       0.0       0.0
11 P  s               0.0       0.0       0.0       0.0       0.0     100.0
12 S  s               0.0       0.0       0.0     100.0       0.0       0.0

                      6         7         8         9        10        11   
                 -18.79940 -18.79348 -18.78905 -18.78673  -9.95731  -9.95676
                   2.00000   2.00000   2.00000   2.00000   2.00000   2.00000
                  --------  --------  --------  --------  --------  --------
 2 O  s               0.0      99.9       0.0       0.0       0.0       0.0
 5 O  s              99.9       0.0       0.0       0.0       0.0       0.0
 6 C  s               0.0       0.0       0.0       0.0      99.6       0.0
 9 C  s               0.0       0.0       0.0       0.0       0.0      99.8
13 O  s               0.0       0.0       0.0      99.9       0.0       0.0
16 O  s               0.0       0.0      99.9       0.0       0.0       0.0

                     12        13        14        15        16        17   
                  -9.95524  -9.95021  -9.94242  -9.89118  -9.89015  -9.88449
                   2.00000   2.00000   2.00000   2.00000   2.00000   2.00000
                  --------  --------  --------  --------  --------  --------
 0 C  s               0.0       0.0       0.0       0.0      99.7       0.0
 1 C  s              99.7       0.0       0.0       0.0       0.0       0.0
 7 C  s               0.0       0.0       0.0      99.7       0.0       0.0
14 C  s               0.0       0.0      99.7       0.0       0.0       0.0
15 C  pz              0.0       0.0       0.1       0.0       0.0       0.0
17 C  s               0.0      99.7       0.0       0.0       0.0       0.0
17 C  px              0.0       0.0       0.0       0.0       0.0       0.1
18 C  s               0.0       0.0       0.0       0.0       0.0      99.7
18 C  px              0.0       0.1       0.0       0.0       0.0       0.0

                     18        19        20        21        22        23   
                  -9.87266  -7.69042  -7.68841  -7.63582  -7.63465  -6.42891
                   2.00000   2.00000   2.00000   2.00000   2.00000   2.00000
                  --------  --------  --------  --------  --------  --------
 2 O  px              0.0       0.0       0.0       0.0       0.0       0.2
 3 P  s               0.0       0.0       0.0       0.0       0.0      99.3
 4 S  s               0.0       0.0       0.0      99.9       0.0       0.0
 5 O  py              0.0       0.0       0.0       0.0       0.0       0.2
 8 S  s               0.0      99.7       0.0       0.0       0.0       0.0
10 S  s               0.0       0.0      99.7       0.0       0.0       0.0
12 S  s               0.0       0.0       0.0       0.0      99.9       0.0
14 C  pz              0.1       0.0       0.0       0.0       0.0       0.0
15 C  s              99.7       0.0       0.0       0.0       0.0       0.0

                     24        25        26        27        28        29   
                  -6.42378  -5.71848  -5.71622  -5.71490  -5.71287  -5.70724
                   2.00000   2.00000   2.00000   2.00000   2.00000   2.00000
                  --------  --------  --------  --------  --------  --------
 8 S  pz              0.0      11.6       0.0      82.9       0.0       5.5
 8 S  px              0.0      56.1       0.0       1.3       0.0      42.6
 8 S  py              0.0      32.3       0.0      15.8       0.0      51.9
10 S  pz              0.0       0.0       3.4       0.0      96.6       0.0
10 S  px              0.0       0.0      71.7       0.0       2.1       0.0
10 S  py              0.0       0.0      24.9       0.0       1.3       0.0
11 P  s              99.3       0.0       0.0       0.0       0.0       0.0
13 O  py              0.2       0.0       0.0       0.0       0.0       0.0
16 O  px              0.2       0.0       0.0       0.0       0.0       0.0

                     30        31        32        33        34        35   
                  -5.70559  -5.66463  -5.66343  -5.65658  -5.65602  -5.65527
                   2.00000   2.00000   2.00000   2.00000   2.00000   2.00000
                  --------  --------  --------  --------  --------  --------
 4 S  pz              0.0      52.1       0.0      47.8       0.1       0.0
 4 S  px              0.0       7.4       0.0       5.9      86.7       0.0
 4 S  py              0.0      40.5       0.0      46.3      13.2       0.0
10 S  px             26.2       0.0       0.0       0.0       0.0       0.0
10 S  py             73.8       0.0       0.0       0.0       0.0       0.0
12 S  pz              0.0       0.0      89.3       0.0       0.0       2.9
12 S  px              0.0       0.0       3.2       0.0       0.0      96.7
12 S  py              0.0       0.0       7.4       0.0       0.0       0.3

                     36        37        38        39        40        41   
                  -5.65497  -4.65155  -4.65069  -4.64928  -4.64606  -4.64583
                   2.00000   2.00000   2.00000   2.00000   2.00000   2.00000
                  --------  --------  --------  --------  --------  --------
 3 P  pz              0.0      20.4       0.0      79.5       0.0       0.0
 3 P  px              0.0       2.7      96.2       1.0       0.0       0.0
 3 P  py              0.0      76.8       3.7      19.4       0.0       0.0
11 P  pz              0.0       0.0       0.0       0.0      20.5       1.3
11 P  px              0.0       0.0       0.0       0.0      78.2       3.3
11 P  py              0.0       0.0       0.0       0.0       1.2      95.3
12 S  pz              7.7       0.0       0.0       0.0       0.0       0.0
12 S  py             92.3       0.0       0.0       0.0       0.0       0.0

                     42        43        44        45        46        47   
                  -4.64422  -0.99146  -0.98690  -0.95117  -0.94151  -0.76433
                   2.00000   2.00000   2.00000   2.00000   2.00000   2.00000
                  --------  --------  --------  --------  --------  --------
 0 C  s               0.0       0.2       0.0       0.4       0.0       0.1
 0 C  pz              0.0       0.2       0.0       0.3       0.0       0.0
 0 C  py              0.0       0.1       0.0       0.2       0.0       0.0
 1 C  s               0.0       2.9       0.0       5.2       0.0       0.4
 1 C  pz              0.0       0.2       0.0       0.2       0.0       0.0
 1 C  px              0.0       0.3       0.0       0.4       0.0       0.0
 1 C  py              0.0       2.8       0.0       4.0       0.0       0.0
 1 C  dx2y2           0.0       0.1       0.0       0.2       0.0       0.0
 2 O  s               0.0      25.2       0.0      33.5       0.0       0.2
 2 O  pz              0.0       0.1       0.0       0.0       0.0       0.0
 2 O  px              0.0       1.2       0.0       0.4       0.0       0.3
 2 O  py              0.0       0.1       0.0       1.1       0.0       0.2
 3 P  s               0.0      14.2       0.0       0.0       0.0       2.9
 3 P  pz              0.0       0.0       0.0       2.3       0.0       0.9
 3 P  px              0.0       3.2       0.0       2.2       0.0       1.5
 3 P  py              0.0       1.7       0.0       6.3       0.0       0.0
 3 P  dz2             0.0       0.3       0.0       0.0       0.0       0.0
 3 P  dxz             0.0       0.2       0.0       0.6       0.0       0.1
 3 P  dyz             0.0       0.5       0.0       0.1       0.0       0.1
 3 P  dx2y2           0.0       0.0       0.0       1.9       0.0       0.0
 3 P  dxy             0.0       0.0       0.0       0.7       0.0       0.0
 4 S  s               0.0       0.3       0.0       0.0       0.0       0.4
 4 S  pz              0.0       0.2       0.0       0.0       0.0       0.1
 4 S  py              0.0       0.2       0.0       0.0       0.0       0.1
 5 O  s               0.0      32.1       0.0      27.1       0.0       0.3
 5 O  pz              0.0       0.2       0.0       0.7       0.0       0.7
 5 O  px              0.0       0.0       0.0       0.0       0.0       0.1
 5 O  py              0.0       1.5       0.0       0.2       0.0       0.4
 6 C  s               0.0       3.6       0.0       4.0       0.0       0.9
 6 C  pz              0.0       3.6       0.0       3.2       0.0       0.1
 6 C  py              0.0       0.4       0.0       0.3       0.0       0.0
 6 C  dz2             0.0       0.2       0.0       0.2       0.0       0.0
 7 C  s               0.0       0.2       0.0       0.3       0.0       0.2
 7 C  pz              0.0       0.1       0.0       0.1       0.0       0.0
 7 C  px              0.0       0.1       0.0       0.1       0.0       0.1
 7 C  py              0.0       0.2       0.0       0.2       0.0       0.0
 8 S  s               0.0       0.3       0.0       0.0       0.0      19.6
 8 S  pz              0.0       0.3       0.0       0.0       0.0       1.5
 8 S  px              0.0       0.1       0.0       0.0       0.0       0.5
 8 S  py              0.0       0.0       0.0       0.0       0.0       0.9
 8 S  dxy             0.0       0.0       0.0       0.0       0.0       0.2
 9 C  s               0.0       0.0       0.0       0.0       0.0      26.3
 9 C  pz              0.0       0.0       0.0       0.0       0.0       0.3
 9 C  py              0.0       0.0       0.0       0.0       0.0       2.3
10 S  s               0.0       0.0       0.3       0.0       0.0      17.6
10 S  pz              0.0       0.0       0.1       0.0       0.0       2.4
10 S  px              0.0       0.0       0.2       0.0       0.0       0.4
11 P  s               0.0       0.0      14.3       0.0       0.0       2.1
11 P  pz             78.1       0.0       2.0       0.0       0.6       0.0
11 P  px             18.5       0.0       1.8       0.0       3.2       1.3
11 P  py              3.4       0.0       1.6       0.0       6.5       0.6
11 P  dz2             0.0       0.0       0.2       0.0       0.2       0.0
11 P  dxz             0.0       0.0       0.6       0.0       0.7       0.1
11 P  dyz             0.0       0.0       0.0       0.0       0.3       0.0
11 P  dx2y2           0.0       0.0       0.1       0.0       2.2       0.0
[...]
 1 C  dx2y2           1.1       0.2       3.1       0.0
 1 C  dxy             0.2       0.1       1.6       0.0
 2 O  s               0.4       0.0       0.2       0.0
 2 O  pz              0.0       0.0       0.7       0.0
 2 O  px              0.1       0.1       1.8       0.0
 2 O  py              0.3       0.2       2.9       0.0
 2 O  dz2             1.8       0.1       1.9       0.0
 2 O  dxz             0.1       0.2       2.5       0.0
 2 O  dyz             1.1       0.2       2.9       0.0
 2 O  dx2y2           6.2       2.9      43.3       0.0
 2 O  dxy             1.4       0.0       0.3       0.0
 3 P  s               0.4       0.0       0.0       0.0
 3 P  pz              0.1       0.0       0.6       0.0
 3 P  px              0.1       0.0       0.4       0.0
 3 P  py              0.3       0.1       1.8       0.0
 3 P  dxz             0.0       0.0       0.2       0.0
 3 P  dyz             0.7       0.0       0.0       0.0
 3 P  dx2y2           0.0       0.0       0.6       0.0
 3 P  dxy             0.0       0.1       0.9       0.0
 5 O  s               1.6       0.0       0.6       0.0
 5 O  pz              3.3       0.1       0.8       0.0
 5 O  px              0.1       0.0       0.0       0.0
 5 O  py              1.5       0.1       1.3       0.0
 5 O  dz2            52.9       0.6       7.8       0.0
 5 O  dxz             1.2       0.0       0.0       0.0
 5 O  dyz             5.8       0.1       2.1       0.0
 5 O  dx2y2           1.1       0.5       7.5       0.0
 5 O  dxy             0.2       0.0       0.6       0.0
 6 C  s               1.6       0.0       0.2       0.0
 6 C  pz              2.7       0.0       0.2       0.0
 6 C  py              0.3       0.0       0.0       0.0
 6 C  dz2             8.0       0.0       0.2       0.0
 6 C  dxz             0.6       0.0       0.0       0.0
 6 C  dyz             2.2       0.1       0.6       0.0
 6 C  dxy             0.2       0.0       0.0       0.0
 7 C  dxz             0.2       0.0       0.0       0.0
 7 C  dyz             0.1       0.0       0.0       0.0
11 P  s               0.0       0.0       0.0       0.2
11 P  pz              0.0       0.3       0.0       0.1
11 P  px              0.0       1.3       0.1       0.2
11 P  py              0.0       1.6       0.1       0.4
11 P  dxz             0.0       0.7       0.0       0.0
11 P  dyz             0.0       0.1       0.0       0.5
11 P  dx2y2           0.0       1.3       0.1       0.2
11 P  dxy             0.0       0.0       0.0       0.6
13 O  s               0.0       0.1       0.0       2.5
13 O  px              0.0       1.2       0.1       0.3
13 O  py              0.0       4.0       0.3       0.1
13 O  dz2             0.0       0.5       0.0       7.4
13 O  dxz             0.0       1.7       0.1       1.4
13 O  dyz             0.0       6.3       0.4       0.6
13 O  dx2y2           0.0      17.9       1.2       0.6
13 O  dxy             0.0      17.4       1.2      15.9
14 C  s               0.0       1.2       0.1       0.5
14 C  px              0.0       1.0       0.1       0.6
14 C  py              0.0       0.8       0.1       0.3
14 C  dz2             0.0       1.1       0.1       0.9
14 C  dxz             0.0       0.1       0.0       0.3
14 C  dyz             0.0       0.2       0.0       0.1
14 C  dx2y2           0.0       0.0       0.0       0.5
14 C  dxy             0.0       4.0       0.3       2.0
16 O  s               0.0       0.8       0.1       0.9
16 O  pz              0.0       0.4       0.0       0.2
16 O  px              0.0       1.6       0.1       2.2
16 O  py              0.0       0.7       0.0       1.6
16 O  dz2             0.0       0.5       0.0       9.5
16 O  dxz             0.0      14.0       1.0       3.0
16 O  dyz             0.0       1.4       0.1       0.1
16 O  dx2y2           0.0       8.7       0.6      11.9
16 O  dxy             0.0       0.0       0.0      22.1
17 C  s               0.0       0.2       0.0       1.1
17 C  px              0.0       0.2       0.0       0.9
17 C  py              0.0       0.1       0.0       1.4
17 C  dz2             0.0       0.2       0.0       1.3
17 C  dyz             0.0       0.2       0.0       0.0
17 C  dx2y2           0.0       0.0       0.0       1.4
17 C  dxy             0.0       0.8       0.1       5.0
18 C  px              0.0       0.0       0.0       0.1
18 C  dx2y2           0.0       0.1       0.0       0.3
18 C  dxy             0.0       0.1       0.0       0.0


                      *****************************
                      * MAYER POPULATION ANALYSIS *
                      *****************************

  NA   - Mulliken gross atomic population
  ZA   - Total nuclear charge
  QA   - Mulliken gross atomic charge
  VA   - Mayer's total valence
  BVA  - Mayer's bonded valence
  FA   - Mayer's free valence

  ATOM       NA         ZA         QA         VA         BVA        FA
  0 C      6.3452     6.0000    -0.3452     3.9834     3.9834     0.0000
  1 C      5.9986     6.0000     0.0014     3.9942     3.9942     0.0000
  2 O      8.3644     8.0000    -0.3644     2.1803     2.1803     0.0000
  3 P     14.3949    15.0000     0.6051     4.9633     4.9633    -0.0000
  4 S     16.3162    16.0000    -0.3162     2.0819     2.0819    -0.0000
  5 O      8.3734     8.0000    -0.3734     2.1703     2.1703    -0.0000
  6 C      6.0069     6.0000    -0.0069     3.9723     3.9723     0.0000
  7 C      6.3120     6.0000    -0.3120     3.9996     3.9996    -0.0000
  8 S     16.0911    16.0000    -0.0911     2.2704     2.2704    -0.0000
  9 C      6.3550     6.0000    -0.3550     3.8315     3.8315    -0.0000
 10 S     16.1084    16.0000    -0.1084     2.2976     2.2976    -0.0000
 11 P     14.3829    15.0000     0.6171     4.9616     4.9616    -0.0000
 12 S     16.3307    16.0000    -0.3307     2.0736     2.0736     0.0000
 13 O      8.3504     8.0000    -0.3504     2.2008     2.2008     0.0000
 14 C      6.0347     6.0000    -0.0347     3.9799     3.9799     0.0000
 15 C      6.3170     6.0000    -0.3170     3.9800     3.9800    -0.0000
 16 O      8.3604     8.0000    -0.3604     2.1764     2.1764     0.0000
 17 C      6.0080     6.0000    -0.0080     3.9642     3.9642     0.0000
 18 C      6.2811     6.0000    -0.2811     4.0007     4.0007     0.0000
 19 H      0.8818     1.0000     0.1182     0.9553     0.9553     0.0000
 20 H      0.8734     1.0000     0.1266     0.9575     0.9575     0.0000
 21 H      0.8613     1.0000     0.1387     0.9800     0.9800     0.0000
 22 H      0.8890     1.0000     0.1110     0.9839     0.9839    -0.0000
 23 H      0.8918     1.0000     0.1082     0.9493     0.9493    -0.0000
 24 H      0.8909     1.0000     0.1091     0.9468     0.9468     0.0000
 25 H      0.8859     1.0000     0.1141     0.9983     0.9983    -0.0000
 26 H      0.8656     1.0000     0.1344     0.9708     0.9708     0.0000
 27 H      0.8810     1.0000     0.1190     0.9544     0.9544    -0.0000
 28 H      0.8843     1.0000     0.1157     0.9549     0.9549    -0.0000
 29 H      0.8079     1.0000     0.1921     0.9431     0.9431    -0.0000
 30 H      0.8065     1.0000     0.1935     0.9916     0.9916    -0.0000
 31 H      0.8966     1.0000     0.1034     0.9500     0.9500     0.0000
 32 H      0.8647     1.0000     0.1353     0.9991     0.9991     0.0000
 33 H      0.8667     1.0000     0.1333     0.9893     0.9893     0.0000
 34 H      0.8853     1.0000     0.1147     0.9609     0.9609    -0.0000
 35 H      0.8882     1.0000     0.1118     0.9541     0.9541     0.0000
 36 H      0.8966     1.0000     0.1034     0.9995     0.9995     0.0000
 37 H      0.8997     1.0000     0.1003     0.9536     0.9536    -0.0000
 38 H      0.8820     1.0000     0.1180     0.9578     0.9578     0.0000
 39 H      0.8794     1.0000     0.1206     0.9619     0.9619    -0.0000
 40 H      0.8903     1.0000     0.1097     0.9546     0.9546     0.0000

  Mayer bond orders larger than 0.100000
B(  0-C ,  1-C ) :   1.1602 B(  0-C , 19-H ) :   0.9377 B(  0-C , 20-H ) :   0.9424 
B(  0-C , 21-H ) :   0.9274 B(  1-C ,  2-O ) :   0.9113 B(  1-C , 22-H ) :   0.9143 
B(  1-C , 23-H ) :   0.9325 B(  2-O ,  3-P ) :   1.1168 B(  3-P ,  4-S ) :   1.6038 
B(  3-P ,  5-O ) :   1.1207 B(  3-P ,  8-S ) :   0.9656 B(  4-S ,  8-S ) :   0.1046 
B(  5-O ,  6-C ) :   0.8938 B(  6-C ,  7-C ) :   1.1681 B(  6-C , 24-H ) :   0.9322 
B(  6-C , 25-H ) :   0.9017 B(  7-C , 26-H ) :   0.9358 B(  7-C , 27-H ) :   0.9460 
B(  7-C , 28-H ) :   0.9386 B(  8-S ,  9-C ) :   0.9960 B(  9-C , 10-S ) :   1.0199 
B(  9-C , 29-H ) :   0.8932 B(  9-C , 30-H ) :   0.8595 B( 10-S , 11-P ) :   0.9302 
B( 10-S , 12-S ) :   0.1193 B( 11-P , 12-S ) :   1.6017 B( 11-P , 13-O ) :   1.1517 
B( 11-P , 16-O ) :   1.1321 B( 12-S , 30-H ) :   0.1074 B( 13-O , 14-C ) :   0.9062 
B( 14-C , 15-C ) :   1.1652 B( 14-C , 31-H ) :   0.9350 B( 14-C , 32-H ) :   0.8960 
B( 15-C , 33-H ) :   0.9286 B( 15-C , 34-H ) :   0.9422 B( 15-C , 35-H ) :   0.9325 
B( 16-O , 17-C ) :   0.9079 B( 17-C , 18-C ) :   1.1624 B( 17-C , 36-H ) :   0.9009 
B( 17-C , 37-H ) :   0.9324 B( 18-C , 38-H ) :   0.9507 B( 18-C , 39-H ) :   0.9502 
B( 18-C , 40-H ) :   0.9418 

-------
TIMINGS
-------

Total SCF time: 0 days 0 hours 0 min 16 sec 

Total time                  ....      16.524 sec
Sum of individual times     ....      16.049 sec  ( 97.1%)

SCF preparation             ....       0.224 sec  (  1.4%)
Fock matrix formation       ....      14.688 sec  ( 88.9%)
  Startup                   ....       0.065 sec  (  0.4% of F)
  Split-RI-J                ....       8.803 sec  ( 59.9% of F)
  XC integration            ....       5.322 sec  ( 36.2% of F)
    Basis function eval.    ....       2.048 sec  ( 38.5% of XC)
    Density eval.           ....       1.012 sec  ( 19.0% of XC)
    XC-Functional eval.     ....       0.405 sec  (  7.6% of XC)
    XC-Potential eval.      ....       1.185 sec  ( 22.3% of XC)
Diagonalization             ....       0.000 sec  (  0.0%)
Density matrix formation    ....       0.229 sec  (  1.4%)
Total Energy calculation    ....       0.034 sec  (  0.2%)
Population analysis         ....       0.189 sec  (  1.1%)
Orbital Transformation      ....       0.078 sec  (  0.5%)
Orbital Orthonormalization  ....       0.000 sec  (  0.0%)
DIIS solution               ....       0.473 sec  (  2.9%)
  MO trafo                  ....       0.000 sec  (  0.0 % of DIIS)
  Orb grad                  ....       0.000 sec  (  0.0 % of DIIS)
  Energy W gradient         ....       0.000 sec  (  0.0 % of DIIS)
  DIIS error                ....       0.023 sec  (  4.9 % of DIIS)
  DIIS work                 ....       0.392 sec  ( 83.0 % of DIIS)
  Form Q                    ....       0.000 sec  (  0.0 % of DIIS)
  Form QpQm                 ....       0.000 sec  (  0.0 % of DIIS)
  Exp/Cayley                ....       0.000 sec  (  0.0 % of DIIS)
  Orb update                ....       0.000 sec  (  0.0 % of DIIS)
  Wake-sleep                ....       0.015 sec  (  3.1 % of DIIS)
SOSCF solution              ....       0.134 sec  (  0.8%)
  MO trafo                  ....       0.066 sec  ( 49.3 % of SOSCF)
  Orb grad                  ....       0.001 sec  (  1.0 % of SOSCF)
  Rot update                ....       0.026 sec  ( 19.3 % of SOSCF)
  Step                      ....       0.041 sec  ( 30.3 % of SOSCF)
Finished LeanSCF after  16.6 sec

Maximum memory used throughout the entire LEANSCF-calculation: 34.3 MB


-------------------------------------------------------------------------------
                          DFT DISPERSION CORRECTION                            
                                                                               
                                DFTD4 V3.4.0                                   
-------------------------------------------------------------------------------
The PBE functional is recognized
Active option DFTDOPT                   ...         5   

-------------------------   ----------------
Dispersion correction           -0.065260823
-------------------------   ----------------

------------------   -----------------
gCP correction             0.184048530
------------------   -----------------

-------------------------   --------------------
FINAL SINGLE POINT ENERGY     -2929.523504329671
-------------------------   --------------------


------------------------------------------------------------------------------
                              ORCA PROPERTY CALCULATIONS
------------------------------------------------------------------------------

GBWName                                 ... sp.gbw
Number of atoms                         ...     41
Number of basis functions               ...    334
Max core memory                         ...   1024 MB

Electric properties:
Dipole moment                           ... YES
Quadrupole moment                       ...  NO
Static polarizability (Dipole/Dipole)   ...  NO
Static polarizability (Dipole/Quad.)    ...  NO
Static polarizability (Quad./Quad.)     ...  NO
Static polarizability (Velocity)        ...  NO

Atomic electric properties:
Dipole moment                           ...  NO
Quadrupole moment                       ...  NO
Static polarizability                   ...  NO

Choice of electric origin               ... Center of mass
Position of electric origin             ...    -0.000002     0.000000    -0.000001

General magnetic properties:
Magnetizability                         ...  NO

EPR properties:
g-Tensor (aka g-matrix)                 ...  NO
Zero-Field splitting spin-orbit         ...  NO
Zero-field splitting spin-spin          ...  NO
Hyperfine couplings                     ...  NO (   0 nuclei)
Quadrupole couplings                    ...  NO (   0 nuclei)
Contact density                         ...  NO (   0 nuclei)

NMR properties:
Chemical shifts                         ...  NO (   0 nuclei)
Spin-rotation constants                 ...  NO (   0 nuclei)
Spin-spin couplings                     ...  NO (   0 nuclei,    0 pairs)

Choice of magnetic origin               ... GIAO
Position of magnetic origin             ...     0.000000     0.000000     0.000000

Properties with geometric perturbations:
SCF Hessian                             ...  NO
IR spectrum                             ...  NO
VCD spectrum                            ...  NO
X-ray spectroscopy properties:
SCF XES/XAS/RIXS spectra                ...  NO


-------------
DIPOLE MOMENT
-------------

Method             : SCF
Type of density    : Electron Density
Multiplicity       :   1
Irrep              :   0
Energy             : -2929.6422920368408995 Eh
Relativity type    : 
Basis              : AO
                                X                 Y                 Z
Electronic contribution:      1.804626128      -1.795545431      -1.408538319
Nuclear contribution   :     -1.108783068       1.369136594       1.874218199
                        -----------------------------------------
Total Dipole Moment    :      0.695843060      -0.426408836       0.465679880
                        -----------------------------------------
Magnitude (a.u.)       :      0.939616843
Magnitude (Debye)      :      2.388316212



--------------------
Rotational spectrum 
--------------------
 
Rotational constants in cm-1:             0.012330             0.005027             0.004314 
Rotational constants in MHz :           369.632494           150.709433           129.331392 

Dipole components along the rotational axes: 
x,y,z [a.u.] :     0.679206    -0.648851    -0.023467 
x,y,z [Debye]:     1.726406    -1.649248    -0.059649 

 

Dipole moment calculation done in   0.0 sec 

Maximum memory used throughout the entire PROP-calculation: 23.6 MB

--------------------------------
SUGGESTED CITATIONS FOR THIS RUN
--------------------------------

Below you find a list of papers that are relevant to this ORCA run
We neither can nor want to force you to cite these papers, but we appreciate if you do
You receive ORCA, which is the product of decades of hard work by many enthusiastic individuals, for free
The only thing we kindly ask in return is that you cite our papers,
We deeply appreciate it, if you show your appreciation for ORCA by not just citing the generic ORCA reference.

Please note that relegating all ORCA citations to the supporting information does *not* help us.
SI sections are not indexed - citations you put there will not count into any citation statistics
But we need these citations in order to attract the funding resources that allow us to do what we are doing

Therefore, if you are a happy ORCA user, please consider citing a few of the papers listed below in the main body of your paper

In addition to the list printed below, the program has created the file sp.bibtex that contains the list in bibtex format
You can import this file easily into all common literature databanks and citation aid programs


List of essential papers. We consider these as the minimum necessary citations

  1. Neese,F.
     Software update: the ORCA program system, version 5.0
     WIRES Comput. Molec. Sci., 2022 12(1)e1606
     doi.org/10.1002/wcms.1606

List of papers to cite with high priority. The work reported in these papers was absolutely
necessary for this run to complete.
Our perspective: the developers of density functionals and basis sets usually get cited in chemistry papers
Good! But without the algorithms to do something with them, the functionals or basis sets would not do anything.
Hence, in our opinion, the algorithm design and method developments papers are equally worthy of getting cited

  1. Neese,F.
     An improvement of the resolution of the identity approximation for the formation of the Coulomb matrix
     J. Comp. Chem., 2003 24(14)1740-1747
     doi.org/10.1002/jcc.10318
  2. Neese,F.
     The SHARK Integral Generation and Digestion System
     J. Comp. Chem., 2022  1-16
     doi.org/10.1002/jcc.26942
  3. Caldeweyher,E.; Bannwarth,C.; Grimme,S.
     Extension of the D3 dispersion coefficient model
     J. Chem. Phys., 2017 147 034112-XXXX
     doi.org/10.1063/1.4993215
  4. Caldeweyher,E.; Ehlert,S.; Hansen,A.; Neugebauer,H.; Spicher,S.; Bannwarth,C.; Grimme,S.
     A generally applicable atomic-charge dependent London dispersion correction
     J. Chem. Phys., 2019 150 154122-XXXX
     doi.org/10.1063/1.5090222
  5. Caldeweyher,E.; Mewes,J.; Ehlert,S.; Grimme,S.
     Extension and evaluation of the D4 London-dispersion model for periodic systems
     Phys. Chem. Chem. Phys., 2020 22(16)8499-8512
     doi.org/10.1039/D0CP00502A

List of suggested additional citations. These are papers that are important in the 'surrounding' of 
of this run, or papers that preceded the highly important papers. If you like your results we are grateful for a citation.

  1. Neese,F.
     The ORCA program system
     WIRES Comput. Molec. Sci., 2012 2(1)73-78
     doi.org/10.1002/wcms.81
  2. Neese,F.
     Software update: the ORCA program system, version 4.0
     WIRES Comput. Molec. Sci., 2018 8(1)1-6
     doi.org/10.1002/wcms.1327
  3. Neese,F.; Wennmohs,F.; Becker,U.; Riplinger,C.
     The ORCA quantum chemistry program package
     J. Chem. Phys., 2020 152 Art. No. L224108
     doi.org/10.1063/5.0004608

List of optional additional citations

  1. Neese,F.
     Approximate second-order SCF convergence for spin unrestricted wavefunctions
     Chem. Phys. Lett., 2000 325(1-3)93-98
     doi.org/10.1016/s0009-2614(00)00662-x

Timings for individual modules:

Sum of individual times          ...       20.231 sec (=   0.337 min)
Startup calculation              ...        1.580 sec (=   0.026 min)   7.8 %
SCF iterations                   ...       18.535 sec (=   0.309 min)  91.6 %
Property calculations            ...        0.117 sec (=   0.002 min)   0.6 %
                             ****ORCA TERMINATED NORMALLY****
TOTAL RUN TIME: 0 days 0 hours 0 minutes 20 seconds 985 msec
