 Entering Gaussian System
 *********************************************
 Gaussian 98:
 frequency output generated by the xtb code
 *********************************************
                         Standard orientation:
 --------------------------------------------------------------------
  Center     Atomic     Atomic              Coordinates (Angstroms)
  Number     Number      Type              X           Y           Z
 --------------------------------------------------------------------
    1          6             0        5.043537   -0.567427    0.468694
    2          6             0        4.547895   -1.700695   -0.414724
    3          8             0        3.109770   -1.789461   -0.384593
    4          6             0        2.416378   -1.013253   -1.190303
    5          8             0        2.896974   -0.234265   -1.984410
    6          6             0        0.925395   -1.251114   -1.033336
    7          6             0        0.171927    0.052066   -1.255356
    8          1             0        0.520912    0.510024   -2.189580
    9          6             0        0.388215    1.079855   -0.159649
   10          8             0       -0.430448    1.939915    0.096749
   11          8             0        1.555131    0.943324    0.415495
   12          6             0        1.945064    1.894874    1.427405
   13          6             0        2.647787    3.089315    0.803417
   14         16             0       -1.615682   -0.187007   -1.500487
   15         15             0       -2.317932   -0.166227    0.503726
   16         16             0       -1.088445   -0.754654    1.906663
   17          8             0       -2.992305    1.221116    0.833885
   18          6             0       -3.849532    1.910882   -0.096330
   19          8             0       -3.634828   -1.069653    0.362189
   20          6             0       -3.577688   -2.483593    0.141078
   21          1             0        4.684516   -0.702369    1.485243
   22          1             0        6.128484   -0.558321    0.468439
   23          1             0        4.680249    0.383896    0.087622
   24          1             0        4.886603   -2.669523   -0.047668
   25          1             0        4.865935   -1.550903   -1.450521
   26          1             0        0.730376   -1.668052   -0.044631
   27          1             0        0.618838   -1.972211   -1.793933
   28          1             0        1.051198    2.202814    1.977343
   29          1             0        2.612865    1.332970    2.080900
   30          1             0        3.020202    3.735828    1.590993
   31          1             0        3.480558    2.755064    0.189811
   32          1             0        1.955966    3.651186    0.180148
   33          1             0       -4.620733    1.238666   -0.468135
   34          1             0       -3.249224    2.297645   -0.919480
   35          1             0       -4.285749    2.726971    0.473326
   36          1             0       -3.210529   -2.689682   -0.863866
   37          1             0       -4.600142   -2.836061    0.254355
   38          1             0       -2.929161   -2.952754    0.882002
 --------------------------------------------------------------------
     1 basis functions        1 primitive gaussians
     1 alpha electrons        1 beta electrons
 
 Harmonic frequencies (cm**-1), IR intensities (km*mol⁻¹),
 Raman scattering activities (A**4/amu), Raman depolarization ratios,
 reduced masses (AMU), force constants (mDyne/A) and normal coordinates:
                      1                      2                      3
                        a                      a                      a 
 Frequencies --    55.1039                53.5754                58.2330
 Red. masses --    18.7562                18.2236                17.7295
 Frc consts  --     0.0000                 0.0000                 0.0000
 IR Inten    --    14.0735                 6.2704                 0.9300
 Raman Activ --     0.0000                 0.0000                 0.0000
 Depolar     --     0.0000                 0.0000                 0.0000
 Atom AN      X      Y      Z        X      Y      Z        X      Y      Z
   1   6     0.14   0.12  -0.16     0.14  -0.09  -0.21     0.06   0.03   0.01
   2   6     0.09   0.06  -0.05     0.15  -0.03  -0.28     0.08   0.05  -0.01
   3   8     0.10   0.07   0.06     0.18  -0.11  -0.27     0.09   0.02  -0.02
   4   6     0.03  -0.05  -0.01     0.08   0.06  -0.01     0.06   0.10   0.07
   5   8    -0.02  -0.18  -0.17     0.01   0.29   0.15     0.05   0.26   0.21
   6   6     0.04  -0.02   0.11     0.10  -0.01   0.04     0.07   0.01   0.02
   7   6     0.05  -0.01   0.12     0.03  -0.05   0.06    -0.01  -0.05  -0.01
   8   1     0.03  -0.00   0.04     0.00  -0.01   0.02    -0.02  -0.02  -0.01
   9   6     0.06  -0.03   0.13    -0.01  -0.05   0.06    -0.04   0.02  -0.07
  10   8    -0.02  -0.18   0.35     0.01  -0.00  -0.02    -0.01   0.08  -0.20
  11   8     0.19   0.11  -0.05    -0.07  -0.12   0.18    -0.09   0.00   0.02
  12   6     0.21   0.12  -0.08    -0.06  -0.08   0.13    -0.07   0.09  -0.07
  13   6     0.16   0.11  -0.16    -0.04  -0.11   0.11    -0.01   0.01  -0.17
  14  16     0.10   0.06   0.09     0.07  -0.24   0.08    -0.01  -0.26   0.04
  15  15    -0.16  -0.00   0.00    -0.08   0.07   0.02    -0.02  -0.10   0.03
  16  16    -0.44  -0.21   0.15    -0.21   0.33   0.23    -0.11  -0.44  -0.04
  17   8    -0.14  -0.01  -0.02    -0.09   0.08  -0.17     0.22   0.03   0.07
  18   6    -0.02   0.03  -0.07    -0.06  -0.02  -0.23     0.30   0.18   0.08
  19   8    -0.12   0.02  -0.19    -0.04   0.02   0.02    -0.16   0.15   0.00
  20   6    -0.07   0.01  -0.09    -0.01   0.01   0.04    -0.31   0.12   0.03
  21   1     0.06   0.05  -0.04     0.05  -0.05  -0.06     0.01   0.00   0.00
  22   1     0.04   0.03  -0.06     0.04  -0.02  -0.06     0.02   0.01   0.01
  23   1     0.03   0.03  -0.06     0.03  -0.02  -0.04     0.02   0.01   0.01
  24   1     0.03   0.02  -0.00     0.06  -0.01  -0.11     0.03   0.01  -0.01
  25   1     0.00  -0.00  -0.02     0.03   0.02  -0.08     0.02   0.02  -0.00
  26   1     0.03   0.00   0.04     0.04  -0.01   0.01     0.02   0.00   0.01
  27   1    -0.01  -0.01   0.04     0.03  -0.01   0.02     0.04  -0.01   0.01
  28   1     0.07   0.03  -0.01    -0.02  -0.02   0.03    -0.02   0.05  -0.03
  29   1     0.08   0.04  -0.03    -0.02  -0.02   0.04    -0.03   0.04  -0.00
  30   1     0.05   0.04  -0.06    -0.01  -0.03   0.03     0.01   0.02  -0.06
  31   1     0.04   0.03  -0.06    -0.01  -0.04   0.03    -0.01  -0.02  -0.04
  32   1     0.03   0.02  -0.04    -0.01  -0.03   0.03     0.00  -0.00  -0.06
  33   1    -0.01   0.02  -0.03    -0.01  -0.02  -0.06     0.07   0.08  -0.00
  34   1     0.01  -0.00  -0.01    -0.01  -0.02  -0.07     0.11   0.06   0.04
  35   1    -0.00   0.02  -0.03    -0.03   0.00  -0.08     0.10   0.05   0.04
  36   1    -0.01  -0.01  -0.02     0.01   0.00   0.02    -0.10   0.02   0.01
  37   1    -0.02  -0.00  -0.03    -0.00  -0.00   0.01    -0.10   0.07   0.02
  38   1    -0.02   0.02  -0.01    -0.00   0.01   0.02    -0.10   0.02   0.01
                      4                      5                      6
                        a                      a                      a 
 Frequencies --    58.5281                67.0604                75.8104
 Red. masses --    13.0352                11.6378                12.5250
 Frc consts  --     0.0000                 0.0000                 0.0000
 IR Inten    --     2.1876                 2.2277                 8.8027
 Raman Activ --     0.0000                 0.0000                 0.0000
 Depolar     --     0.0000                 0.0000                 0.0000
 Atom AN      X      Y      Z        X      Y      Z        X      Y      Z
   1   6    -0.01   0.34   0.02     0.12  -0.03  -0.31     0.16   0.17  -0.30
   2   6     0.06   0.29   0.05     0.04  -0.16  -0.10    -0.03   0.01   0.01
   3   8     0.07   0.24   0.08     0.04  -0.16   0.05    -0.04   0.11   0.21
   4   6     0.01  -0.04  -0.12     0.00  -0.16   0.04    -0.06   0.02   0.14
   5   8    -0.07  -0.24  -0.37    -0.03  -0.30  -0.08    -0.09  -0.05   0.08
   6   6     0.02  -0.09  -0.06     0.00  -0.04   0.19    -0.06   0.04   0.16
   7   6     0.00  -0.10  -0.04     0.07  -0.02   0.07    -0.03   0.04   0.06
   8   1    -0.01  -0.03  -0.01     0.04  -0.03   0.02     0.01  -0.01   0.02
   9   6     0.03  -0.12  -0.03     0.00   0.05   0.01    -0.01   0.10   0.01
  10   8     0.09  -0.07  -0.07    -0.02   0.09  -0.14     0.14   0.33  -0.22
  11   8    -0.01  -0.22   0.03    -0.06   0.12   0.14    -0.13  -0.10   0.21
  12   6    -0.05  -0.26   0.11    -0.20   0.15   0.14     0.02  -0.04   0.08
  13   6    -0.10  -0.17   0.23    -0.39   0.28   0.17     0.32  -0.28  -0.03
  14  16    -0.01  -0.16   0.01     0.12   0.05  -0.02    -0.03   0.14  -0.06
  15  15     0.01   0.07   0.02     0.07   0.01  -0.04    -0.07  -0.10  -0.08
  16  16    -0.02   0.04   0.04     0.05  -0.07  -0.05    -0.00  -0.03  -0.12
  17   8     0.11   0.11  -0.03     0.09   0.01   0.03    -0.01  -0.06  -0.04
  18   6     0.08   0.09  -0.02     0.03   0.04   0.09    -0.09  -0.08   0.03
  19   8    -0.05   0.13   0.05     0.02   0.05  -0.06    -0.03  -0.09  -0.06
  20   6    -0.12   0.12   0.02    -0.01   0.04  -0.08     0.01  -0.09   0.05
  21   1     0.00   0.10   0.01     0.06   0.03  -0.07     0.08   0.12  -0.07
  22   1    -0.00   0.11   0.01     0.03  -0.01  -0.12     0.05   0.03  -0.12
  23   1    -0.02   0.09  -0.00     0.02  -0.02  -0.12     0.05   0.03  -0.14
  24   1     0.03   0.09   0.02     0.02  -0.03   0.00    -0.01   0.02   0.05
  25   1     0.01   0.08   0.01    -0.01  -0.09  -0.04    -0.04  -0.07  -0.02
  26   1     0.02  -0.03  -0.02     0.01   0.02   0.07    -0.02   0.03   0.05
  27   1     0.00  -0.03  -0.02    -0.03  -0.03   0.09    -0.02  -0.00   0.06
  28   1    -0.02  -0.10   0.04    -0.07  -0.00   0.04     0.01   0.06  -0.01
  29   1    -0.01  -0.08   0.02    -0.03   0.07   0.04    -0.04  -0.03   0.06
  30   1    -0.05  -0.06   0.09    -0.14   0.09   0.05     0.12  -0.07  -0.03
  31   1    -0.02  -0.02   0.06    -0.09   0.12   0.05     0.08  -0.15   0.02
  32   1    -0.03  -0.04   0.08    -0.14   0.05   0.05     0.14  -0.06  -0.04
  33   1     0.02   0.03  -0.00     0.00   0.01   0.03    -0.04  -0.02   0.04
  34   1     0.02   0.03  -0.01    -0.00   0.02   0.02    -0.05  -0.03  -0.01
  35   1     0.02   0.03  -0.00     0.02   0.01   0.04    -0.01  -0.02   0.01
  36   1    -0.04   0.03   0.00    -0.01   0.01  -0.02     0.00  -0.04   0.02
  37   1    -0.04   0.05   0.00    -0.00   0.02  -0.02     0.01  -0.03   0.03
  38   1    -0.04   0.02   0.00    -0.00   0.01  -0.02     0.01  -0.01   0.02
                      7                      8                      9
                        a                      a                      a 
 Frequencies --    83.4624                78.2341                84.6350
 Red. masses --    14.5451                10.4547                11.8124
 Frc consts  --     0.0000                 0.0000                 0.0000
 IR Inten    --     1.4479                 7.4245                 8.4320
 Raman Activ --     0.0000                 0.0000                 0.0000
 Depolar     --     0.0000                 0.0000                 0.0000
 Atom AN      X      Y      Z        X      Y      Z        X      Y      Z
   1   6     0.12  -0.21   0.11     0.07  -0.09   0.16     0.21  -0.22   0.11
   2   6    -0.01  -0.03  -0.04     0.08   0.03  -0.00     0.06  -0.04  -0.03
   3   8    -0.02   0.14   0.02     0.09   0.02  -0.00     0.05   0.12   0.02
   4   6    -0.01   0.03  -0.08     0.06  -0.01  -0.01     0.07   0.05  -0.06
   5   8    -0.01  -0.15  -0.28     0.06  -0.02  -0.04     0.11  -0.06  -0.17
   6   6    -0.01   0.10   0.02     0.07  -0.02   0.01     0.07   0.09  -0.02
   7   6    -0.04   0.07  -0.04     0.04  -0.04  -0.02     0.02   0.06  -0.04
   8   1    -0.03   0.00  -0.03    -0.00  -0.02  -0.02     0.00   0.02  -0.01
   9   6    -0.05   0.16  -0.12     0.07   0.03  -0.09    -0.02   0.06  -0.03
  10   8    -0.08   0.18  -0.20     0.15   0.12  -0.21    -0.10  -0.02   0.04
  11   8    -0.07   0.21  -0.11     0.05  -0.03  -0.03     0.01   0.15  -0.08
  12   6    -0.10   0.09   0.00     0.05   0.00  -0.06    -0.06   0.03   0.05
  13   6     0.21   0.00   0.19     0.00   0.01  -0.10     0.09   0.04   0.23
  14  16    -0.06  -0.12   0.11     0.05  -0.08   0.07     0.04  -0.05  -0.09
  15  15    -0.02  -0.14   0.13    -0.03   0.01   0.05    -0.05   0.03  -0.11
  16  16    -0.09   0.08   0.29    -0.07   0.07   0.10    -0.03  -0.14  -0.21
  17   8    -0.04  -0.11   0.05     0.05   0.04   0.07     0.00   0.05  -0.09
  18   6     0.23   0.05  -0.09    -0.45  -0.22   0.32    -0.20  -0.07   0.03
  19   8     0.01  -0.14   0.04    -0.07   0.09  -0.03    -0.08   0.07  -0.02
  20   6     0.03  -0.08  -0.22    -0.16   0.12  -0.31    -0.13  -0.02   0.52
  21   1     0.04  -0.09   0.03     0.02  -0.07   0.04     0.07  -0.09   0.03
  22   1     0.04  -0.09   0.03     0.02  -0.02   0.05     0.06  -0.09   0.02
  23   1     0.06  -0.03   0.08     0.02  -0.01   0.08     0.08  -0.04   0.07
  24   1    -0.03  -0.03  -0.06     0.03  -0.01  -0.04    -0.01  -0.04  -0.05
  25   1    -0.01   0.03  -0.01     0.02   0.05   0.01     0.01   0.02  -0.01
  26   1     0.01   0.05   0.02     0.02   0.00   0.01     0.03   0.03  -0.00
  27   1    -0.02   0.01   0.03     0.02  -0.01   0.01     0.02   0.02   0.00
  28   1    -0.04   0.06  -0.04     0.02  -0.00  -0.01    -0.03   0.01  -0.01
  29   1    -0.09  -0.01   0.03     0.02   0.01  -0.02    -0.05  -0.02   0.02
  30   1     0.05  -0.03   0.08     0.00   0.01  -0.03     0.01  -0.01   0.09
  31   1     0.08  -0.03   0.09    -0.00   0.01  -0.03     0.04   0.01   0.09
  32   1     0.12   0.04   0.02    -0.01  -0.00  -0.02     0.06   0.04   0.06
  33   1     0.09   0.04  -0.11    -0.15  -0.11   0.22    -0.08  -0.03   0.08
  34   1     0.13   0.04   0.03    -0.25  -0.08   0.00    -0.11  -0.04  -0.04
  35   1     0.03  -0.00  -0.03    -0.09  -0.05   0.11    -0.03  -0.00   0.01
  36   1     0.02   0.03  -0.07    -0.04   0.08  -0.10    -0.06  -0.12   0.17
  37   1     0.01  -0.03  -0.10    -0.06   0.05  -0.12    -0.04   0.02   0.20
  38   1     0.00  -0.06  -0.08    -0.06  -0.02  -0.11    -0.03   0.07   0.19
                     10                     11                     12
                        a                      a                      a 
 Frequencies --    98.7232               100.0681                98.8259
 Red. masses --    15.0951                13.9444                10.9322
 Frc consts  --     0.0000                 0.0000                 0.0000
 IR Inten    --     5.1418                 0.7776                 3.4134
 Raman Activ --     0.0000                 0.0000                 0.0000
 Depolar     --     0.0000                 0.0000                 0.0000
 Atom AN      X      Y      Z        X      Y      Z        X      Y      Z
   1   6    -0.14  -0.09   0.22    -0.25   0.22  -0.20     0.37  -0.15  -0.13
   2   6    -0.01   0.06  -0.05    -0.08  -0.11   0.12    -0.07  -0.14   0.12
   3   8    -0.00  -0.01  -0.15    -0.09  -0.19  -0.07    -0.11   0.27   0.27
   4   6    -0.02  -0.01  -0.12     0.04  -0.02  -0.03     0.04   0.15   0.05
   5   8    -0.06  -0.04  -0.18     0.19   0.06   0.14     0.19   0.07   0.04
   6   6    -0.02   0.04  -0.01     0.02   0.05  -0.16     0.01   0.10  -0.19
   7   6     0.04   0.08   0.04     0.05   0.06  -0.15    -0.05   0.08  -0.12
   8   1     0.01   0.02   0.01    -0.01   0.01  -0.06    -0.04   0.04  -0.03
   9   6     0.11   0.08   0.03     0.11   0.09  -0.18     0.00  -0.01  -0.05
  10   8     0.31   0.32  -0.15     0.12   0.07  -0.14     0.07   0.01   0.04
  11   8     0.01  -0.16   0.23     0.15   0.11  -0.24     0.00  -0.16  -0.09
  12   6     0.09  -0.01   0.05     0.04  -0.06  -0.02     0.08  -0.20  -0.06
  13   6    -0.21   0.04  -0.18     0.06   0.08   0.27    -0.31   0.01  -0.09
  14  16     0.06   0.24   0.04     0.04   0.00   0.04    -0.10   0.03   0.01
  15  15    -0.02  -0.11   0.01     0.02  -0.06   0.06    -0.03  -0.01   0.05
  16  16    -0.20  -0.13   0.15    -0.24  -0.09   0.28    -0.08   0.04   0.11
  17   8     0.04  -0.04  -0.06     0.05  -0.01  -0.01    -0.03  -0.01   0.02
  18   6     0.08  -0.05  -0.11    -0.04  -0.09   0.01     0.04   0.02  -0.02
  19   8    -0.00  -0.08  -0.09    -0.01   0.00  -0.06    -0.00  -0.03   0.02
  20   6     0.05  -0.11   0.22    -0.04  -0.02   0.12     0.03  -0.02  -0.02
  21   1    -0.06  -0.09   0.05    -0.10   0.15  -0.06     0.14   0.03  -0.02
  22   1    -0.04  -0.01   0.09    -0.07   0.09  -0.03     0.11  -0.13  -0.08
  23   1    -0.05  -0.01   0.11    -0.08   0.02  -0.16     0.17  -0.03  -0.06
  24   1     0.01   0.00  -0.07    -0.03   0.01   0.14    -0.09  -0.05   0.07
  25   1     0.01   0.08  -0.00     0.02  -0.13   0.03    -0.04  -0.11   0.02
  26   1     0.01   0.01  -0.00    -0.02   0.01  -0.05    -0.03  -0.01  -0.07
  27   1    -0.03   0.02   0.00     0.01   0.02  -0.06     0.05   0.05  -0.09
  28   1     0.05  -0.03   0.06    -0.00  -0.05  -0.01     0.05  -0.13   0.06
  29   1     0.08   0.03  -0.01    -0.00  -0.05  -0.02     0.10  -0.05  -0.09
  30   1    -0.04   0.05  -0.09    -0.02  -0.02   0.12    -0.07  -0.00  -0.03
  31   1    -0.08   0.04  -0.09     0.04   0.06   0.09    -0.11   0.07  -0.10
  32   1    -0.12  -0.03  -0.02     0.03   0.05   0.09    -0.17  -0.02   0.04
  33   1     0.02  -0.01  -0.03    -0.01  -0.04   0.03     0.02   0.01  -0.02
  34   1     0.03  -0.03  -0.03    -0.03  -0.03  -0.02     0.03   0.01   0.01
  35   1     0.02  -0.01  -0.05    -0.01  -0.02  -0.00     0.00   0.00  -0.01
  36   1     0.02  -0.09   0.08    -0.01  -0.04   0.04     0.01   0.00  -0.01
  37   1     0.02  -0.04   0.08    -0.01   0.00   0.04     0.01  -0.01  -0.01
  38   1     0.02   0.02   0.09    -0.02   0.01   0.05     0.01  -0.01  -0.01
                     13                     14                     15
                        a                      a                      a 
 Frequencies --   119.0149               122.8698               145.9384
 Red. masses --    13.5937                11.9824                17.0100
 Frc consts  --     0.0000                 0.0000                 0.0000
 IR Inten    --    15.8989                 1.7551                 8.5973
 Raman Activ --     0.0000                 0.0000                 0.0000
 Depolar     --     0.0000                 0.0000                 0.0000
 Atom AN      X      Y      Z        X      Y      Z        X      Y      Z
   1   6    -0.04   0.00  -0.05     0.09  -0.04   0.06     0.06  -0.06  -0.01
   2   6    -0.06  -0.03  -0.00     0.04   0.14  -0.14    -0.06   0.04  -0.06
   3   8    -0.07   0.02   0.00     0.05   0.01   0.07    -0.06   0.08   0.06
   4   6    -0.04   0.03  -0.00    -0.12  -0.02   0.19    -0.10   0.02   0.05
   5   8    -0.03   0.00  -0.03    -0.32   0.11   0.23    -0.18   0.06   0.05
   6   6    -0.03   0.07   0.03    -0.10  -0.12   0.26    -0.09  -0.03   0.04
   7   6    -0.02   0.08   0.09    -0.04  -0.12   0.01    -0.04  -0.02  -0.04
   8   1    -0.02   0.03   0.02     0.01  -0.09  -0.02     0.00  -0.02  -0.01
   9   6     0.05   0.07   0.09     0.10   0.01  -0.14    -0.03  -0.02  -0.05
  10   8     0.12   0.13   0.16     0.17   0.04  -0.11    -0.08  -0.07  -0.02
  11   8     0.11   0.06   0.02     0.21   0.04  -0.32    -0.05   0.01  -0.05
  12   6     0.14   0.01   0.04     0.18  -0.16  -0.09    -0.10   0.00  -0.02
  13   6    -0.00   0.11   0.07    -0.03   0.12   0.21     0.01  -0.05   0.01
  14  16    -0.02  -0.05   0.11    -0.08   0.05  -0.04    -0.04   0.10   0.02
  15  15    -0.01  -0.14   0.07    -0.08  -0.04  -0.06     0.22   0.18   0.12
  16  16     0.31   0.01  -0.15    -0.02   0.03  -0.10    -0.08  -0.41   0.16
  17   8     0.02  -0.03  -0.15    -0.04  -0.03  -0.01     0.19   0.19  -0.09
  18   6     0.04  -0.28  -0.35     0.04   0.09   0.02    -0.03  -0.30  -0.26
  19   8    -0.10   0.01   0.22    -0.04  -0.07  -0.01     0.13   0.19   0.05
  20   6    -0.44   0.04  -0.10     0.04  -0.06   0.03     0.25   0.19  -0.05
  21   1    -0.01   0.01  -0.01     0.08  -0.09   0.02     0.04  -0.04   0.00
  22   1    -0.01  -0.01  -0.01     0.03   0.01  -0.04     0.02  -0.03  -0.03
  23   1    -0.01  -0.00  -0.03    -0.01   0.01   0.10     0.02  -0.00   0.03
  24   1    -0.02  -0.01   0.01     0.05   0.02  -0.13    -0.01   0.00  -0.05
  25   1    -0.01  -0.02  -0.00    -0.04   0.12  -0.05    -0.04   0.04  -0.02
  26   1    -0.00   0.01   0.00    -0.02   0.02   0.10    -0.03   0.00   0.02
  27   1    -0.02   0.03   0.00    -0.02  -0.07   0.11    -0.02  -0.02   0.02
  28   1     0.05  -0.03   0.04     0.06  -0.12   0.02    -0.04   0.01  -0.03
  29   1     0.07   0.00  -0.02     0.09  -0.07  -0.09    -0.05  -0.00   0.02
  30   1     0.00   0.02   0.03    -0.02  -0.02   0.11    -0.01  -0.01   0.01
  31   1    -0.01   0.06  -0.01    -0.01   0.12   0.02     0.01  -0.03   0.03
  32   1    -0.03   0.03   0.05    -0.04   0.06   0.12     0.03  -0.01  -0.02
  33   1     0.03  -0.12  -0.07     0.01   0.04  -0.02    -0.02  -0.15   0.05
  34   1     0.02  -0.12  -0.11     0.03   0.04   0.02    -0.06  -0.19  -0.16
  35   1    -0.02  -0.05  -0.16     0.01   0.01   0.02     0.01  -0.02  -0.16
  36   1    -0.15   0.05  -0.04     0.01  -0.02   0.01     0.09   0.08  -0.01
  37   1    -0.15   0.08  -0.04     0.02  -0.03   0.02     0.08   0.02  -0.03
  38   1    -0.15  -0.08  -0.06     0.02  -0.00   0.01     0.08   0.06  -0.02
                     16                     17                     18
                        a                      a                      a 
 Frequencies --   111.3131               157.2100               175.0039
 Red. masses --     6.6630                17.4955                17.8805
 Frc consts  --     0.0000                 0.0000                 0.0000
 IR Inten    --     1.1314                 6.9076                 2.0215
 Raman Activ --     0.0000                 0.0000                 0.0000
 Depolar     --     0.0000                 0.0000                 0.0000
 Atom AN      X      Y      Z        X      Y      Z        X      Y      Z
   1   6    -0.03  -0.01  -0.00    -0.04   0.02   0.00     0.13   0.03   0.02
   2   6    -0.06   0.01  -0.01     0.03  -0.06   0.05     0.13   0.04   0.00
   3   8    -0.07   0.04   0.02     0.03  -0.05  -0.05     0.14  -0.04  -0.00
   4   6    -0.06   0.03   0.01     0.07  -0.00  -0.05     0.08  -0.06  -0.00
   5   8    -0.08   0.03  -0.01     0.14  -0.03  -0.05     0.10   0.00   0.07
   6   6    -0.05   0.03   0.02     0.06   0.03  -0.02     0.06  -0.14  -0.11
   7   6    -0.01   0.04   0.00    -0.03  -0.01   0.06     0.06  -0.13  -0.07
   8   1     0.01   0.02   0.01    -0.05   0.00   0.01     0.01  -0.04  -0.03
   9   6    -0.04   0.01   0.05     0.03   0.05   0.01     0.07  -0.12  -0.11
  10   8    -0.05  -0.03   0.12     0.11   0.15  -0.07     0.01  -0.18  -0.20
  11   8    -0.01   0.02   0.00     0.03   0.01   0.01     0.04  -0.04  -0.03
  12   6     0.02  -0.00   0.01     0.07  -0.01   0.02    -0.19   0.05  -0.03
  13   6    -0.00   0.01   0.00     0.00   0.05   0.05    -0.02  -0.04   0.00
  14  16     0.04  -0.08  -0.13    -0.09  -0.23   0.24    -0.08   0.55   0.09
  15  15     0.10  -0.14  -0.11    -0.30   0.12   0.12    -0.11   0.01   0.14
  16  16    -0.03   0.18   0.14     0.04  -0.20  -0.33     0.07   0.01  -0.01
  17   8     0.17  -0.07  -0.06    -0.20   0.12   0.01    -0.26  -0.08   0.15
  18   6     0.12   0.08   0.09    -0.05   0.15  -0.09     0.06  -0.04  -0.11
  19   8     0.05  -0.07  -0.09    -0.14  -0.03   0.17    -0.04  -0.06   0.09
  20   6    -0.07  -0.08  -0.02     0.33   0.02  -0.08    -0.18  -0.05   0.02
  21   1    -0.00  -0.01   0.00    -0.04   0.03  -0.01     0.04   0.00   0.01
  22   1    -0.01  -0.01  -0.01    -0.01   0.00   0.03     0.04   0.01   0.00
  23   1    -0.01   0.00   0.01     0.00  -0.00  -0.03     0.03   0.01   0.01
  24   1    -0.02   0.00  -0.01    -0.00  -0.01   0.05     0.05   0.01  -0.01
  25   1    -0.02   0.01  -0.01     0.03  -0.04   0.02     0.03   0.02   0.00
  26   1    -0.01   0.01   0.01     0.03  -0.00  -0.01     0.01  -0.06  -0.04
  27   1    -0.02   0.01   0.01     0.01   0.01  -0.01     0.04  -0.03  -0.05
  28   1     0.01  -0.00   0.01     0.03  -0.02   0.02    -0.09   0.04  -0.08
  29   1     0.01  -0.00  -0.01     0.04  -0.01  -0.01    -0.10   0.03   0.06
  30   1     0.01  -0.00   0.00     0.00   0.00   0.02    -0.08   0.03   0.00
  31   1    -0.01   0.01  -0.01    -0.00   0.03  -0.00     0.05  -0.03   0.09
  32   1    -0.01   0.01   0.01    -0.01   0.02   0.03     0.05  -0.04  -0.09
  33   1    -0.27   0.17   0.39    -0.14   0.11   0.12    -0.07   0.05   0.05
  34   1    -0.06  -0.36  -0.23    -0.02  -0.15  -0.12     0.06  -0.18  -0.08
  35   1     0.44   0.30  -0.06     0.15   0.18  -0.09     0.13   0.11  -0.12
  36   1    -0.01  -0.04   0.00     0.06   0.09  -0.05    -0.05  -0.01   0.01
  37   1    -0.03   0.01  -0.01     0.14  -0.10   0.02    -0.06   0.02  -0.01
  38   1    -0.04  -0.03   0.01     0.19   0.04  -0.08    -0.07  -0.04   0.01
                     19                     20                     21
                        a                      a                      a 
 Frequencies --   124.5131               197.1905               198.1125
 Red. masses --     1.8211                10.2624                 4.4824
 Frc consts  --     0.0000                 0.0000                 0.0000
 IR Inten    --     0.8809                 4.6278                 8.6609
 Raman Activ --     0.0000                 0.0000                 0.0000
 Depolar     --     0.0000                 0.0000                 0.0000
 Atom AN      X      Y      Z        X      Y      Z        X      Y      Z
   1   6    -0.00   0.00   0.01    -0.05   0.06   0.03     0.04  -0.02   0.04
   2   6     0.00   0.01  -0.00     0.16  -0.00  -0.01     0.07  -0.11   0.14
   3   8     0.01  -0.01   0.01     0.18  -0.16  -0.07     0.06   0.07  -0.17
   4   6     0.00  -0.01   0.01     0.12  -0.03   0.05    -0.01   0.08  -0.06
   5   8     0.01  -0.01   0.01     0.19  -0.14  -0.01    -0.23   0.17  -0.13
   6   6     0.00   0.00   0.00     0.09   0.17   0.25     0.02  -0.01   0.21
   7   6     0.01   0.01  -0.02    -0.02   0.09  -0.04    -0.01  -0.07   0.04
   8   1     0.01   0.00  -0.00     0.01  -0.00  -0.02     0.01  -0.05   0.01
   9   6    -0.00  -0.00  -0.01    -0.19   0.14  -0.07     0.01  -0.03  -0.02
  10   8    -0.02  -0.02   0.01    -0.28   0.07   0.01     0.01  -0.03  -0.01
  11   8    -0.01  -0.00   0.00    -0.23   0.02  -0.14     0.02  -0.02  -0.05
  12   6    -0.02   0.00   0.00     0.09  -0.23  -0.04    -0.00  -0.04  -0.03
  13   6    -0.00  -0.01  -0.00    -0.06  -0.15  -0.06    -0.03  -0.01   0.01
  14  16     0.03   0.05  -0.07    -0.04   0.16  -0.06    -0.01   0.06  -0.02
  15  15     0.04  -0.02  -0.04     0.06   0.06   0.03     0.02   0.00  -0.02
  16  16    -0.06   0.03   0.07     0.02  -0.05   0.03     0.00   0.00   0.00
  17   8     0.03  -0.02  -0.02    -0.09  -0.03   0.09     0.00  -0.01   0.02
  18   6     0.01  -0.01   0.00     0.03  -0.06  -0.05     0.00  -0.02   0.01
  19   8     0.02  -0.01   0.07     0.05   0.03   0.02     0.01   0.00  -0.02
  20   6    -0.05  -0.00  -0.03    -0.05   0.03   0.01    -0.00   0.00  -0.00
  21   1     0.01  -0.01   0.00    -0.03  -0.00   0.00    -0.37   0.24  -0.09
  22   1    -0.00   0.01  -0.00    -0.02   0.07   0.03     0.01  -0.29   0.38
  23   1    -0.01   0.00   0.01    -0.05   0.00   0.01     0.38   0.03  -0.26
  24   1     0.01   0.00  -0.01     0.07   0.01   0.00    -0.06  -0.02   0.14
  25   1    -0.00   0.01  -0.00     0.06   0.01   0.00     0.11  -0.13   0.05
  26   1    -0.00   0.01   0.00     0.05   0.13   0.11     0.06   0.06   0.10
  27   1    -0.00  -0.00   0.00     0.00  -0.02   0.14    -0.01  -0.06   0.12
  28   1    -0.01   0.00  -0.00     0.08  -0.09   0.09    -0.00  -0.02  -0.01
  29   1    -0.01   0.00   0.00     0.08  -0.11  -0.11     0.00  -0.01  -0.01
  30   1     0.00  -0.00  -0.00     0.20  -0.16  -0.02    -0.06   0.02   0.01
  31   1    -0.00  -0.01   0.00    -0.17  -0.04  -0.23     0.02   0.01   0.04
  32   1     0.00  -0.00  -0.00    -0.10   0.08   0.19     0.00  -0.03  -0.03
  33   1     0.01  -0.01  -0.01    -0.00  -0.01   0.00     0.00  -0.01   0.00
  34   1    -0.00   0.01   0.01     0.03  -0.06  -0.02     0.00  -0.00   0.01
  35   1    -0.01  -0.01   0.01     0.02   0.01  -0.05    -0.00  -0.01   0.00
  36   1    -0.55   0.04  -0.21    -0.01   0.00   0.01    -0.01  -0.00  -0.00
  37   1     0.07  -0.08   0.55    -0.02   0.03  -0.01    -0.00   0.00   0.01
  38   1     0.42   0.04  -0.36    -0.03  -0.01   0.01     0.01   0.00  -0.01
                     22                     23                     24
                        a                      a                      a 
 Frequencies --   221.8946               243.6405               281.3848
 Red. masses --     8.4477                14.4932                17.8197
 Frc consts  --     0.0000                 0.0000                 0.0000
 IR Inten    --     7.1828                 4.1626                21.9045
 Raman Activ --     0.0000                 0.0000                 0.0000
 Depolar     --     0.0000                 0.0000                 0.0000
 Atom AN      X      Y      Z        X      Y      Z        X      Y      Z
   1   6     0.04  -0.01  -0.01     0.06   0.02   0.02     0.06   0.03   0.02
   2   6    -0.07   0.01   0.02     0.05   0.01   0.02     0.09   0.01   0.01
   3   8    -0.08   0.07   0.02     0.04  -0.02  -0.02     0.08  -0.07  -0.03
   4   6    -0.07  -0.03  -0.05     0.02  -0.05  -0.03     0.05  -0.04  -0.01
   5   8    -0.15   0.07   0.01     0.02  -0.01   0.02     0.11  -0.05   0.03
   6   6    -0.04  -0.17  -0.18    -0.00  -0.10  -0.11     0.01  -0.04  -0.05
   7   6     0.05  -0.10   0.03    -0.00  -0.07   0.03    -0.11  -0.05   0.07
   8   1     0.01  -0.01   0.01     0.01  -0.00   0.02    -0.04   0.00   0.02
   9   6     0.04  -0.06   0.01     0.01  -0.06   0.05    -0.08  -0.04   0.06
  10   8    -0.03  -0.07  -0.21     0.00  -0.05  -0.04    -0.03   0.01   0.08
  11   8    -0.00   0.06   0.13     0.01   0.05   0.09    -0.02   0.02  -0.03
  12   6     0.03   0.12   0.07     0.01   0.12   0.03     0.00   0.02  -0.03
  13   6     0.07   0.10   0.06     0.07   0.10   0.04     0.02   0.04   0.03
  14  16     0.11  -0.07   0.17    -0.08   0.18  -0.24    -0.29   0.11   0.03
  15  15     0.02   0.06   0.06    -0.04  -0.11  -0.11    -0.22  -0.22  -0.02
  16  16     0.09   0.03  -0.02    -0.19  -0.05   0.05    -0.01   0.26  -0.08
  17   8    -0.14  -0.04   0.14     0.22   0.07  -0.26     0.43   0.06   0.11
  18   6     0.02  -0.06  -0.03    -0.06   0.10   0.03     0.21  -0.28   0.04
  19   8     0.03   0.07  -0.33    -0.05  -0.13   0.58    -0.33   0.11  -0.23
  20   6    -0.03   0.02   0.02     0.04  -0.04  -0.03     0.16   0.07   0.01
  21   1    -0.03   0.03  -0.01    -0.03   0.04  -0.01     0.00   0.01   0.00
  22   1     0.01  -0.06   0.03     0.02  -0.04   0.05     0.02  -0.00   0.02
  23   1     0.07   0.01  -0.03     0.07   0.01  -0.03     0.03   0.01  -0.00
  24   1    -0.03  -0.00   0.01     0.01   0.00   0.01     0.03   0.01   0.01
  25   1    -0.02  -0.01   0.00     0.02  -0.00   0.01     0.03   0.01   0.01
  26   1    -0.03  -0.11  -0.08    -0.01  -0.07  -0.05     0.00  -0.04  -0.03
  27   1    -0.00   0.00  -0.11     0.01   0.00  -0.07     0.01   0.01  -0.04
  28   1     0.02   0.04   0.03     0.00   0.04   0.01     0.00   0.01  -0.01
  29   1     0.02   0.03   0.01    -0.00   0.04   0.01    -0.00   0.00  -0.01
  30   1     0.37  -0.18   0.02     0.22  -0.10   0.02     0.00  -0.00   0.02
  31   1    -0.22  -0.02  -0.28    -0.12  -0.00  -0.16     0.01   0.02   0.01
  32   1    -0.06   0.26   0.31    -0.02   0.17   0.19     0.01   0.03   0.01
  33   1     0.00  -0.01  -0.01    -0.01   0.02   0.01     0.11  -0.15   0.04
  34   1     0.04  -0.05  -0.00    -0.07   0.09   0.00     0.03  -0.07  -0.00
  35   1     0.01   0.01  -0.04    -0.02  -0.01   0.07    -0.00  -0.09  -0.03
  36   1    -0.05  -0.06   0.01     0.07   0.10  -0.01     0.07   0.01   0.01
  37   1    -0.01   0.02   0.07     0.01  -0.03  -0.10     0.08  -0.08   0.02
  38   1     0.01   0.05   0.01    -0.02  -0.08  -0.03     0.10   0.12   0.02
                     25                     26                     27
                        a                      a                      a 
 Frequencies --   271.8135               293.8511               321.3785
 Red. masses --     7.4320                10.8303                17.9335
 Frc consts  --     0.0000                 0.0000                 0.0000
 IR Inten    --    11.5967                30.5419                22.5383
 Raman Activ --     0.0000                 0.0000                 0.0000
 Depolar     --     0.0000                 0.0000                 0.0000
 Atom AN      X      Y      Z        X      Y      Z        X      Y      Z
   1   6     0.00  -0.02   0.01     0.08   0.02   0.03     0.09   0.03   0.03
   2   6     0.01  -0.26   0.32     0.04  -0.03   0.10     0.07  -0.01   0.08
   3   8    -0.01   0.11  -0.18     0.03  -0.03  -0.06     0.06  -0.06  -0.06
   4   6     0.04   0.15  -0.13    -0.00  -0.06  -0.07     0.00  -0.05  -0.03
   5   8    -0.19   0.25  -0.22    -0.08   0.04  -0.02    -0.04   0.00   0.01
   6   6     0.08  -0.00   0.19    -0.01  -0.14  -0.13    -0.02  -0.07  -0.06
   7   6     0.01  -0.10   0.04    -0.02  -0.09   0.11    -0.07  -0.05   0.07
   8   1     0.01  -0.05   0.00     0.02   0.01   0.05    -0.04  -0.01   0.02
   9   6     0.04  -0.07  -0.02    -0.15   0.00   0.11    -0.12   0.01   0.02
  10   8     0.04  -0.09  -0.03    -0.25   0.06  -0.27    -0.16   0.01  -0.05
  11   8     0.05  -0.03  -0.01    -0.18   0.06   0.15    -0.11   0.05  -0.04
  12   6    -0.06   0.01  -0.01     0.41  -0.05   0.04     0.08  -0.05  -0.03
  13   6    -0.01  -0.01  -0.00     0.11   0.16   0.07     0.02   0.01   0.01
  14  16     0.01   0.07  -0.00    -0.02  -0.02  -0.19    -0.14   0.16   0.38
  15  15    -0.03  -0.03  -0.01     0.08   0.08  -0.07     0.04  -0.07   0.13
  16  16    -0.01   0.03  -0.02    -0.09  -0.01   0.03     0.20  -0.09   0.08
  17   8     0.05   0.00   0.01    -0.11  -0.07   0.16     0.21   0.17  -0.46
  18   6     0.02  -0.03   0.01     0.04  -0.09   0.01    -0.16   0.25  -0.05
  19   8    -0.04   0.00   0.02     0.06   0.05   0.09     0.09  -0.12  -0.27
  20   6     0.02   0.01  -0.01    -0.00   0.06   0.02    -0.06  -0.16  -0.05
  21   1     0.28  -0.08   0.09     0.08   0.01   0.03     0.05   0.01   0.02
  22   1    -0.00   0.21  -0.27     0.02   0.02  -0.04     0.02   0.01  -0.02
  23   1    -0.28  -0.07   0.10    -0.01  -0.00   0.02     0.01   0.00   0.01
  24   1    -0.11  -0.06   0.23    -0.01  -0.00   0.06     0.01   0.00   0.05
  25   1     0.12  -0.21   0.11     0.04  -0.04   0.04     0.04  -0.02   0.03
  26   1     0.10   0.07   0.10    -0.01  -0.11  -0.07    -0.01  -0.06  -0.03
  27   1    -0.00  -0.07   0.13     0.00   0.02  -0.09    -0.01   0.01  -0.05
  28   1    -0.03   0.01  -0.03     0.20  -0.04   0.16     0.05  -0.02   0.04
  29   1    -0.03   0.01   0.02     0.21  -0.06  -0.12     0.05  -0.04  -0.05
  30   1     0.05  -0.04  -0.00    -0.17   0.14   0.04    -0.05   0.02   0.01
  31   1    -0.04  -0.02  -0.04     0.16   0.15   0.14     0.04   0.03   0.03
  32   1    -0.01   0.04   0.04     0.02  -0.08  -0.09     0.00  -0.03  -0.02
  33   1     0.01  -0.01   0.00     0.01  -0.02  -0.00    -0.06   0.07   0.01
  34   1     0.00  -0.00   0.00     0.04  -0.06   0.01    -0.12   0.14  -0.03
  35   1    -0.00  -0.01   0.00     0.01  -0.00  -0.03    -0.02   0.02   0.08
  36   1     0.01   0.01  -0.00    -0.00   0.02   0.00    -0.05  -0.09  -0.01
  37   1     0.01  -0.01  -0.01    -0.01   0.03  -0.00    -0.03  -0.01   0.03
  38   1     0.01   0.01  -0.00    -0.01   0.00   0.00    -0.02  -0.04  -0.01
                     28                     29                     30
                        a                      a                      a 
 Frequencies --   337.5818               353.3060               398.3373
 Red. masses --    19.0151                15.3575                20.0457
 Frc consts  --     0.0000                 0.0000                 0.0000
 IR Inten    --     3.8372                 1.8760                16.5939
 Raman Activ --     0.0000                 0.0000                 0.0000
 Depolar     --     0.0000                 0.0000                 0.0000
 Atom AN      X      Y      Z        X      Y      Z        X      Y      Z
   1   6    -0.19  -0.07  -0.07    -0.24  -0.09  -0.09     0.00   0.00   0.00
   2   6    -0.16  -0.01  -0.13    -0.10  -0.05  -0.18     0.01  -0.00   0.00
   3   8    -0.13   0.17   0.13    -0.06   0.21   0.13     0.00  -0.00  -0.01
   4   6    -0.00   0.10   0.02     0.11   0.20   0.02     0.00   0.01   0.00
   5   8     0.03   0.05  -0.03     0.36   0.00  -0.06     0.01  -0.00  -0.00
   6   6     0.08   0.03   0.08     0.14   0.01   0.18    -0.00   0.02   0.02
   7   6     0.20  -0.00  -0.05    -0.12  -0.21   0.10    -0.01   0.00  -0.05
   8   1     0.06  -0.02  -0.03    -0.04  -0.06   0.03     0.01   0.00  -0.01
   9   6     0.03  -0.00  -0.07     0.01  -0.19   0.06     0.00  -0.02  -0.01
  10   8    -0.29  -0.26  -0.24     0.07  -0.11  -0.14     0.03  -0.01   0.00
  11   8    -0.04   0.05   0.03     0.02  -0.13   0.13    -0.02  -0.06   0.05
  12   6     0.13  -0.08   0.07     0.09   0.08  -0.03     0.02   0.03  -0.02
  13   6    -0.01  -0.06  -0.03     0.09   0.16   0.07     0.03   0.05   0.02
  14  16     0.44   0.15   0.18    -0.39   0.03  -0.04    -0.04   0.03  -0.24
  15  15    -0.20  -0.15   0.06     0.12   0.08  -0.04     0.03  -0.33   0.11
  16  16     0.02   0.06  -0.08     0.00  -0.03   0.04     0.33  -0.09   0.29
  17   8     0.15   0.04  -0.07    -0.01   0.02  -0.02    -0.26  -0.27  -0.23
  18   6     0.02  -0.01   0.01    -0.02   0.02  -0.01    -0.12   0.13  -0.04
  19   8    -0.22  -0.01   0.11     0.14  -0.03  -0.10    -0.29   0.29  -0.07
  20   6     0.05   0.00   0.00    -0.04  -0.04  -0.02     0.11   0.32   0.04
  21   1    -0.09  -0.03  -0.04    -0.12  -0.05  -0.05     0.00   0.00   0.00
  22   1    -0.05  -0.02   0.02    -0.07   0.01   0.03     0.00   0.00   0.00
  23   1    -0.04  -0.02  -0.02    -0.09  -0.03  -0.03     0.00   0.00   0.00
  24   1    -0.04  -0.01  -0.08    -0.02  -0.02  -0.09     0.00   0.00   0.00
  25   1    -0.09   0.03  -0.05    -0.07   0.02  -0.06     0.00  -0.00   0.00
  26   1     0.04   0.05   0.04     0.12   0.04   0.09     0.00   0.02   0.01
  27   1     0.02  -0.02   0.06     0.07  -0.07   0.11     0.00  -0.01   0.02
  28   1     0.07  -0.04   0.08     0.03   0.03  -0.01     0.01   0.01  -0.00
  29   1     0.08  -0.04  -0.04     0.03   0.04  -0.01     0.01   0.01  -0.00
  30   1    -0.04   0.03  -0.03     0.01   0.01   0.06     0.00   0.00   0.02
  31   1     0.02  -0.00   0.01     0.04   0.08   0.02     0.01   0.03   0.01
  32   1    -0.02  -0.07  -0.04     0.03   0.07   0.04     0.01   0.03   0.01
  33   1     0.01  -0.02   0.01    -0.01   0.00  -0.00    -0.09   0.11  -0.05
  34   1    -0.02   0.02  -0.00    -0.01   0.01  -0.01    -0.02   0.06   0.01
  35   1    -0.00  -0.02   0.02    -0.00   0.00  -0.00     0.03   0.02   0.06
  36   1     0.04   0.04   0.00    -0.03  -0.04  -0.01     0.07   0.10   0.02
  37   1     0.03  -0.05  -0.02    -0.02   0.03   0.01     0.07  -0.02   0.01
  38   1     0.03   0.02   0.00    -0.02  -0.02  -0.00     0.07   0.16   0.02
                     31                     32                     33
                        a                      a                      a 
 Frequencies --   412.6956               436.1322               443.2671
 Red. masses --    13.4571                23.5512                12.1325
 Frc consts  --     0.0000                 0.0000                 0.0000
 IR Inten    --    28.0597                87.7905                11.6867
 Raman Activ --     0.0000                 0.0000                 0.0000
 Depolar     --     0.0000                 0.0000                 0.0000
 Atom AN      X      Y      Z        X      Y      Z        X      Y      Z
   1   6     0.15   0.07   0.05     0.08   0.04   0.03     0.19   0.09   0.05
   2   6    -0.03   0.09   0.07    -0.08   0.08   0.03    -0.30   0.23   0.08
   3   8    -0.05  -0.17  -0.12    -0.08  -0.08  -0.08    -0.29  -0.16  -0.20
   4   6    -0.07  -0.05  -0.01    -0.03  -0.02  -0.07    -0.07  -0.05  -0.23
   5   8    -0.02  -0.04   0.04     0.09  -0.00   0.03     0.30   0.04   0.06
   6   6    -0.10   0.22   0.06    -0.03   0.03   0.03    -0.01  -0.04   0.12
   7   6     0.05   0.20  -0.38    -0.01   0.01  -0.00    -0.03  -0.09   0.15
   8   1    -0.02   0.02  -0.13    -0.06  -0.03  -0.03     0.03  -0.01   0.06
   9   6     0.19  -0.01  -0.17     0.12   0.05  -0.05    -0.13  -0.09   0.09
  10   8    -0.03  -0.31  -0.07    -0.04  -0.11  -0.08     0.02   0.08   0.01
  11   8     0.02  -0.11   0.31     0.10   0.13   0.02    -0.09  -0.18  -0.06
  12   6     0.15   0.10   0.14     0.03  -0.00   0.17    -0.06  -0.03  -0.24
  13   6     0.08   0.11   0.01    -0.04  -0.09  -0.03     0.03   0.09   0.04
  14  16    -0.21  -0.10  -0.11    -0.22   0.02   0.46     0.26   0.05   0.01
  15  15    -0.11   0.05   0.14     0.29  -0.11  -0.41    -0.03   0.00   0.02
  16  16     0.06  -0.01   0.00    -0.17   0.07  -0.13    -0.01  -0.00  -0.01
  17   8     0.07   0.13   0.03    -0.08  -0.29  -0.10     0.00   0.01   0.01
  18   6    -0.00   0.01  -0.01     0.02  -0.04   0.04     0.00  -0.00   0.00
  19   8    -0.01  -0.08  -0.06     0.05   0.14   0.12     0.00  -0.00   0.02
  20   6    -0.03  -0.10  -0.02     0.05   0.19   0.03    -0.00  -0.01   0.00
  21   1     0.08   0.04   0.03     0.05   0.02   0.02     0.14   0.07   0.05
  22   1     0.04  -0.04  -0.03     0.02  -0.04  -0.03     0.06  -0.14  -0.09
  23   1     0.08   0.04   0.03     0.06   0.03   0.02     0.16   0.08   0.06
  24   1     0.01   0.03   0.02    -0.01   0.02   0.00    -0.05   0.07  -0.01
  25   1     0.01   0.03   0.03    -0.02   0.03   0.01    -0.08   0.10   0.03
  26   1    -0.04   0.22   0.09     0.02   0.05   0.04     0.12   0.06   0.09
  27   1    -0.06  -0.05   0.14    -0.04  -0.02   0.05    -0.09  -0.07   0.13
  28   1     0.06   0.04   0.07     0.01  -0.01   0.06    -0.03   0.00  -0.09
  29   1     0.07   0.05   0.02     0.02  -0.01   0.03    -0.03   0.01  -0.04
  30   1     0.02   0.05  -0.00     0.01   0.03  -0.07    -0.02  -0.05   0.09
  31   1     0.02   0.04   0.00    -0.03  -0.07  -0.02     0.04   0.07   0.02
  32   1     0.01   0.02   0.00    -0.04  -0.07  -0.03     0.04   0.09   0.03
  33   1     0.01  -0.02   0.01    -0.03   0.04  -0.01     0.00  -0.00   0.00
  34   1    -0.01  -0.00  -0.01     0.01   0.00   0.02     0.00  -0.00   0.00
  35   1    -0.02   0.00  -0.02     0.04  -0.02   0.05    -0.00   0.00  -0.00
  36   1    -0.01  -0.04  -0.01     0.02   0.06   0.01    -0.00   0.00   0.00
  37   1    -0.01  -0.02  -0.00     0.02   0.04  -0.00    -0.00   0.00  -0.00
  38   1    -0.01  -0.03  -0.00     0.01   0.04   0.01    -0.00  -0.00  -0.00
                     34                     35                     36
                        a                      a                      a 
 Frequencies --   454.6925               564.1054               615.7940
 Red. masses --    14.8631                11.8196                10.8152
 Frc consts  --     0.0000                 0.0000                 0.0000
 IR Inten    --    25.6393                33.5757                11.5518
 Raman Activ --     0.0000                 0.0000                 0.0000
 Depolar     --     0.0000                 0.0000                 0.0000
 Atom AN      X      Y      Z        X      Y      Z        X      Y      Z
   1   6    -0.05  -0.02  -0.01    -0.05  -0.04  -0.03    -0.01  -0.03  -0.01
   2   6     0.13  -0.08  -0.02     0.02  -0.03  -0.03     0.22  -0.07  -0.05
   3   8     0.12   0.01   0.07     0.03   0.22   0.14     0.10   0.27   0.09
   4   6     0.01   0.02   0.13     0.02  -0.29  -0.32    -0.12  -0.32  -0.31
   5   8    -0.17  -0.04  -0.02     0.08   0.14   0.13     0.11   0.05   0.21
   6   6    -0.02   0.13  -0.04     0.01  -0.33  -0.05    -0.28   0.11  -0.04
   7   6     0.02   0.14  -0.17     0.09  -0.15  -0.24    -0.06   0.23   0.11
   8   1    -0.02   0.05  -0.05     0.01  -0.14  -0.12    -0.00   0.16   0.08
   9   6    -0.09  -0.07  -0.04    -0.01   0.20  -0.25    -0.01  -0.13   0.27
  10   8     0.01  -0.01   0.07     0.08   0.14   0.35    -0.08  -0.05  -0.23
  11   8    -0.23  -0.43   0.11    -0.25   0.05   0.10     0.20  -0.04  -0.07
  12   6    -0.02   0.02  -0.36     0.01   0.04   0.04    -0.01  -0.04  -0.05
  13   6     0.11   0.23   0.07     0.03   0.03   0.00    -0.02  -0.02   0.00
  14  16     0.13   0.04   0.31    -0.02   0.01   0.03     0.02  -0.03   0.00
  15  15     0.09  -0.05  -0.15     0.01  -0.01   0.02    -0.02   0.01  -0.05
  16  16    -0.11   0.05  -0.11    -0.02   0.02  -0.04     0.03  -0.02   0.04
  17   8    -0.01  -0.11  -0.03     0.00  -0.01  -0.01    -0.00   0.01   0.01
  18   6     0.02  -0.03   0.02     0.01  -0.00   0.00    -0.00   0.00  -0.00
  19   8     0.02   0.04   0.08     0.00  -0.00   0.01    -0.01  -0.00   0.00
  20   6     0.01   0.06   0.02     0.00   0.00  -0.00     0.00  -0.01  -0.00
  21   1    -0.04  -0.02  -0.01    -0.04  -0.03  -0.02    -0.06  -0.05  -0.03
  22   1    -0.01   0.05   0.04    -0.01   0.03   0.02    -0.00   0.09   0.07
  23   1    -0.05  -0.03  -0.02    -0.04  -0.03  -0.02    -0.07  -0.04  -0.02
  24   1     0.03  -0.02   0.01    -0.01  -0.02  -0.01    -0.00  -0.03   0.03
  25   1     0.04  -0.03  -0.01    -0.01  -0.02  -0.01     0.08  -0.07  -0.01
  26   1    -0.08   0.05  -0.02     0.12   0.05   0.07    -0.00   0.17   0.07
  27   1     0.03   0.04  -0.03    -0.13  -0.19   0.14    -0.29  -0.02   0.13
  28   1    -0.00   0.04  -0.11     0.05   0.02   0.08    -0.04  -0.01  -0.07
  29   1    -0.02   0.04  -0.06     0.04  -0.02  -0.05    -0.03   0.02   0.04
  30   1    -0.03  -0.07   0.16    -0.00   0.02   0.00    -0.00  -0.01   0.01
  31   1     0.09   0.17   0.04     0.01   0.01   0.01    -0.01   0.00  -0.01
  32   1     0.09   0.18   0.06     0.01   0.01  -0.01    -0.01  -0.00   0.01
  33   1    -0.01   0.01  -0.00     0.00   0.00   0.00     0.00  -0.00   0.00
  34   1     0.01  -0.00   0.01     0.00   0.00   0.00     0.00  -0.00  -0.00
  35   1     0.02  -0.01   0.02     0.00  -0.00   0.00    -0.00   0.00  -0.01
  36   1     0.01   0.03   0.00     0.00   0.00  -0.00     0.00  -0.00   0.00
  37   1     0.00   0.02  -0.00    -0.00   0.00  -0.00     0.00  -0.00  -0.00
  38   1     0.00   0.01   0.00    -0.00  -0.00  -0.00     0.00  -0.00   0.00
                     37                     38                     39
                        a                      a                      a 
 Frequencies --   642.6927               672.3836               693.4228
 Red. masses --    24.7016                12.7386                12.2168
 Frc consts  --     0.0000                 0.0000                 0.0000
 IR Inten    --   250.7929                11.3886                27.9657
 Raman Activ --     0.0000                 0.0000                 0.0000
 Depolar     --     0.0000                 0.0000                 0.0000
 Atom AN      X      Y      Z        X      Y      Z        X      Y      Z
   1   6     0.00   0.00   0.00     0.03   0.01   0.02    -0.01  -0.01  -0.01
   2   6     0.03  -0.01  -0.01     0.15   0.00  -0.06    -0.03   0.01   0.00
   3   8     0.01   0.02  -0.03     0.03   0.22  -0.33    -0.00   0.04   0.01
   4   6    -0.04   0.02   0.01    -0.28   0.27   0.18     0.02  -0.08  -0.09
   5   8     0.03  -0.02   0.02     0.32  -0.22   0.08     0.02   0.04   0.01
   6   6    -0.05   0.01   0.00    -0.41  -0.14   0.08     0.03  -0.04   0.09
   7   6    -0.06  -0.00  -0.01    -0.20  -0.10   0.01     0.10   0.09   0.37
   8   1     0.00   0.02   0.01    -0.03  -0.12  -0.04     0.01  -0.10   0.04
   9   6    -0.03  -0.06   0.03     0.06   0.08  -0.18     0.32   0.51  -0.21
  10   8     0.02  -0.01  -0.02     0.02  -0.05   0.07    -0.30  -0.10  -0.00
  11   8     0.02   0.03  -0.02    -0.06  -0.01   0.05     0.13  -0.26   0.13
  12   6     0.01   0.01   0.03     0.01   0.03   0.05    -0.01  -0.10  -0.17
  13   6     0.00  -0.00   0.00     0.01   0.02   0.00    -0.02  -0.01  -0.02
  14  16     0.02   0.00  -0.10     0.19   0.00   0.02    -0.14  -0.04  -0.10
  15  15    -0.07  -0.21   0.57    -0.00   0.02  -0.06     0.04   0.00   0.09
  16  16    -0.30   0.14  -0.36     0.03  -0.01   0.03    -0.03   0.02  -0.04
  17   8     0.04  -0.20  -0.19    -0.00   0.02   0.02     0.01  -0.01  -0.03
  18   6     0.04  -0.04   0.03    -0.00   0.00  -0.00     0.01  -0.01   0.01
  19   8     0.43   0.10  -0.04    -0.03  -0.01   0.01     0.00  -0.00  -0.02
  20   6     0.04   0.21   0.03    -0.00  -0.02  -0.00    -0.00   0.01  -0.00
  21   1    -0.01  -0.01  -0.00    -0.02  -0.05  -0.01     0.00  -0.00   0.00
  22   1     0.00   0.01   0.01     0.01   0.05   0.04    -0.00  -0.01  -0.01
  23   1    -0.01  -0.00   0.00    -0.03  -0.00   0.03     0.00   0.00   0.00
  24   1    -0.01  -0.00   0.01    -0.10   0.00   0.12    -0.01   0.00  -0.00
  25   1     0.02  -0.01  -0.00     0.16  -0.12   0.00    -0.01   0.00   0.00
  26   1    -0.01   0.01   0.00    -0.15  -0.10  -0.01     0.03  -0.18  -0.04
  27   1    -0.01  -0.01   0.01    -0.03   0.00  -0.05    -0.05   0.15  -0.10
  28   1     0.00  -0.00   0.01     0.01   0.01   0.03    -0.05   0.01  -0.14
  29   1     0.00  -0.00   0.00     0.02  -0.00  -0.01    -0.06   0.04   0.07
  30   1     0.01   0.01  -0.01     0.01   0.01  -0.01    -0.04  -0.06   0.06
  31   1    -0.01  -0.01  -0.00     0.00  -0.01   0.00     0.02   0.07  -0.01
  32   1    -0.01  -0.01  -0.00     0.00  -0.00  -0.01    -0.00   0.04   0.03
  33   1    -0.02   0.03  -0.01     0.00  -0.00   0.00    -0.00   0.00   0.00
  34   1    -0.00   0.02   0.01     0.00  -0.00  -0.00    -0.00   0.00   0.00
  35   1     0.05  -0.03   0.07    -0.00   0.00  -0.01     0.01  -0.00   0.01
  36   1    -0.02   0.02   0.00     0.00  -0.00  -0.00    -0.00  -0.00  -0.00
  37   1    -0.02   0.15   0.02     0.00  -0.01  -0.00    -0.00   0.00   0.00
  38   1    -0.02   0.00  -0.00     0.00  -0.00   0.00     0.00   0.00  -0.00
                     40                     41                     42
                        a                      a                      a 
 Frequencies --   734.0797               772.4550               787.6571
 Red. masses --    22.2698                23.1458                11.6298
 Frc consts  --     0.0000                 0.0000                 0.0000
 IR Inten    --   306.5698               257.6743                21.4765
 Raman Activ --     0.0000                 0.0000                 0.0000
 Depolar     --     0.0000                 0.0000                 0.0000
 Atom AN      X      Y      Z        X      Y      Z        X      Y      Z
   1   6     0.00   0.00   0.00     0.00   0.00   0.00     0.04   0.01   0.03
   2   6     0.01   0.00  -0.00     0.01  -0.01   0.01     0.11  -0.10   0.07
   3   8    -0.00   0.01  -0.01    -0.00  -0.02   0.02    -0.05  -0.15   0.19
   4   6    -0.01   0.00   0.00     0.01  -0.01  -0.01     0.07  -0.05  -0.12
   5   8     0.00  -0.01   0.01    -0.01   0.02  -0.01    -0.04   0.12  -0.08
   6   6    -0.01   0.01   0.00     0.01   0.01  -0.01    -0.04   0.20  -0.07
   7   6    -0.00   0.00  -0.01    -0.06  -0.02   0.02    -0.62  -0.12   0.17
   8   1     0.01   0.02   0.01    -0.04  -0.01  -0.01    -0.26  -0.05  -0.00
   9   6    -0.02  -0.05   0.03     0.02   0.02  -0.04     0.08   0.04  -0.23
  10   8     0.03   0.01  -0.01     0.00  -0.01   0.01     0.05  -0.12   0.01
  11   8    -0.01   0.02  -0.02    -0.01  -0.01   0.01    -0.04  -0.06   0.00
  12   6    -0.00   0.01   0.00    -0.00   0.01   0.01     0.00   0.07   0.11
  13   6    -0.00  -0.00   0.00     0.00   0.00  -0.00     0.02   0.04   0.01
  14  16     0.01  -0.00  -0.04     0.02   0.00   0.02     0.26   0.04  -0.03
  15  15     0.42   0.43   0.32    -0.51   0.45  -0.15     0.07  -0.03   0.00
  16  16    -0.12   0.05  -0.15     0.17  -0.09   0.19    -0.01   0.01  -0.01
  17   8     0.02  -0.28  -0.22     0.08  -0.36  -0.30    -0.01   0.04   0.04
  18   6     0.08  -0.09   0.07     0.20  -0.21   0.15    -0.02   0.02  -0.02
  19   8    -0.49  -0.10  -0.02     0.18  -0.01   0.01    -0.03   0.00   0.00
  20   6    -0.06  -0.19  -0.03     0.01   0.08   0.01    -0.00  -0.02  -0.00
  21   1    -0.00  -0.00  -0.00    -0.00   0.01   0.00     0.00   0.11   0.02
  22   1     0.00   0.00   0.00     0.00   0.00   0.00     0.01   0.08   0.01
  23   1    -0.00   0.00   0.00    -0.00  -0.01  -0.01    -0.04  -0.06  -0.11
  24   1    -0.00   0.00   0.00     0.01  -0.01  -0.02     0.13  -0.06  -0.17
  25   1     0.01  -0.00  -0.00    -0.01   0.02   0.00    -0.08   0.16   0.01
  26   1    -0.00   0.01   0.00     0.00   0.00  -0.00     0.06   0.04  -0.01
  27   1    -0.00  -0.00   0.00    -0.00   0.00  -0.00    -0.04   0.03   0.01
  28   1     0.00  -0.00   0.01     0.00  -0.00   0.01     0.01  -0.02   0.07
  29   1     0.01  -0.00  -0.01     0.00   0.00  -0.00     0.04   0.00  -0.02
  30   1     0.00   0.00  -0.00     0.00   0.00  -0.00     0.04   0.04  -0.04
  31   1    -0.00  -0.01   0.00    -0.00  -0.01   0.00    -0.01  -0.05   0.01
  32   1     0.00   0.00  -0.00     0.00   0.00  -0.00     0.02  -0.00  -0.02
  33   1    -0.02   0.03   0.00     0.00   0.02   0.01     0.00  -0.00  -0.00
  34   1     0.01   0.01   0.02     0.03  -0.01   0.05    -0.00  -0.00  -0.01
  35   1     0.08  -0.05   0.10     0.12  -0.09   0.14    -0.01   0.01  -0.02
  36   1     0.03  -0.01  -0.00    -0.01   0.00   0.00     0.00   0.00  -0.00
  37   1     0.03  -0.19  -0.03    -0.01   0.08   0.01     0.00  -0.01  -0.00
  38   1     0.03   0.02   0.00    -0.01  -0.01  -0.00     0.00   0.00   0.00
                     43                     44                     45
                        a                      a                      a 
 Frequencies --   804.9089               822.4190               873.9608
 Red. masses --     4.7198                 4.3918                 9.0044
 Frc consts  --     0.0000                 0.0000                 0.0000
 IR Inten    --    20.1196                 3.2309                33.8684
 Raman Activ --     0.0000                 0.0000                 0.0000
 Depolar     --     0.0000                 0.0000                 0.0000
 Atom AN      X      Y      Z        X      Y      Z        X      Y      Z
   1   6     0.01  -0.00   0.01    -0.04   0.03  -0.10     0.00   0.01  -0.01
   2   6     0.01  -0.02   0.02    -0.11   0.18  -0.17     0.00   0.01  -0.01
   3   8    -0.01  -0.04   0.01     0.06  -0.02   0.08     0.00  -0.07   0.03
   4   6     0.01   0.08   0.05     0.07  -0.16  -0.03     0.02   0.13   0.10
   5   8     0.01   0.00  -0.04    -0.10  -0.02   0.07    -0.01  -0.00  -0.05
   6   6    -0.01  -0.12  -0.08     0.18   0.15  -0.04     0.01  -0.21  -0.16
   7   6    -0.11  -0.08  -0.17    -0.24  -0.05   0.05    -0.08  -0.03  -0.15
   8   1    -0.04  -0.02  -0.05    -0.13   0.01  -0.00    -0.05   0.02  -0.04
   9   6    -0.10   0.08   0.08     0.00  -0.00  -0.09    -0.02   0.21   0.19
  10   8    -0.17   0.15   0.02     0.02  -0.03   0.01    -0.30   0.19  -0.01
  11   8     0.11  -0.14  -0.07    -0.02  -0.04  -0.03     0.32  -0.32  -0.08
  12   6     0.25  -0.06   0.16     0.03   0.02   0.07    -0.06   0.09   0.10
  13   6     0.10   0.03   0.02     0.03   0.03   0.01    -0.06   0.11   0.02
  14  16     0.06   0.01   0.02     0.08   0.02  -0.01     0.03   0.01   0.01
  15  15     0.01   0.01  -0.00     0.01   0.00  -0.01     0.01   0.01   0.01
  16  16    -0.00  -0.00  -0.00     0.00   0.00   0.00    -0.00  -0.00  -0.00
  17   8     0.00  -0.01  -0.00     0.00   0.00   0.01     0.00  -0.00  -0.00
  18   6     0.00  -0.00   0.00    -0.00   0.00  -0.00    -0.00   0.00  -0.00
  19   8    -0.01   0.00   0.00    -0.00  -0.00  -0.00    -0.00   0.00  -0.00
  20   6    -0.00  -0.01  -0.00     0.00  -0.00  -0.00    -0.00  -0.00  -0.00
  21   1     0.00   0.04   0.01    -0.06  -0.35  -0.08    -0.01  -0.04  -0.01
  22   1     0.00   0.01  -0.00    -0.01  -0.14   0.06     0.00  -0.01   0.01
  23   1    -0.01  -0.02  -0.03     0.10   0.19   0.33     0.01   0.02   0.03
  24   1     0.02  -0.02  -0.05    -0.08   0.19   0.40     0.02   0.02   0.03
  25   1    -0.02   0.04   0.01     0.06  -0.40  -0.08    -0.01  -0.03  -0.01
  26   1     0.01   0.06   0.02     0.06   0.02  -0.02     0.05   0.12   0.05
  27   1     0.03  -0.13   0.06     0.05   0.03  -0.01     0.03  -0.23   0.12
  28   1    -0.08   0.24  -0.33    -0.00   0.03  -0.01    -0.07  -0.24   0.08
  29   1    -0.29  -0.04   0.38    -0.03  -0.01   0.04     0.17   0.18  -0.03
  30   1    -0.05   0.14  -0.07     0.01   0.05  -0.03     0.13   0.01  -0.05
  31   1    -0.01   0.27  -0.17    -0.01   0.02  -0.02    -0.04  -0.26   0.12
  32   1    -0.27  -0.19   0.14    -0.03  -0.03   0.01     0.19   0.13  -0.13
  33   1     0.00   0.00   0.00     0.00  -0.00  -0.00     0.00   0.00  -0.00
  34   1    -0.00  -0.00  -0.00    -0.00  -0.00  -0.00    -0.00   0.00  -0.00
  35   1     0.00  -0.00   0.00    -0.00   0.00  -0.00     0.00  -0.00   0.00
  36   1     0.00   0.00  -0.00    -0.00  -0.00  -0.00     0.00   0.00   0.00
  37   1     0.00  -0.01  -0.00     0.00  -0.00   0.00     0.00  -0.00  -0.00
  38   1     0.00  -0.00  -0.00     0.00   0.00   0.00     0.00  -0.00  -0.00
                     46                     47                     48
                        a                      a                      a 
 Frequencies --   889.9317               905.8574               948.2689
 Red. masses --     9.9566                 9.4798                10.4698
 Frc consts  --     0.0000                 0.0000                 0.0000
 IR Inten    --    16.0613                 7.6826                 8.0633
 Raman Activ --     0.0000                 0.0000                 0.0000
 Depolar     --     0.0000                 0.0000                 0.0000
 Atom AN      X      Y      Z        X      Y      Z        X      Y      Z
   1   6    -0.18  -0.14  -0.03     0.15   0.10   0.04    -0.16  -0.05  -0.11
   2   6    -0.29   0.07   0.11     0.19  -0.07  -0.07    -0.08   0.05   0.09
   3   8     0.37   0.25  -0.17    -0.31  -0.09   0.09     0.25  -0.19   0.21
   4   6     0.04  -0.22  -0.02    -0.02  -0.00  -0.13     0.31   0.12  -0.01
   5   8    -0.03  -0.09   0.15     0.05   0.10  -0.06     0.12   0.26  -0.28
   6   6     0.08   0.10   0.14    -0.05   0.07   0.21    -0.46  -0.18   0.11
   7   6    -0.05   0.05  -0.02     0.23   0.03   0.03     0.00   0.11  -0.02
   8   1     0.01  -0.01  -0.01     0.19  -0.08   0.01     0.09  -0.03   0.00
   9   6    -0.10  -0.05  -0.07    -0.15  -0.09  -0.12    -0.01  -0.04  -0.00
  10   8    -0.01   0.02  -0.00     0.02   0.02   0.02     0.03  -0.02  -0.01
  11   8    -0.01  -0.22  -0.18    -0.08  -0.27  -0.26    -0.02   0.02  -0.00
  12   6     0.02   0.08   0.21     0.02   0.08   0.26    -0.01  -0.00   0.00
  13   6     0.06   0.15   0.04     0.09   0.21   0.05     0.01   0.00  -0.00
  14  16     0.01   0.01   0.01    -0.06  -0.01   0.02     0.01  -0.02   0.01
  15  15    -0.00   0.00  -0.01    -0.01  -0.00  -0.01    -0.00  -0.00   0.00
  16  16     0.00  -0.00   0.00     0.00  -0.00   0.00     0.00  -0.00  -0.00
  17   8    -0.00  -0.00   0.00    -0.00  -0.00  -0.00    -0.00   0.00  -0.00
  18   6     0.00  -0.00  -0.00     0.00  -0.00   0.00     0.00  -0.00   0.00
  19   8    -0.00   0.00   0.00     0.00  -0.00   0.00    -0.00   0.00   0.00
  20   6     0.00  -0.00  -0.00     0.00   0.00  -0.00     0.00  -0.00  -0.00
  21   1     0.11   0.16   0.07    -0.08  -0.08  -0.04     0.04  -0.08  -0.01
  22   1    -0.05  -0.19  -0.22     0.04   0.16   0.16    -0.04  -0.22  -0.11
  23   1     0.03  -0.05  -0.12    -0.04   0.01   0.05     0.09   0.08   0.09
  24   1    -0.11  -0.03  -0.05     0.06  -0.01   0.00     0.17   0.09   0.06
  25   1     0.07   0.14   0.08    -0.05  -0.07  -0.05    -0.07  -0.00   0.00
  26   1    -0.07  -0.10  -0.04    -0.04  -0.18  -0.03    -0.22  -0.05   0.01
  27   1     0.05   0.15  -0.10    -0.03   0.20  -0.12    -0.22   0.03  -0.01
  28   1    -0.03  -0.06   0.03    -0.04  -0.07   0.03     0.01   0.01   0.01
  29   1     0.01   0.01   0.04    -0.01  -0.02   0.05    -0.01  -0.01  -0.01
  30   1     0.11   0.15  -0.12     0.14   0.21  -0.17    -0.00   0.00  -0.00
  31   1    -0.04  -0.09   0.00    -0.05  -0.10  -0.01     0.00   0.01  -0.01
  32   1     0.01  -0.03  -0.05    -0.00  -0.05  -0.05    -0.01  -0.01   0.00
  33   1     0.00  -0.00   0.00     0.00  -0.00   0.00     0.00   0.00   0.00
  34   1    -0.00   0.00  -0.00     0.00   0.00   0.00     0.00  -0.00   0.00
  35   1    -0.00   0.00  -0.00     0.00  -0.00  -0.00     0.00  -0.00   0.00
  36   1     0.00  -0.00  -0.00    -0.00  -0.00  -0.00    -0.00   0.00  -0.00
  37   1     0.00  -0.00   0.00    -0.00   0.00   0.00     0.00  -0.00  -0.00
  38   1    -0.00   0.00   0.00    -0.00   0.00  -0.00    -0.00  -0.00   0.00
                     49                     50                     51
                        a                      a                      a 
 Frequencies --   975.2786               986.8630              1025.0202
 Red. masses --     8.1122                14.5101                14.1347
 Frc consts  --     0.0000                 0.0000                 0.0000
 IR Inten    --     9.8820               340.8509               164.1532
 Raman Activ --     0.0000                 0.0000                 0.0000
 Depolar     --     0.0000                 0.0000                 0.0000
 Atom AN      X      Y      Z        X      Y      Z        X      Y      Z
   1   6     0.05   0.03   0.01    -0.00  -0.00  -0.00    -0.00   0.00   0.00
   2   6    -0.00  -0.02  -0.02     0.00   0.00   0.00     0.00   0.00  -0.00
   3   8    -0.07   0.03   0.02     0.01  -0.00   0.00    -0.00   0.00  -0.00
   4   6     0.04  -0.18  -0.20     0.00   0.01   0.01     0.00  -0.00  -0.00
   5   8     0.05   0.08  -0.00    -0.00  -0.00  -0.00     0.00   0.00   0.00
   6   6    -0.01   0.08   0.35    -0.00  -0.01  -0.02    -0.01   0.01   0.01
   7   6    -0.18  -0.09  -0.36     0.02   0.01   0.02    -0.00  -0.01  -0.01
   8   1    -0.03  -0.24  -0.19    -0.00   0.01   0.01    -0.02  -0.01  -0.01
   9   6    -0.06  -0.02   0.20     0.00   0.00  -0.01     0.00  -0.00   0.02
  10   8    -0.11   0.11  -0.01     0.00  -0.01   0.00     0.00   0.00  -0.00
  11   8     0.23   0.08   0.13    -0.01  -0.00  -0.00    -0.01  -0.00  -0.01
  12   6     0.06   0.04  -0.07    -0.00  -0.00   0.00     0.00   0.01   0.00
  13   6    -0.11  -0.15  -0.04     0.01   0.01   0.00    -0.00  -0.01  -0.00
  14  16     0.06   0.01   0.02    -0.00  -0.00   0.00     0.01   0.00  -0.00
  15  15    -0.01   0.01  -0.00    -0.05   0.15   0.01     0.09  -0.01  -0.00
  16  16    -0.00   0.00  -0.00    -0.00   0.01   0.00     0.01  -0.00   0.00
  17   8     0.03  -0.03   0.02     0.43  -0.44   0.33    -0.15   0.21  -0.11
  18   6    -0.02   0.02  -0.02    -0.35   0.28  -0.37     0.14  -0.07   0.15
  19   8    -0.00   0.00   0.00    -0.02  -0.26  -0.03    -0.09  -0.69  -0.10
  20   6    -0.00  -0.00   0.00    -0.01   0.23   0.03    -0.01   0.59   0.08
  21   1    -0.02  -0.02  -0.01     0.00   0.00   0.00     0.00   0.00   0.00
  22   1     0.01   0.04   0.04    -0.00  -0.00  -0.00    -0.00  -0.00  -0.00
  23   1    -0.01   0.00   0.01     0.00  -0.00  -0.00     0.00   0.00  -0.00
  24   1     0.00  -0.01  -0.01     0.00   0.00   0.00     0.00  -0.00  -0.00
  25   1    -0.03  -0.01  -0.01     0.00   0.00   0.00     0.00   0.00   0.00
  26   1    -0.19  -0.24  -0.06     0.01   0.01   0.00    -0.01  -0.00  -0.00
  27   1     0.24   0.17  -0.16    -0.02  -0.01   0.01     0.01  -0.00  -0.00
  28   1     0.01   0.02  -0.03    -0.00  -0.00   0.00     0.00   0.00  -0.00
  29   1     0.07   0.13   0.04    -0.00  -0.01  -0.00     0.00   0.00   0.00
  30   1    -0.08  -0.18   0.13     0.00   0.01  -0.01    -0.00  -0.01   0.00
  31   1     0.03   0.01   0.04    -0.00  -0.00  -0.00     0.00   0.00   0.00
  32   1     0.05   0.07   0.01    -0.00  -0.00  -0.00     0.00   0.00   0.00
  33   1    -0.00   0.00  -0.00    -0.05   0.01  -0.05     0.05  -0.05   0.05
  34   1    -0.00   0.00  -0.00    -0.01   0.02  -0.05    -0.01  -0.02  -0.00
  35   1    -0.00   0.00  -0.00    -0.04   0.04  -0.03    -0.03  -0.00  -0.03
  36   1     0.00   0.00   0.00    -0.00   0.02   0.01    -0.02   0.04   0.03
  37   1     0.00  -0.00   0.00     0.00   0.03   0.01     0.01   0.09   0.02
  38   1     0.00  -0.00  -0.00    -0.01   0.03   0.00    -0.02   0.07   0.00
                     52                     53                     54
                        a                      a                      a 
 Frequencies --  1043.4402              1046.2943              1086.9935
 Red. masses --     8.9072                 8.8708                 5.9292
 Frc consts  --     0.0000                 0.0000                 0.0000
 IR Inten    --    51.6289                26.7479                25.2421
 Raman Activ --     0.0000                 0.0000                 0.0000
 Depolar     --     0.0000                 0.0000                 0.0000
 Atom AN      X      Y      Z        X      Y      Z        X      Y      Z
   1   6    -0.08  -0.08  -0.06    -0.28  -0.23  -0.18    -0.00  -0.07  -0.07
   2   6     0.13   0.07   0.06     0.49   0.21   0.18     0.09   0.09   0.08
   3   8    -0.06  -0.00   0.01    -0.27   0.02   0.05    -0.15   0.03  -0.04
   4   6    -0.05   0.04   0.03    -0.17   0.02  -0.06     0.04  -0.08  -0.08
   5   8    -0.01  -0.02   0.01    -0.00  -0.02   0.03     0.03   0.03  -0.01
   6   6     0.02   0.05  -0.07     0.05   0.11  -0.01     0.08  -0.27   0.18
   7   6     0.08  -0.02   0.08     0.05  -0.10  -0.04    -0.19   0.25  -0.04
   8   1     0.10   0.01   0.06    -0.01  -0.11  -0.05     0.09   0.42   0.21
   9   6    -0.09  -0.03  -0.14     0.00   0.01   0.06     0.13   0.08  -0.02
  10   8     0.01   0.01   0.02    -0.02   0.03   0.01     0.03  -0.08  -0.02
  11   8    -0.05  -0.17  -0.23     0.04   0.05   0.08    -0.09  -0.05  -0.03
  12   6     0.28   0.48   0.16    -0.07  -0.15  -0.05     0.04   0.19  -0.15
  13   6    -0.21  -0.35   0.01     0.05   0.10  -0.00    -0.03  -0.10   0.18
  14  16    -0.02  -0.00   0.01    -0.00   0.00  -0.00     0.00  -0.01   0.02
  15  15    -0.00  -0.00  -0.00    -0.00   0.00   0.00    -0.00  -0.00  -0.01
  16  16     0.00   0.00   0.00    -0.00  -0.00   0.00     0.00   0.00  -0.00
  17   8     0.00  -0.00   0.00    -0.00   0.00  -0.00     0.00  -0.00   0.00
  18   6    -0.00  -0.00  -0.00    -0.00   0.00   0.00    -0.00   0.00  -0.00
  19   8     0.00   0.01   0.00     0.00   0.00   0.00    -0.00  -0.00   0.00
  20   6     0.00  -0.00  -0.00    -0.00  -0.00  -0.00    -0.00   0.00  -0.00
  21   1     0.02  -0.01  -0.00     0.09  -0.03   0.01    -0.03  -0.04  -0.03
  22   1    -0.02  -0.08  -0.07    -0.06  -0.30  -0.23    -0.00   0.01   0.01
  23   1     0.02  -0.01  -0.01     0.09   0.01  -0.02    -0.02  -0.03  -0.02
  24   1     0.05   0.03   0.03     0.22   0.11   0.08     0.02   0.02   0.01
  25   1     0.05   0.03   0.02     0.15   0.12   0.07     0.00   0.03   0.02
  26   1     0.11   0.02   0.01     0.08  -0.02  -0.01    -0.21  -0.04   0.01
  27   1    -0.11   0.04   0.01     0.07   0.02  -0.02     0.41  -0.20   0.01
  28   1     0.08   0.18   0.00    -0.03  -0.06  -0.01     0.04   0.05  -0.00
  29   1     0.11   0.21   0.06    -0.03  -0.04  -0.00    -0.01  -0.05  -0.11
  30   1    -0.15  -0.27   0.20     0.04   0.07  -0.05     0.03   0.10  -0.08
  31   1     0.04   0.02   0.07    -0.01  -0.01  -0.02    -0.07  -0.08  -0.01
  32   1     0.00   0.05   0.07     0.01  -0.01  -0.03    -0.09  -0.14   0.03
  33   1    -0.00   0.00  -0.00     0.00  -0.00  -0.00     0.00  -0.00   0.00
  34   1    -0.00   0.00  -0.00     0.00  -0.00   0.00    -0.00   0.00  -0.00
  35   1     0.00  -0.00   0.00    -0.00   0.00  -0.00     0.00  -0.00   0.00
  36   1     0.00  -0.00  -0.00     0.00  -0.00   0.00     0.00  -0.00   0.00
  37   1    -0.00   0.00  -0.00    -0.00  -0.00   0.00     0.00  -0.00   0.00
  38   1     0.00  -0.00  -0.00     0.00  -0.00  -0.00     0.00   0.01   0.00
                     55                     56                     57
                        a                      a                      a 
 Frequencies --  1092.7563              1095.0413              1095.1396
 Red. masses --     7.5451                 7.3475                 3.5071
 Frc consts  --     0.0000                 0.0000                 0.0000
 IR Inten    --    18.0579                19.2464                 2.7780
 Raman Activ --     0.0000                 0.0000                 0.0000
 Depolar     --     0.0000                 0.0000                 0.0000
 Atom AN      X      Y      Z        X      Y      Z        X      Y      Z
   1   6    -0.06   0.13   0.12     0.19  -0.33  -0.26     0.00  -0.01  -0.01
   2   6     0.00  -0.16  -0.14    -0.12   0.39   0.32    -0.00   0.01   0.01
   3   8     0.02   0.01   0.03     0.09  -0.07  -0.05     0.00  -0.00  -0.00
   4   6    -0.00   0.01   0.02     0.02   0.03   0.04     0.00  -0.00  -0.00
   5   8    -0.01  -0.00   0.00    -0.01  -0.01  -0.01    -0.00   0.00  -0.00
   6   6    -0.05   0.12  -0.07    -0.03   0.07  -0.04    -0.01   0.01  -0.00
   7   6     0.09  -0.14   0.01     0.05  -0.06   0.01     0.01  -0.01   0.00
   8   1    -0.05  -0.16  -0.08    -0.06  -0.12  -0.08    -0.01  -0.00  -0.01
   9   6    -0.03  -0.01   0.02    -0.04  -0.02   0.01     0.01   0.00   0.01
  10   8    -0.02   0.03   0.02    -0.01   0.02   0.01    -0.00   0.00   0.00
  11   8     0.01   0.00   0.12     0.02   0.02   0.06    -0.01  -0.00  -0.01
  12   6     0.17   0.21  -0.41     0.06   0.03  -0.14     0.00   0.01  -0.00
  13   6    -0.11  -0.14   0.40    -0.03  -0.03   0.13    -0.00  -0.00   0.01
  14  16    -0.00   0.00  -0.01     0.00   0.00  -0.01    -0.00   0.00   0.00
  15  15     0.00   0.00   0.00     0.00   0.00   0.00     0.01   0.00  -0.00
  16  16    -0.00   0.00  -0.00    -0.00   0.00  -0.00    -0.00  -0.00   0.00
  17   8    -0.00  -0.00  -0.00    -0.01  -0.00   0.00     0.15   0.07  -0.13
  18   6     0.00   0.00   0.00     0.01   0.00  -0.00    -0.31  -0.13   0.23
  19   8     0.00   0.00   0.00    -0.00   0.00  -0.00    -0.01  -0.02  -0.00
  20   6     0.00  -0.00  -0.00     0.00   0.00  -0.00     0.01   0.01   0.00
  21   1     0.08   0.08   0.07    -0.22  -0.19  -0.17    -0.00  -0.00  -0.00
  22   1    -0.01  -0.08  -0.07     0.03   0.26   0.20     0.00   0.01   0.00
  23   1     0.08   0.08   0.04    -0.21  -0.20  -0.13    -0.00  -0.00  -0.00
  24   1     0.01  -0.03  -0.02    -0.06   0.08   0.05    -0.00   0.00   0.00
  25   1     0.02  -0.04  -0.03    -0.07   0.07   0.07    -0.00   0.00   0.00
  26   1     0.02   0.04  -0.01     0.03   0.02  -0.00    -0.01   0.01  -0.00
  27   1    -0.11   0.06  -0.00    -0.13   0.06  -0.00     0.00  -0.00   0.00
  28   1     0.02   0.01  -0.13    -0.00  -0.01  -0.05     0.00   0.00  -0.00
  29   1     0.02   0.05  -0.08     0.01   0.03  -0.01    -0.00  -0.00  -0.00
  30   1     0.13   0.20  -0.18     0.05   0.07  -0.06     0.00   0.00  -0.00
  31   1    -0.18  -0.28   0.02    -0.06  -0.10   0.01    -0.00  -0.00   0.00
  32   1    -0.12  -0.26  -0.01    -0.03  -0.08  -0.01    -0.00  -0.00   0.00
  33   1     0.00  -0.01   0.00     0.00  -0.01   0.01    -0.08   0.23  -0.39
  34   1    -0.00  -0.00  -0.00    -0.01   0.00  -0.01     0.50  -0.28   0.35
  35   1    -0.01   0.00  -0.00    -0.00  -0.00   0.00     0.02   0.24  -0.26
  36   1     0.00  -0.00   0.00    -0.00  -0.00  -0.00    -0.01  -0.00  -0.00
  37   1    -0.00   0.00   0.00    -0.00   0.00   0.00    -0.00   0.02   0.00
  38   1    -0.00   0.00   0.00    -0.00  -0.00   0.00    -0.01  -0.01  -0.00
                     58                     59                     60
                        a                      a                      a 
 Frequencies --  1105.2744              1109.9349              1108.3860
 Red. masses --     4.1353                 6.7079                 3.6350
 Frc consts  --     0.0000                 0.0000                 0.0000
 IR Inten    --     6.4680               103.7130                 1.5018
 Raman Activ --     0.0000                 0.0000                 0.0000
 Depolar     --     0.0000                 0.0000                 0.0000
 Atom AN      X      Y      Z        X      Y      Z        X      Y      Z
   1   6    -0.00   0.00  -0.00     0.01  -0.02   0.01     0.00  -0.00   0.00
   2   6    -0.00  -0.00   0.00     0.03   0.05  -0.04     0.00   0.01  -0.01
   3   8     0.01  -0.01   0.00    -0.11   0.06  -0.04    -0.01   0.00  -0.00
   4   6    -0.02   0.01  -0.00     0.24  -0.15   0.00     0.02  -0.01   0.00
   5   8     0.00  -0.00   0.00    -0.01   0.04  -0.01    -0.00   0.00  -0.00
   6   6     0.02  -0.02   0.01    -0.19   0.24  -0.08    -0.02   0.03  -0.01
   7   6    -0.02   0.04  -0.01     0.24  -0.44   0.16     0.02  -0.05   0.02
   8   1     0.01  -0.00  -0.00    -0.09   0.08   0.08    -0.00   0.01   0.01
   9   6    -0.00  -0.01  -0.00     0.01   0.07  -0.05    -0.00   0.01  -0.01
  10   8     0.00  -0.00  -0.00    -0.03   0.05   0.05    -0.00   0.01   0.01
  11   8     0.00   0.00   0.00    -0.02  -0.02  -0.03     0.00  -0.00  -0.00
  12   6    -0.00  -0.00   0.00     0.03  -0.03   0.06     0.00  -0.01   0.01
  13   6     0.00  -0.00  -0.00    -0.02   0.02  -0.04    -0.00   0.00  -0.01
  14  16    -0.00  -0.00   0.00    -0.02   0.01  -0.01     0.00   0.00  -0.00
  15  15    -0.02   0.03   0.02     0.00   0.00   0.01    -0.00   0.00   0.02
  16  16     0.00  -0.00   0.00     0.00  -0.00  -0.00    -0.00   0.00  -0.00
  17   8    -0.01  -0.21  -0.16    -0.00  -0.02  -0.01    -0.00  -0.05  -0.04
  18   6     0.04   0.29   0.24     0.01   0.02   0.01     0.01   0.07   0.06
  19   8     0.09   0.04  -0.03     0.01   0.01  -0.03    -0.00   0.01   0.21
  20   6    -0.12  -0.03   0.08    -0.00  -0.01   0.05     0.01   0.03  -0.40
  21   1     0.00  -0.00  -0.00     0.00   0.02   0.01     0.00   0.00   0.00
  22   1    -0.00  -0.00   0.00     0.00   0.02  -0.01     0.00   0.00  -0.00
  23   1     0.00   0.00   0.00    -0.01  -0.02  -0.03    -0.00  -0.00  -0.00
  24   1     0.01   0.00  -0.00    -0.09  -0.01   0.01    -0.01  -0.00   0.00
  25   1    -0.00   0.00  -0.00     0.04   0.00   0.00     0.01  -0.00  -0.00
  26   1     0.04  -0.03   0.00    -0.53   0.32  -0.01    -0.05   0.03  -0.00
  27   1    -0.02   0.01  -0.00     0.21  -0.10   0.03     0.02  -0.01   0.00
  28   1     0.00   0.00   0.00    -0.02  -0.02  -0.02    -0.00  -0.00  -0.00
  29   1     0.00  -0.00  -0.00     0.00   0.02   0.05     0.00   0.01   0.01
  30   1    -0.00  -0.00   0.00    -0.00  -0.03   0.02    -0.00  -0.01   0.01
  31   1     0.00   0.00  -0.00     0.01  -0.00   0.02     0.00   0.00   0.00
  32   1    -0.00  -0.00   0.00     0.03   0.05  -0.01     0.01   0.01  -0.00
  33   1     0.31  -0.34   0.19     0.02  -0.03   0.02     0.07  -0.08   0.04
  34   1     0.01  -0.21  -0.07    -0.01  -0.01  -0.01     0.00  -0.05  -0.02
  35   1    -0.39   0.18  -0.41    -0.03   0.01  -0.02    -0.09   0.04  -0.10
  36   1     0.06   0.19   0.01    -0.00   0.08  -0.01     0.04  -0.63   0.05
  37   1     0.03  -0.20  -0.07    -0.00  -0.01  -0.03     0.01   0.08   0.25
  38   1     0.07   0.02  -0.05     0.01  -0.05  -0.03    -0.07   0.45   0.25
                     61                     62                     63
                        a                      a                      a 
 Frequencies --  1115.2805              1127.3796              1145.1062
 Red. masses --     4.2080                 4.8088                 7.2976
 Frc consts  --     0.0000                 0.0000                 0.0000
 IR Inten    --     6.2409                69.7511                68.4163
 Raman Activ --     0.0000                 0.0000                 0.0000
 Depolar     --     0.0000                 0.0000                 0.0000
 Atom AN      X      Y      Z        X      Y      Z        X      Y      Z
   1   6    -0.00   0.00   0.00    -0.01   0.00   0.00    -0.01  -0.16   0.17
   2   6     0.00  -0.00   0.00     0.04   0.00  -0.01     0.12   0.28  -0.30
   3   8    -0.00  -0.00   0.00    -0.07   0.02  -0.02    -0.26  -0.07   0.07
   4   6    -0.01   0.00  -0.00     0.03   0.01   0.01     0.34  -0.07   0.15
   5   8     0.00  -0.00   0.00     0.01   0.01  -0.01    -0.03   0.04  -0.05
   6   6     0.01  -0.01   0.01     0.04  -0.15   0.07     0.03  -0.15   0.03
   7   6    -0.00   0.01  -0.00     0.21   0.18   0.10    -0.10   0.16  -0.02
   8   1    -0.01   0.00  -0.00    -0.69  -0.11  -0.32    -0.01  -0.01  -0.03
   9   6     0.00  -0.00   0.00     0.10  -0.01   0.23    -0.06  -0.06  -0.06
  10   8     0.00  -0.00  -0.00     0.02  -0.02  -0.04     0.01  -0.01  -0.01
  11   8    -0.00  -0.00  -0.00    -0.11  -0.12  -0.18     0.02   0.05   0.05
  12   6    -0.00   0.00   0.00    -0.11   0.17   0.06     0.05  -0.06  -0.01
  13   6     0.00  -0.00  -0.00     0.07  -0.06   0.00    -0.03   0.02  -0.00
  14  16     0.00   0.00  -0.00     0.01   0.01  -0.06     0.01  -0.00   0.00
  15  15     0.03   0.02   0.01     0.00  -0.00   0.02     0.00   0.00  -0.00
  16  16     0.00  -0.00  -0.00    -0.00   0.00  -0.00     0.00  -0.00   0.00
  17   8    -0.01  -0.09  -0.05    -0.00  -0.01   0.00    -0.00   0.00  -0.00
  18   6     0.02   0.09   0.06     0.00   0.01  -0.01    -0.00  -0.00   0.00
  19   8    -0.27   0.05  -0.01     0.01   0.02  -0.00    -0.00  -0.00  -0.00
  20   6     0.40  -0.05   0.04    -0.00  -0.01  -0.01     0.00   0.00   0.00
  21   1     0.00  -0.00   0.00     0.01   0.00   0.00     0.06   0.24   0.10
  22   1    -0.00  -0.00  -0.00    -0.00  -0.01  -0.01    -0.00   0.07  -0.10
  23   1     0.00   0.00   0.00     0.01   0.00  -0.00    -0.05  -0.15  -0.21
  24   1     0.00  -0.00  -0.00    -0.01  -0.00  -0.00    -0.36   0.01   0.13
  25   1    -0.00   0.00  -0.00     0.01   0.00  -0.00     0.29  -0.10  -0.01
  26   1     0.01  -0.01   0.00    -0.10  -0.01   0.01     0.03  -0.05   0.01
  27   1    -0.00   0.00  -0.00    -0.02  -0.00  -0.00    -0.20   0.06   0.01
  28   1     0.00   0.00   0.00     0.05   0.07   0.12    -0.02  -0.02  -0.04
  29   1    -0.00  -0.00  -0.00    -0.00  -0.11  -0.14     0.00   0.04   0.06
  30   1    -0.00  -0.00   0.00    -0.05   0.02   0.01     0.02  -0.01   0.00
  31   1     0.00   0.00  -0.00     0.02   0.10  -0.05    -0.01  -0.04   0.02
  32   1    -0.00  -0.00   0.00    -0.07  -0.06   0.06     0.03   0.02  -0.02
  33   1     0.09  -0.11   0.06     0.00  -0.01   0.01    -0.00   0.00  -0.00
  34   1    -0.01  -0.05  -0.03    -0.01   0.00  -0.01     0.00  -0.00   0.00
  35   1    -0.11   0.04  -0.11    -0.00  -0.00   0.00     0.00   0.00  -0.00
  36   1    -0.22  -0.15  -0.08     0.00  -0.00   0.00    -0.00   0.00  -0.00
  37   1    -0.12   0.62   0.05     0.00  -0.01   0.00    -0.00   0.00  -0.00
  38   1    -0.17  -0.43  -0.03     0.00   0.01   0.00     0.00  -0.00  -0.00
                     64                     65                     66
                        a                      a                      a 
 Frequencies --  1148.9252              1181.8539              1202.5058
 Red. masses --     5.9804                 9.8671                 8.4037
 Frc consts  --     0.0000                 0.0000                 0.0000
[...]
  15  15     0.00  -0.00  -0.00     0.00   0.00   0.00     0.00  -0.00   0.00
  16  16    -0.00   0.00   0.00    -0.00   0.00  -0.00    -0.00  -0.00  -0.00
  17   8    -0.00   0.00  -0.00    -0.00   0.00  -0.00    -0.00   0.00   0.00
  18   6     0.00   0.00  -0.00     0.00   0.00  -0.00    -0.00  -0.00  -0.00
  19   8    -0.00  -0.00  -0.00    -0.00  -0.00   0.00     0.00  -0.01   0.00
  20   6    -0.00  -0.00   0.00     0.00   0.00   0.00     0.14  -0.11   0.16
  21   1    -0.02  -0.01   0.05    -0.00  -0.00   0.00    -0.00  -0.00   0.00
  22   1    -0.01   0.00  -0.00    -0.00  -0.00  -0.00    -0.00   0.00  -0.00
  23   1     0.01  -0.01   0.00    -0.00   0.00  -0.00     0.00  -0.00   0.00
  24   1     0.00  -0.02   0.04    -0.00   0.00  -0.00     0.00  -0.00   0.00
  25   1     0.28   0.14  -0.91     0.00   0.00  -0.01    -0.00  -0.00   0.00
  26   1    -0.00  -0.00   0.00    -0.00  -0.00   0.00     0.00   0.00   0.00
  27   1    -0.00  -0.00  -0.00    -0.00  -0.00  -0.00    -0.02  -0.05  -0.05
  28   1     0.01  -0.00  -0.00    -0.79   0.28   0.48     0.00  -0.00  -0.00
  29   1    -0.00   0.00  -0.00     0.04  -0.01  -0.01     0.00  -0.00   0.00
  30   1     0.00   0.00   0.00    -0.01  -0.00  -0.01     0.00   0.00   0.00
  31   1     0.00  -0.00  -0.00     0.05  -0.02  -0.04    -0.00   0.00   0.00
  32   1     0.00  -0.00   0.00     0.01  -0.01   0.01     0.00  -0.00   0.00
  33   1     0.00   0.00   0.00    -0.00  -0.00  -0.00     0.01   0.01   0.00
  34   1    -0.00  -0.00   0.00    -0.00  -0.00   0.00    -0.01  -0.00   0.01
  35   1     0.00  -0.00  -0.00     0.00   0.00   0.00     0.00  -0.00  -0.00
  36   1     0.00  -0.00  -0.00     0.00  -0.00  -0.00    -0.00   0.00   0.09
  37   1     0.00   0.00   0.00    -0.00  -0.00   0.00     0.09   0.01   0.02
  38   1    -0.00   0.00  -0.00    -0.00   0.00  -0.00    -0.57   0.40  -0.66
                     94                     95                     96
                        a                      a                      a 
 Frequencies --  2977.6439              2985.1632              2989.4943
 Red. masses --     1.7499                 1.5523                 1.7203
 Frc consts  --     0.0000                 0.0000                 0.0000
 IR Inten    --     0.2683                 9.3301                 9.6595
 Raman Activ --     0.0000                 0.0000                 0.0000
 Depolar     --     0.0000                 0.0000                 0.0000
 Atom AN      X      Y      Z        X      Y      Z        X      Y      Z
   1   6    -0.00  -0.00  -0.00     0.00   0.00  -0.00    -0.00   0.00  -0.00
   2   6    -0.00   0.00  -0.00    -0.00   0.00   0.00     0.00  -0.00   0.00
   3   8    -0.00   0.00  -0.00    -0.00   0.00  -0.00     0.00  -0.00   0.00
   4   6     0.01   0.00   0.00     0.00   0.00   0.00    -0.00  -0.00   0.00
   5   8    -0.00  -0.00   0.00    -0.00   0.00  -0.00     0.00   0.00  -0.00
   6   6     0.07   0.17   0.18     0.00   0.00   0.01     0.00   0.00   0.01
   7   6    -0.00   0.00   0.01    -0.00   0.00  -0.00    -0.00   0.00  -0.00
   8   1     0.00   0.01  -0.01    -0.00  -0.00   0.00    -0.00  -0.00   0.00
   9   6     0.00  -0.00  -0.00    -0.00   0.00   0.00    -0.00  -0.00  -0.00
  10   8    -0.00   0.00   0.00     0.00  -0.00  -0.00    -0.00   0.00   0.00
  11   8    -0.00  -0.00  -0.00     0.00  -0.00   0.00     0.00   0.00  -0.00
  12   6    -0.00   0.00  -0.00     0.00  -0.00   0.00    -0.00   0.00  -0.00
  13   6     0.00   0.00   0.00    -0.00   0.00   0.00     0.00  -0.00  -0.00
  14  16    -0.00  -0.00   0.00     0.00   0.00  -0.00     0.00  -0.00   0.00
  15  15     0.00   0.00  -0.00    -0.00   0.00   0.00    -0.00  -0.00   0.00
  16  16     0.00  -0.00   0.00    -0.00   0.00  -0.00    -0.00  -0.00  -0.00
  17   8    -0.00   0.00  -0.00     0.01  -0.01   0.01     0.00  -0.00  -0.00
  18   6     0.00   0.00  -0.00    -0.10  -0.07   0.19     0.01   0.01  -0.00
  19   8    -0.00   0.00  -0.00     0.00   0.00  -0.00     0.00   0.01   0.00
  20   6    -0.01   0.01  -0.02     0.00  -0.00   0.01    -0.05   0.04   0.25
  21   1    -0.00  -0.00   0.00    -0.00  -0.00   0.00    -0.00   0.00   0.00
  22   1     0.00  -0.00  -0.00    -0.00   0.00  -0.00     0.00   0.00  -0.00
  23   1    -0.00   0.00  -0.00     0.00  -0.00  -0.00     0.00  -0.00   0.00
  24   1     0.00  -0.01   0.00     0.00  -0.00   0.00    -0.00   0.01  -0.00
  25   1    -0.00  -0.00   0.01     0.00   0.00  -0.00    -0.00  -0.00   0.00
  26   1     0.01   0.03   0.01     0.00   0.00  -0.01     0.00   0.01  -0.01
  27   1    -0.27  -0.63  -0.67    -0.00  -0.01  -0.01    -0.00  -0.01  -0.01
  28   1     0.00  -0.00  -0.00    -0.00   0.00   0.00     0.00   0.00  -0.00
  29   1     0.01  -0.01   0.01    -0.00   0.00  -0.00     0.00  -0.00   0.00
  30   1    -0.00  -0.00  -0.00    -0.00  -0.00  -0.00     0.00   0.00   0.00
  31   1     0.00  -0.00  -0.00     0.00  -0.00  -0.00    -0.00   0.00   0.00
  32   1    -0.00   0.00  -0.00     0.00  -0.00   0.00     0.00  -0.00   0.00
  33   1     0.00   0.00   0.00    -0.16  -0.13  -0.04    -0.02  -0.02  -0.01
  34   1    -0.01  -0.01   0.01     0.53   0.33  -0.71    -0.01  -0.01   0.02
  35   1     0.00  -0.00  -0.00    -0.06   0.07   0.07     0.00   0.00   0.00
  36   1    -0.01   0.00   0.01     0.01  -0.00  -0.02     0.33  -0.17  -0.88
  37   1    -0.01  -0.00  -0.00    -0.00  -0.00   0.00    -0.09  -0.03   0.04
  38   1     0.05  -0.03   0.05    -0.01   0.01  -0.01    -0.06   0.03  -0.02
                     97                     98                     99
                        a                      a                      a 
 Frequencies --  2993.7858              2995.5806              2999.0874
 Red. masses --     1.7426                 1.7508                 1.7779
 Frc consts  --     0.0000                 0.0000                 0.0000
 IR Inten    --     6.5695                 9.1690                 5.8807
 Raman Activ --     0.0000                 0.0000                 0.0000
 Depolar     --     0.0000                 0.0000                 0.0000
 Atom AN      X      Y      Z        X      Y      Z        X      Y      Z
   1   6     0.00  -0.00   0.00    -0.01   0.02  -0.02    -0.00   0.00  -0.00
   2   6    -0.01   0.02  -0.01     0.07  -0.23   0.09     0.00  -0.00   0.00
   3   8    -0.00   0.00  -0.00     0.01  -0.00   0.00     0.00  -0.00   0.00
   4   6    -0.00  -0.00  -0.00    -0.00  -0.00  -0.00     0.00   0.00  -0.00
   5   8     0.00  -0.00   0.00    -0.00   0.00  -0.00    -0.00  -0.00   0.00
   6   6    -0.00  -0.00  -0.00    -0.00  -0.00   0.01     0.00   0.00  -0.00
   7   6     0.00   0.00  -0.00    -0.00  -0.00   0.00     0.00   0.00  -0.00
   8   1    -0.00  -0.00   0.00     0.00   0.00  -0.00    -0.00  -0.00   0.00
   9   6     0.00   0.00  -0.00    -0.00   0.00   0.00     0.00  -0.00  -0.00
  10   8     0.00  -0.00   0.00     0.00  -0.00  -0.00    -0.00   0.00   0.00
  11   8    -0.01  -0.00  -0.01    -0.00  -0.00  -0.00    -0.00   0.00   0.00
  12   6    -0.16   0.13  -0.15    -0.01   0.01  -0.01     0.00  -0.00   0.00
  13   6     0.02  -0.01   0.02     0.00  -0.00   0.00    -0.00   0.00  -0.00
  14  16     0.00  -0.00   0.00    -0.00  -0.00   0.00    -0.00  -0.00  -0.00
  15  15     0.00   0.00  -0.00    -0.00   0.00  -0.00    -0.00  -0.00  -0.00
  16  16    -0.00   0.00  -0.00     0.00   0.00   0.00    -0.00  -0.00   0.00
  17   8    -0.00   0.00  -0.00     0.00  -0.00   0.00    -0.01   0.00  -0.00
  18   6    -0.00  -0.00  -0.00     0.00   0.00   0.00    -0.22  -0.15  -0.02
  19   8    -0.00  -0.00   0.00     0.00  -0.00  -0.00     0.00   0.00   0.00
  20   6    -0.00  -0.00  -0.00     0.00  -0.00  -0.00    -0.01   0.00   0.01
  21   1     0.00   0.00  -0.00    -0.01   0.00   0.02    -0.00   0.00  -0.00
  22   1     0.00   0.00  -0.00     0.02   0.00  -0.00     0.00   0.00  -0.00
  23   1    -0.00   0.01  -0.00     0.04  -0.10   0.04     0.00  -0.00   0.00
  24   1     0.02  -0.07   0.03    -0.30   0.84  -0.33    -0.00   0.01  -0.00
  25   1    -0.00   0.00  -0.00     0.01  -0.03  -0.01     0.00  -0.00   0.00
  26   1     0.00   0.00  -0.00     0.00   0.01  -0.02    -0.00  -0.01   0.01
  27   1     0.00   0.01   0.01    -0.00  -0.00  -0.00     0.00   0.00   0.00
  28   1    -0.01   0.02  -0.02     0.00   0.00  -0.00    -0.00   0.00   0.00
  29   1     0.59  -0.49   0.57     0.05  -0.04   0.05    -0.01   0.01  -0.01
  30   1    -0.00  -0.01  -0.01     0.00  -0.00  -0.00    -0.00   0.00   0.00
  31   1    -0.02   0.01   0.02    -0.00   0.00   0.00     0.00  -0.00  -0.00
  32   1    -0.08   0.06  -0.07    -0.01   0.01  -0.01     0.00  -0.00   0.00
  33   1     0.01   0.01   0.00    -0.01  -0.01  -0.00     0.65   0.59   0.32
  34   1     0.00   0.00  -0.00     0.00   0.00  -0.00     0.09   0.05  -0.16
  35   1    -0.00  -0.00  -0.00    -0.00   0.00   0.00     0.03  -0.13  -0.07
  36   1    -0.00   0.00   0.01    -0.00   0.00   0.01     0.01  -0.01  -0.03
  37   1     0.00   0.00  -0.00     0.00   0.00  -0.00     0.00   0.00   0.00
  38   1     0.00  -0.00   0.00    -0.00   0.00  -0.00     0.00  -0.00   0.01
                    100                    101                    102
                        a                      a                      a 
 Frequencies --  3003.1455              3025.4527              3030.7750
 Red. masses --     1.7455                 1.8081                 1.8450
 Frc consts  --     0.0000                 0.0000                 0.0000
 IR Inten    --     3.9221                 1.4250                 0.7015
 Raman Activ --     0.0000                 0.0000                 0.0000
 Depolar     --     0.0000                 0.0000                 0.0000
 Atom AN      X      Y      Z        X      Y      Z        X      Y      Z
   1   6     0.00  -0.00   0.00     0.00   0.00  -0.00     0.00  -0.00   0.00
   2   6    -0.00   0.00  -0.00     0.00  -0.00   0.00    -0.00   0.00  -0.00
   3   8    -0.00   0.00  -0.00     0.00   0.00  -0.00     0.00   0.00   0.00
   4   6    -0.00  -0.00   0.01    -0.00  -0.00   0.00    -0.00  -0.00   0.00
   5   8     0.00   0.00  -0.00     0.00   0.00  -0.00     0.00  -0.00  -0.00
   6   6    -0.05  -0.10   0.23    -0.00  -0.00   0.00    -0.00  -0.00   0.00
   7   6    -0.00  -0.01   0.01    -0.00  -0.00   0.00     0.00   0.00   0.00
   8   1     0.01   0.02  -0.04     0.00   0.00  -0.00     0.00  -0.00  -0.00
   9   6     0.00  -0.00   0.00     0.00  -0.00  -0.00     0.00  -0.00  -0.00
  10   8    -0.00   0.00   0.00     0.00   0.00   0.00    -0.00   0.00   0.00
  11   8    -0.00   0.00  -0.00    -0.00   0.00  -0.00    -0.00   0.00  -0.00
  12   6     0.00  -0.00   0.00    -0.00   0.00   0.00    -0.00  -0.00   0.00
  13   6    -0.00   0.00   0.00     0.00  -0.00   0.00    -0.00   0.00  -0.00
  14  16     0.00  -0.00   0.00    -0.00  -0.00   0.00    -0.00   0.00   0.00
  15  15    -0.00   0.00  -0.00     0.00  -0.00  -0.00    -0.00  -0.00  -0.00
  16  16    -0.00   0.00   0.00    -0.00  -0.00  -0.00    -0.00   0.00  -0.00
  17   8     0.00  -0.00   0.00    -0.00  -0.00  -0.00     0.00  -0.00   0.00
  18   6    -0.00  -0.00  -0.00    -0.00  -0.00  -0.00     0.08  -0.21  -0.16
  19   8     0.00  -0.00   0.00     0.00   0.01   0.00     0.00   0.00   0.00
  20   6    -0.00  -0.00  -0.00     0.26   0.07  -0.04    -0.00   0.00   0.00
  21   1    -0.00  -0.00   0.00    -0.00  -0.00   0.00     0.00   0.00  -0.00
  22   1    -0.00  -0.00   0.00    -0.00   0.00  -0.00    -0.00  -0.00   0.00
  23   1    -0.00   0.01  -0.00     0.00  -0.00   0.00    -0.00   0.00  -0.00
  24   1     0.01  -0.02   0.01    -0.00   0.00  -0.00     0.00  -0.00   0.00
  25   1     0.00   0.00  -0.00     0.00   0.00  -0.00     0.00   0.00   0.00
  26   1     0.17   0.36  -0.88     0.00   0.00  -0.01     0.00   0.00  -0.00
  27   1    -0.00   0.00   0.04     0.00   0.00   0.00     0.00   0.00   0.00
  28   1    -0.00   0.00   0.00     0.00  -0.00  -0.00     0.00  -0.00  -0.00
  29   1    -0.00   0.00  -0.00     0.00  -0.00   0.00    -0.00   0.00  -0.00
  30   1    -0.00  -0.00  -0.00    -0.00  -0.00  -0.00     0.00   0.00   0.00
  31   1     0.00  -0.00  -0.00    -0.00   0.00   0.00     0.00  -0.00  -0.00
  32   1     0.00  -0.00   0.00    -0.00   0.00  -0.00     0.01  -0.00   0.01
  33   1     0.01   0.01   0.01     0.01   0.01   0.00     0.12   0.07   0.03
  34   1    -0.00  -0.00   0.00    -0.00  -0.00   0.00    -0.03  -0.05   0.03
  35   1     0.00  -0.00  -0.00    -0.00   0.00   0.00    -0.38   0.71   0.50
  36   1    -0.01   0.00   0.01     0.00   0.02   0.08     0.00  -0.00  -0.00
  37   1     0.01   0.00  -0.00    -0.90  -0.30   0.10     0.00   0.00  -0.00
  38   1    -0.00   0.00  -0.00    -0.01   0.03  -0.05     0.00  -0.00   0.00
                    103                    104                    105
                        a                      a                      a 
 Frequencies --  3040.4054              3045.3448              3046.1871
 Red. masses --     1.8927                 1.7947                 1.5738
 Frc consts  --     0.0000                 0.0000                 0.0000
 IR Inten    --    35.7817                40.1124                16.9544
 Raman Activ --     0.0000                 0.0000                 0.0000
 Depolar     --     0.0000                 0.0000                 0.0000
 Atom AN      X      Y      Z        X      Y      Z        X      Y      Z
   1   6     0.01  -0.01  -0.00     0.05  -0.20   0.14    -0.04   0.09  -0.04
   2   6     0.00  -0.00  -0.00     0.01  -0.03   0.02    -0.00   0.01  -0.01
   3   8     0.00  -0.00  -0.00     0.00  -0.00   0.00    -0.00   0.00  -0.00
   4   6     0.00  -0.00   0.00    -0.00  -0.00  -0.00     0.00   0.00   0.00
   5   8     0.00   0.00  -0.00     0.00   0.00   0.00    -0.00  -0.00  -0.00
   6   6    -0.00  -0.00   0.00     0.00   0.00  -0.00    -0.00  -0.00  -0.00
   7   6    -0.00  -0.00   0.00     0.00  -0.00   0.00    -0.00  -0.00   0.00
   8   1     0.00   0.00  -0.00     0.00   0.00  -0.00     0.00   0.00  -0.00
   9   6    -0.00  -0.00  -0.00    -0.00  -0.00   0.00    -0.00  -0.00   0.00
  10   8    -0.00   0.00   0.00     0.00  -0.00   0.00     0.00   0.00  -0.00
  11   8     0.00   0.00   0.00     0.00   0.00  -0.00     0.00   0.00  -0.00
  12   6     0.03  -0.02   0.02    -0.01   0.00   0.01    -0.01  -0.00   0.01
  13   6     0.22  -0.15   0.08    -0.06   0.01   0.07    -0.11   0.02   0.16
  14  16    -0.00   0.00  -0.00    -0.00  -0.00   0.00    -0.00   0.00   0.00
  15  15    -0.00   0.00  -0.00     0.00   0.00  -0.00     0.00   0.00  -0.00
  16  16     0.00  -0.00   0.00     0.00  -0.00   0.00     0.00  -0.00   0.00
  17   8     0.00  -0.00   0.00    -0.00   0.00   0.00    -0.00  -0.00   0.00
  18   6    -0.00  -0.00  -0.00    -0.00   0.00   0.00     0.00  -0.00  -0.00
  19   8    -0.00  -0.00  -0.00    -0.00  -0.00  -0.00    -0.00  -0.00  -0.00
  20   6    -0.00  -0.00   0.00     0.00   0.00   0.00     0.00   0.00   0.00
  21   1    -0.01  -0.00   0.02     0.09   0.01  -0.20    -0.01   0.01   0.02
  22   1     0.00  -0.00  -0.00     0.01  -0.03   0.02     0.01   0.01  -0.01
  23   1    -0.01   0.03  -0.01    -0.29   0.73  -0.29     0.14  -0.35   0.14
  24   1    -0.00   0.00  -0.00    -0.03   0.10  -0.04     0.02  -0.04   0.02
  25   1    -0.00  -0.00   0.00     0.01   0.00  -0.02    -0.00   0.00   0.01
  26   1     0.00   0.00  -0.00    -0.00  -0.00   0.00     0.00   0.00  -0.00
  27   1     0.00   0.00   0.00     0.00   0.00   0.00     0.00   0.00   0.00
  28   1    -0.03   0.01   0.02     0.02  -0.01  -0.01     0.04  -0.01  -0.02
  29   1    -0.08   0.06  -0.07    -0.01   0.00  -0.00    -0.02   0.01  -0.01
  30   1     0.03  -0.03   0.00    -0.00   0.01   0.02    -0.00   0.02   0.04
  31   1    -0.25   0.10   0.22     0.30  -0.12  -0.21     0.63  -0.26  -0.45
  32   1    -0.56   0.45  -0.51    -0.09   0.07  -0.06    -0.24   0.18  -0.17
  33   1     0.00   0.00   0.00     0.00   0.00   0.00    -0.00  -0.00  -0.00
  34   1     0.00   0.00  -0.00     0.00   0.00  -0.00    -0.00  -0.00   0.00
  35   1    -0.00   0.01   0.00     0.00  -0.00  -0.00    -0.00   0.00   0.00
  36   1     0.00  -0.00  -0.00     0.00  -0.00  -0.00     0.00  -0.00  -0.00
  37   1     0.00   0.00  -0.00    -0.00  -0.00   0.00    -0.00  -0.00   0.00
  38   1    -0.00   0.00  -0.00    -0.00   0.00  -0.00    -0.00   0.00  -0.00
                    106                    107                    108
                        a                      a                      a 
 Frequencies --  3050.6528              3063.7479              3065.8530
 Red. masses --     1.5757                 1.7584                 1.7394
 Frc consts  --     0.0000                 0.0000                 0.0000
 IR Inten    --    21.2229                20.8861                12.0189
 Raman Activ --     0.0000                 0.0000                 0.0000
 Depolar     --     0.0000                 0.0000                 0.0000
 Atom AN      X      Y      Z        X      Y      Z        X      Y      Z
   1   6     0.08  -0.02  -0.21    -0.26  -0.00   0.01    -0.00   0.00  -0.00
   2   6     0.00  -0.00  -0.02    -0.01   0.00   0.00     0.00  -0.00   0.00
   3   8     0.00   0.00  -0.00     0.00  -0.00  -0.00    -0.00   0.00  -0.00
   4   6     0.00  -0.00  -0.00     0.00  -0.00   0.00     0.00  -0.00   0.00
   5   8    -0.00  -0.00   0.00     0.00   0.00  -0.00     0.00   0.00  -0.00
   6   6     0.00   0.00  -0.00    -0.00  -0.00   0.00     0.00   0.00  -0.00
   7   6    -0.00  -0.00   0.00     0.00   0.00  -0.00    -0.00  -0.00   0.00
   8   1     0.00   0.00  -0.00    -0.00  -0.00   0.00     0.00   0.00  -0.00
   9   6    -0.00   0.00  -0.00     0.00  -0.00   0.00    -0.00   0.00  -0.00
  10   8     0.00  -0.00   0.00    -0.00   0.00   0.00     0.00  -0.00  -0.00
  11   8    -0.00  -0.00  -0.00    -0.00   0.00   0.00     0.00  -0.00  -0.00
  12   6    -0.00   0.00   0.00     0.00  -0.00   0.00     0.00   0.00   0.01
  13   6    -0.02   0.01   0.01     0.00  -0.00  -0.00     0.08   0.15   0.19
  14  16    -0.00   0.00  -0.00     0.00   0.00   0.00    -0.00   0.00  -0.00
  15  15     0.00  -0.00   0.00     0.00   0.00  -0.00    -0.00  -0.00   0.00
  16  16    -0.00   0.00  -0.00    -0.00  -0.00   0.00     0.00  -0.00  -0.00
  17   8    -0.00   0.00  -0.00    -0.00  -0.00   0.00     0.00  -0.00  -0.00
  18   6     0.00  -0.00  -0.00     0.00  -0.00  -0.00     0.00  -0.00  -0.00
  19   8    -0.00  -0.00  -0.00    -0.00  -0.00   0.00     0.00   0.00  -0.00
  20   6    -0.00  -0.00  -0.00     0.00   0.00  -0.00    -0.00  -0.00   0.00
  21   1    -0.31  -0.13   0.87    -0.01   0.01  -0.06    -0.00   0.00   0.00
  22   1     0.08   0.00  -0.03     0.96   0.00  -0.00     0.00   0.00   0.00
  23   1    -0.06   0.20  -0.11    -0.03  -0.01   0.01     0.00  -0.00   0.00
  24   1    -0.00   0.00  -0.00     0.01  -0.02   0.01    -0.00   0.00  -0.00
  25   1    -0.01  -0.01   0.05     0.00   0.00  -0.01     0.00  -0.00   0.00
  26   1    -0.00  -0.00   0.00     0.00   0.00  -0.00    -0.00  -0.00   0.00
  27   1     0.00   0.00   0.00     0.00   0.00   0.00     0.00   0.00   0.00
  28   1     0.01  -0.00  -0.00    -0.00   0.00   0.00     0.01  -0.00  -0.01
  29   1     0.00  -0.00   0.00    -0.00   0.00  -0.00    -0.01   0.01  -0.01
  30   1    -0.00   0.00   0.00     0.00  -0.00  -0.00    -0.33  -0.57  -0.71
  31   1     0.06  -0.03  -0.05    -0.01   0.01   0.01     0.04   0.01   0.01
  32   1     0.00  -0.00   0.00     0.00  -0.00   0.00     0.01   0.02   0.03
  33   1     0.00   0.00   0.00    -0.00  -0.00  -0.00     0.00   0.00   0.00
  34   1    -0.00  -0.00   0.00    -0.00  -0.00   0.00    -0.00  -0.00   0.00
  35   1    -0.00   0.00   0.00    -0.00   0.00   0.00    -0.00   0.00   0.00
  36   1    -0.00  -0.00  -0.00    -0.00   0.00   0.00     0.00  -0.00  -0.00
  37   1     0.00   0.00  -0.00    -0.00  -0.00   0.00     0.00   0.00  -0.00
  38   1     0.00  -0.00   0.00    -0.00   0.00  -0.00    -0.00   0.00  -0.00
