      -----------------------------------------------------------      
     |                   =====================                   |     
     |                           x T B                           |     
     |                   =====================                   |     
     |                         S. Grimme                         |     
     |          Mulliken Center for Theoretical Chemistry        |     
     |                    University of Bonn                     |     
      -----------------------------------------------------------      

   * xtb version 6.7.1 (edcfbbe) compiled by 'albert@albert-system' on 2024-07-22

   xtb is free software: you can redistribute it and/or modify it under
   the terms of the GNU Lesser General Public License as published by
   the Free Software Foundation, either version 3 of the License, or
   (at your option) any later version.
   
   xtb is distributed in the hope that it will be useful,
   but WITHOUT ANY WARRANTY; without even the implied warranty of
   MERCHANTABILITY or FITNESS FOR A PARTICULAR PURPOSE.  See the
   GNU Lesser General Public License for more details.
   
   Cite this work as:
   * C. Bannwarth, E. Caldeweyher, S. Ehlert, A. Hansen, P. Pracht,
     J. Seibert, S. Spicher, S. Grimme, WIREs Comput. Mol. Sci., 2020, 11,
     e01493. DOI: 10.1002/wcms.1493
   
   for GFN2-xTB:
   * C. Bannwarth, S. Ehlert and S. Grimme., J. Chem. Theory Comput., 2019,
     15, 1652-1671. DOI: 10.1021/acs.jctc.8b01176
   for GFN1-xTB:
   * S. Grimme, C. Bannwarth, P. Shushkov, J. Chem. Theory Comput., 2017,
     13, 1989-2009. DOI: 10.1021/acs.jctc.7b00118
   for GFN0-xTB:
   * P. Pracht, E. Caldeweyher, S. Ehlert, S. Grimme, ChemRxiv, 2019, preprint.
     DOI: 10.26434/chemrxiv.8326202.v1
   for GFN-FF:
   * S. Spicher and S. Grimme, Angew. Chem. Int. Ed., 2020, 59, 15665-15673.
     DOI: 10.1002/anie.202004239
   
   for ALPB and GBSA implicit solvation:
   * S. Ehlert, M. Stahn, S. Spicher, S. Grimme, J. Chem. Theory Comput.,
     2021, 17, 4250-4261. DOI: 10.1021/acs.jctc.1c00471
   
   for ddCOSMO and CPCM-X implicit solvation:
   * M. Stahn, S. Ehlert, S. Grimme, J. Phys. Chem. A,
     2023, XX, XXXX-XXXX. DOI: 10.1021/acs.jpca.3c04382
   
   for DFT-D4:
   * E. Caldeweyher, C. Bannwarth and S. Grimme, J. Chem. Phys., 2017,
     147, 034112. DOI: 10.1063/1.4993215
   * E. Caldeweyher, S. Ehlert, A. Hansen, H. Neugebauer, S. Spicher,
     C. Bannwarth and S. Grimme, J. Chem. Phys., 2019, 150, 154122.
     DOI: 10.1063/1.5090222
   * E. Caldeweyher, J.-M. Mewes, S. Ehlert and S. Grimme, Phys. Chem. Chem. Phys.
     2020, 22, 8499-8512. DOI: 10.1039/D0CP00502A
   
   for sTDA-xTB:
   * S. Grimme and C. Bannwarth, J. Chem. Phys., 2016, 145, 054103.
     DOI: 10.1063/1.4959605
   
   in the mass-spec context:
   * V. Asgeirsson, C. Bauer and S. Grimme, Chem. Sci., 2017, 8, 4879.
     DOI: 10.1039/c7sc00601b
   * J. Koopman and S. Grimme, ACS Omega 2019, 4, 12, 15120-15133.
     DOI: 10.1021/acsomega.9b02011
   
   for metadynamics refer to:
   * S. Grimme, J. Chem. Theory Comput., 2019, 155, 2847-2862
     DOI: 10.1021/acs.jctc.9b00143
   
   for SPH calculations refer to:
   * S. Spicher and S. Grimme, J. Chem. Theory Comput., 2021, 17, 1701-1714
     DOI: 10.1021/acs.jctc.0c01306
   
   for ONIOM refer to:
   * C. Plett, A. Katbashev, S. Ehlert, S. Grimme, M. Bursch,
     Phys. Chem. Chem. Phys., 2023, 25, 17860-17868. DOI: 10.1039/D3CP02178E
   
   for DIPRO refer to:
   * J. Kohn, N. Gildemeister, S. Grimme, D. Fazzi, A. Hansen,
     J. Chem. Phys., 2023, just accepted.
   
   for PTB refer to:
   * S. Grimme, M. Mueller, A. Hansen, J. Chem. Phys., 2023, 158, 124111.
     DOI: 10.1063/5.0137838
   
   with help from (in alphabetical order)
   P. Atkinson, C. Bannwarth, F. Bohle, G. Brandenburg, E. Caldeweyher
   M. Checinski, S. Dohm, S. Ehlert, S. Ehrlich, I. Gerasimov, C. Hölzer
   A. Katbashev, J. Kohn, J. Koopman, C. Lavigne, S. Lehtola, F. März, M. Müller,
   F. Musil, H. Neugebauer, J. Pisarek, C. Plett, P. Pracht, F. Pultar,
   J. Seibert, P. Shushkov, S. Spicher, M. Stahn, M. Steiner, T. Strunk,
   J. Stückrath, T. Rose, and J. Unsleber
   
 * started run on 2025/04/09 at 14:03:28.689     
   ID    Z sym.   atoms
    1    6 C      1, 2, 7, 8, 10, 15, 16, 18, 19
    2    8 O      3, 6, 14, 17
    3   15 P      4, 12
    4   16 S      5, 9, 11, 13
    5    1 H      20-41

           -------------------------------------------------
          |                Calculation Setup                |
           -------------------------------------------------

          program call               : /srv/scratch/z5358697/.xtb/bin/xtb xtb_rrho.coord --gfn2 --bhess vtight --chrg 0 --enso --norestart -I rrho-xcontrol-inp --parallel 1 --alpb water
          hostname                   : k163
          coordinate file            : xtb_rrho.coord
          omp threads                :                     1


           -------------------------------------------------
          |                 G F N 2 - x T B                 |
           -------------------------------------------------

        Reference                      10.1021/acs.jctc.8b01176
      * Hamiltonian:
        H0-scaling (s, p, d)           1.850000    2.230000    2.230000
        zeta-weighting                 0.500000
      * Dispersion:
        s8                             2.700000
        a1                             0.520000
        a2                             5.000000
        s9                             5.000000
      * Repulsion:
        kExp                           1.500000    1.000000
        rExp                           1.000000
      * Coulomb:
        alpha                          2.000000
        third order                    shell-resolved
        anisotropic                    true
        a3                             3.000000
        a5                             4.000000
        cn-shift                       1.200000
        cn-exp                         4.000000
        max-rad                        5.000000

      * Solvation model:               ALPB
        Solvent                        water
        Parameter file                 internal GFN2-xTB/ALPB
        Dielectric constant                8.0200E+01
        Reference state                gsolv [1 M gas/solution]
        Free energy shift                  1.0808E-03 Eh       6.7819E-01 kcal/mol
        Temperature                        2.9815E+02 K
        Density                            1.0000E+00 kg/L
        Solvent mass                       1.8000E+01 g/mol
        Interaction kernel             P16
        Born radius scaling (c1)           1.4744E+00
        Born radii integrator          GBOBC
        Born offset                        0.0000E+00 a0       0.0000E+00 AA
        H-bond correction              true
        Ion screening                  false
        Surface tension                    1.0000E-05 Eh       1.5569E+01 dyn/cm
        Grid points                               974 per atom

          ...................................................
          :                      SETUP                      :
          :.................................................:
          :  # basis functions                 134          :
          :  # atomic orbitals                 128          :
          :  # shells                           66          :
          :  # electrons                       116          :
          :  max. iterations                   250          :
          :  Hamiltonian                  GFN2-xTB          :
          :  restarted?                      false          :
          :  GBSA solvation                   true          :
          :  PC potential                    false          :
          :  electronic temp.          300.0000000     K    :
          :  accuracy                    1.0000000          :
          :  -> integral cutoff          0.2500000E+02      :
          :  -> integral neglect         0.1000000E-07      :
          :  -> SCF convergence          0.1000000E-05 Eh   :
          :  -> wf. convergence          0.1000000E-03 e    :
          :  Broyden damping             0.4000000          :
          :  net charge                          0          :
          :  unpaired electrons                  0          :
          ...................................................

 iter      E             dE          RMSdq      gap      omega  full diag
   1    -65.4074354 -0.654074E+02  0.653E+00    4.39       0.0  T
   2    -65.5300235 -0.122588E+00  0.367E+00    3.78       1.0  T
   3    -65.5483523 -0.183288E-01  0.110E+00    3.34       1.0  T
   4    -65.5523572 -0.400485E-02  0.505E-01    3.30       1.0  T
   5    -65.5531741 -0.816972E-03  0.268E-01    3.36       1.0  T
   6    -65.5533708 -0.196667E-03  0.115E-01    3.36       1.0  T
   7    -65.5534147 -0.439191E-04  0.412E-02    3.38       1.0  T
   8    -65.5534182 -0.348862E-05  0.165E-02    3.38       1.0  T
   9    -65.5534189 -0.653074E-06  0.509E-03    3.38       3.1  T
  10    -65.5534189  0.159240E-08  0.265E-03    3.38       5.9  T
  11    -65.5534189 -0.461307E-07  0.640E-04    3.38      24.4  T
  12    -65.5534189 -0.708141E-09  0.297E-04    3.38      52.6  T

   *** convergence criteria satisfied after 12 iterations ***

         #    Occupation            Energy/Eh            Energy/eV
      -------------------------------------------------------------
         1        2.0000           -0.7601085             -20.6836
       ...           ...                  ...                  ...
        52        2.0000           -0.4459863             -12.1359
        53        2.0000           -0.4187296             -11.3942
        54        2.0000           -0.4103995             -11.1675
        55        2.0000           -0.3984356             -10.8420
        56        2.0000           -0.3969641             -10.8019
        57        2.0000           -0.3953976             -10.7593
        58        2.0000           -0.3923074             -10.6752 (HOMO)
        59                         -0.2680519              -7.2941 (LUMO)
        60                         -0.2598816              -7.0717
        61                         -0.2315117              -6.2998
        62                         -0.1924075              -5.2357
        63                         -0.1803634              -4.9079
       ...                                ...                  ...
       128                          1.2211937              33.2304
      -------------------------------------------------------------
                  HL-Gap            0.1242555 Eh            3.3812 eV
             Fermi-level           -0.3301797 Eh           -8.9846 eV

 SCC (total)                   0 d,  0 h,  0 min,  0.071 sec
 SCC setup                      ...        0 min,  0.002 sec (  2.984%)
 Dispersion                     ...        0 min,  0.000 sec (  0.370%)
 classical contributions        ...        0 min,  0.000 sec (  0.074%)
 integral evaluation            ...        0 min,  0.020 sec ( 27.904%)
 iterations                     ...        0 min,  0.030 sec ( 42.627%)
 molecular gradient             ...        0 min,  0.018 sec ( 25.741%)
 printout                       ...        0 min,  0.000 sec (  0.279%)

         :::::::::::::::::::::::::::::::::::::::::::::::::::::
         ::                     SUMMARY                     ::
         :::::::::::::::::::::::::::::::::::::::::::::::::::::
         :: total energy             -65.015864031572 Eh    ::
         :: total w/o Gsasa/hb       -65.017439202314 Eh    ::
         :: gradient norm              0.054180265145 Eh/a0 ::
         :: HOMO-LUMO gap              3.381165231156 eV    ::
         ::.................................................::
         :: SCC energy               -65.552557155439 Eh    ::
         :: -> isotropic ES            0.124734656375 Eh    ::
         :: -> anisotropic ES         -0.013530727599 Eh    ::
         :: -> anisotropic XC          0.031399947758 Eh    ::
         :: -> dispersion             -0.050687662573 Eh    ::
         :: -> Gsolv                  -0.020879448650 Eh    ::
         ::    -> Gelec               -0.022454619392 Eh    ::
         ::    -> Gsasa                0.004763031381 Eh    ::
         ::    -> Ghb                 -0.004268620337 Eh    ::
         ::    -> Gshift               0.001080759698 Eh    ::
         :: repulsion energy           0.536693123866 Eh    ::
         :: add. restraining           0.000000000000 Eh    ::
         :: total charge              -0.000000000000 e     ::
         :::::::::::::::::::::::::::::::::::::::::::::::::::::

metadynamics with 1 initial structures loaded
           -------------------------------------------------
          |           Optimal kpush determination           |
           -------------------------------------------------
      ----------------------------------------------------------- 
     |                   =====================                   |
     |                        A N C O P T                        |
     |                   =====================                   |
     |               Approximate Normal Coordinate               |
     |                Rational Function Optimizer                |
      ----------------------------------------------------------- 
target rmsd / Å         0.100000
unbiased initial rmsd   0.336184
 
iter. min.        max.        rmsd       kpush
      ----------------------------------------------------------- 
     |                   =====================                   |
     |                        A N C O P T                        |
     |                   =====================                   |
     |               Approximate Normal Coordinate               |
     |                Rational Function Optimizer                |
      ----------------------------------------------------------- 
 1    0.000000    1.863636    0.014334   -0.931818
      ----------------------------------------------------------- 
     |                   =====================                   |
     |                        A N C O P T                        |
     |                   =====================                   |
     |               Approximate Normal Coordinate               |
     |                Rational Function Optimizer                |
      ----------------------------------------------------------- 
 2    0.000000    0.931818    0.020329   -0.465909
      ----------------------------------------------------------- 
     |                   =====================                   |
     |                        A N C O P T                        |
     |                   =====================                   |
     |               Approximate Normal Coordinate               |
     |                Rational Function Optimizer                |
      ----------------------------------------------------------- 
 3    0.000000    0.465909    0.029366   -0.232955
      ----------------------------------------------------------- 
     |                   =====================                   |
     |                        A N C O P T                        |
     |                   =====================                   |
     |               Approximate Normal Coordinate               |
     |                Rational Function Optimizer                |
      ----------------------------------------------------------- 
 4    0.000000    0.232955    0.043141   -0.116477
      ----------------------------------------------------------- 
     |                   =====================                   |
     |                        A N C O P T                        |
     |                   =====================                   |
     |               Approximate Normal Coordinate               |
     |                Rational Function Optimizer                |
      ----------------------------------------------------------- 
 5    0.000000    0.116477    0.064026   -0.058239
      ----------------------------------------------------------- 
     |                   =====================                   |
     |                        A N C O P T                        |
     |                   =====================                   |
     |               Approximate Normal Coordinate               |
     |                Rational Function Optimizer                |
      ----------------------------------------------------------- 
 6    0.000000    0.058239    0.097300   -0.029119
      ----------------------------------------------------------- 
     |                   =====================                   |
     |                        A N C O P T                        |
     |                   =====================                   |
     |               Approximate Normal Coordinate               |
     |                Rational Function Optimizer                |
      ----------------------------------------------------------- 
 7    0.000000    0.029119    0.150899   -0.014560
      ----------------------------------------------------------- 
     |                   =====================                   |
     |                        A N C O P T                        |
     |                   =====================                   |
     |               Approximate Normal Coordinate               |
     |                Rational Function Optimizer                |
      ----------------------------------------------------------- 
 8    0.014560    0.029119    0.116590   -0.021839
      ----------------------------------------------------------- 
     |                   =====================                   |
     |                        A N C O P T                        |
     |                   =====================                   |
     |               Approximate Normal Coordinate               |
     |                Rational Function Optimizer                |
      ----------------------------------------------------------- 
 9    0.021839    0.029119    0.106026   -0.025479
      ----------------------------------------------------------- 
     |                   =====================                   |
     |                        A N C O P T                        |
     |                   =====================                   |
     |               Approximate Normal Coordinate               |
     |                Rational Function Optimizer                |
      ----------------------------------------------------------- 
10    0.025479    0.029119    0.101314   -0.027299
final kpush: -0.027299
           -------------------------------------------------
          |            Biased Numerical Hessian             |
           -------------------------------------------------
kpush                :  -0.02730
alpha                :   1.00000
step length          :   0.00500
SCC accuracy         :   0.30000
Hessian scale factor :   1.00000
frozen atoms in %    :   0.00000    0
RMS gradient         :   0.00019
estimated CPU  time      0.15 min
estimated wall time      0.15 min

writing file <hessian>.

 projected vibrational frequencies (cm⁻¹)
eigval :       -0.00    -0.00    -0.00     0.00     0.00     0.00
eigval :       44.53    54.36    52.60    55.67    61.62    72.87
eigval :       67.49    75.83    76.82    81.33    81.17    81.76
eigval :       93.19   114.68   114.16   138.81   139.92   145.91
eigval :      166.75   183.18   192.16   200.63   217.95   235.48
eigval :      205.53   241.98   216.55   229.47   247.47   308.04
eigval :      321.25   332.58   347.89   381.30   425.84   423.05
eigval :      449.42   463.86   480.62   610.04   616.02   672.37
eigval :      711.68   721.99   742.19   757.87   790.43   784.91
eigval :      820.40   824.65   825.81   828.07   910.01   923.65
eigval :      934.03   960.81  1037.58  1040.48  1056.26  1063.28
eigval :     1083.74  1093.59  1093.21  1095.72  1098.53  1131.81
eigval :     1132.71  1134.87  1135.17  1166.76  1235.31  1237.17
eigval :     1241.12  1241.26  1303.27  1307.22  1314.61  1315.23
eigval :     1339.95  1390.83  1392.01  1396.89  1399.14  1434.17
eigval :     1442.82  1443.40  1450.34  1454.92  1461.22  1463.01
eigval :     1463.10  1474.41  1476.46  1482.51  1485.58  2910.23
eigval :     2912.77  2917.42  2926.31  2939.74  2945.90  2970.06
eigval :     2970.74  2975.75  3016.74  3021.37  3028.51  3034.75
eigval :     3043.68  3046.80  3048.77  3050.01  3055.78  3056.23
eigval :     3056.73  3060.34  3060.73
           -------------------------------------------------
          |                Property Printout                |
           -------------------------------------------------

    * Orbital Energies and Occupations

         #    Occupation            Energy/Eh            Energy/eV
      -------------------------------------------------------------
         1        2.0000           -0.7660459             -20.8452
       ...           ...                  ...                  ...
        46        2.0000           -0.4658308             -12.6759
        47        2.0000           -0.4598048             -12.5119
        48        2.0000           -0.4572174             -12.4415
        49        2.0000           -0.4556568             -12.3991
        50        2.0000           -0.4539888             -12.3537
        51        2.0000           -0.4484519             -12.2030
        52        2.0000           -0.4450925             -12.1116
        53        2.0000           -0.4202045             -11.4343
        54        2.0000           -0.4112919             -11.1918
        55        2.0000           -0.3960769             -10.7778
        56        2.0000           -0.3935764             -10.7098
        57        2.0000           -0.3933455             -10.7035
        58        2.0000           -0.3898839             -10.6093 (HOMO)
        59                         -0.2704748              -7.3600 (LUMO)
        60                         -0.2625269              -7.1437
        61                         -0.2234825              -6.0813
        62                         -0.1866478              -5.0789
        63                         -0.1765947              -4.8054
        64                         -0.1731622              -4.7120
        65                         -0.1712497              -4.6599
        66                         -0.1653231              -4.4987
        67                         -0.1333495              -3.6286
        68                         -0.1281927              -3.4883
        69                         -0.0496506              -1.3511
       ...                                ...                  ...
       128                          1.2145722              33.0502
      -------------------------------------------------------------
                  HL-Gap            0.1194091 Eh            3.2493 eV
             Fermi-level           -0.3301793 Eh           -8.9846 eV

     #   Z          covCN         q      C6AA      α(0)
     1   6 C        3.751    -0.134    23.138     6.860
     2   6 C        3.872     0.083    19.166     6.225
     3   8 O        1.655    -0.252    18.193     5.758
     4  15 P        3.839     0.377   144.575    21.599
     5  16 S        0.926    -0.475   160.181    21.407
     6   8 O        1.655    -0.248    18.118     5.746
     7   6 C        3.841     0.075    19.300     6.250
     8   6 C        3.751    -0.122    22.909     6.826
     9  16 S        2.015    -0.124   146.247    20.354
    10   6 C        3.801     0.038    19.942     6.358
    11  16 S        2.013    -0.128   146.448    20.368
    12  15 P        3.825     0.372   144.753    21.612
    13  16 S        0.926    -0.469   159.909    21.389
    14   8 O        1.655    -0.266    18.421     5.794
    15   6 C        3.855     0.081    19.208     6.233
    16   6 C        3.751    -0.121    22.879     6.822
    17   8 O        1.655    -0.265    18.412     5.792
    18   6 C        3.843     0.075    19.299     6.249
    19   6 C        3.751    -0.129    23.032     6.844
    20   1 H        0.925     0.085     1.924     2.169
    21   1 H        0.925     0.067     2.117     2.275
    22   1 H        0.925     0.078     2.003     2.213
    23   1 H        0.924     0.074     2.047     2.237
    24   1 H        0.924     0.055     2.254     2.348
    25   1 H        0.924     0.063     2.161     2.299
    26   1 H        0.924     0.098     1.806     2.102
    27   1 H        0.925     0.048     2.346     2.395
    28   1 H        0.925     0.083     1.953     2.185
    29   1 H        0.925     0.069     2.097     2.264
    30   1 H        0.925     0.117     1.638     2.001
    31   1 H        0.924     0.084     1.936     2.176
    32   1 H        0.924     0.060     2.197     2.318
    33   1 H        0.924     0.089     1.889     2.149
    34   1 H        0.925     0.054     2.267     2.354
    35   1 H        0.925     0.081     1.965     2.192
    36   1 H        0.925     0.060     2.194     2.316
    37   1 H        0.924     0.091     1.871     2.139
    38   1 H        0.924     0.065     2.147     2.291
    39   1 H        0.925     0.073     2.057     2.243
    40   1 H        0.925     0.085     1.931     2.173
    41   1 H        0.925     0.053     2.281     2.362

 Mol. C6AA /au·bohr⁶  :      26420.046697
 Mol. C8AA /au·bohr⁸  :     862769.388780
 Mol. α(0) /au        :        257.689858


Wiberg/Mayer (AO) data.
largest (>0.10) Wiberg bond orders for each atom

 ---------------------------------------------------------------------------
     #   Z sym  total        # sym  WBO       # sym  WBO       # sym  WBO
 ---------------------------------------------------------------------------
     1   6 C    3.981 --     2 C    1.018    21 H    0.984    22 H    0.982
                            20 H    0.975
     2   6 C    3.889 --     1 C    1.018    23 H    0.970    24 H    0.965
                             3 O    0.885
     3   8 O    2.411 --     4 P    1.335     2 C    0.885
     4  15 P    5.261 --     5 S    1.496     3 O    1.335     6 O    1.333
                             9 S    0.964
     5  16 S    1.846 --     4 P    1.496     9 S    0.148
     6   8 O    2.421 --     4 P    1.333     7 C    0.884
     7   6 C    3.885 --     8 C    1.021    25 H    0.965    26 H    0.963
                             6 O    0.884
     8   6 C    3.987 --     7 C    1.021    29 H    0.983    27 H    0.979
                            28 H    0.977
     9  16 S    2.292 --    10 C    1.003     4 P    0.964     5 S    0.148
    10   6 C    3.949 --     9 S    1.003    11 S    0.968    30 H    0.960
                            31 H    0.946
    11  16 S    2.278 --    12 P    1.007    10 C    0.968    13 S    0.136
    12  15 P    5.292 --    13 S    1.509    17 O    1.315    14 O    1.313
                            11 S    1.007
    13  16 S    1.844 --    12 P    1.509    11 S    0.136
    14   8 O    2.386 --    12 P    1.313    15 C    0.877
    15   6 C    3.893 --    16 C    1.022    32 H    0.969    33 H    0.966
                            14 O    0.877
    16   6 C    3.988 --    15 C    1.022    36 H    0.984    34 H    0.981
                            35 H    0.976
    17   8 O    2.401 --    12 P    1.315    18 C    0.889
    18   6 C    3.889 --    19 C    1.022    38 H    0.967    37 H    0.964
                            17 O    0.889
    19   6 C    3.987 --    18 C    1.022    39 H    0.982    41 H    0.978
                            40 H    0.976
    20   1 H    0.992 --     1 C    0.975
    21   1 H    0.995 --     1 C    0.984
    22   1 H    0.994 --     1 C    0.982
    23   1 H    0.994 --     2 C    0.970
    24   1 H    0.997 --     2 C    0.965
    25   1 H    0.996 --     7 C    0.965
    26   1 H    0.990 --     7 C    0.963
    27   1 H    0.998 --     8 C    0.979
    28   1 H    0.993 --     8 C    0.977
    29   1 H    0.995 --     8 C    0.983
    30   1 H    0.986 --    10 C    0.960
    31   1 H    0.993 --    10 C    0.946
    32   1 H    0.996 --    15 C    0.969
    33   1 H    0.992 --    15 C    0.966
    34   1 H    0.997 --    16 C    0.981
    35   1 H    0.992 --    16 C    0.976
    36   1 H    0.996 --    16 C    0.984
    37   1 H    0.991 --    18 C    0.964
    38   1 H    0.996 --    18 C    0.967
    39   1 H    0.995 --    19 C    0.982
    40   1 H    0.992 --    19 C    0.976
    41   1 H    0.997 --    19 C    0.978
 ---------------------------------------------------------------------------

Topologies differ in total number of bonds
Writing topology from bond orders to xtbtopo.mol

molecular dipole:
                 x           y           z       tot (Debye)
 q only:       -0.228      -1.413       1.078
   full:       -0.296      -1.017       1.337       4.335
molecular quadrupole (traceless):
                xx          xy          yy          xz          yz          zz
 q only:       19.072       6.075     -13.014     -16.365       7.838      -6.058
  q+dip:       21.159       6.126     -15.922     -15.042       8.759      -5.238
   full:       21.710       6.001     -15.937     -16.261       8.848      -5.774

           -------------------------------------------------
          |                Geometry Summary                 |
           -------------------------------------------------

      molecular mass/u    :      384.4756129
   center of mass at/Å    :       -0.0012017       0.0176954      -0.0028280
  moments of inertia/u·Å² :        0.1359656E+04   0.3650309E+04   0.3784281E+04
rotational constants/cm⁻¹ :        0.1239845E-01   0.4618139E-02   0.4454645E-02

 * 38 selected distances

     #   Z          #   Z                                           value/Å
     1   6 C        2   6 C                                       1.5166552
     2   6 C        3   8 O                                       1.4420835
     3   8 O        4  15 P                                       1.5800126
     4  15 P        5  16 S                                       1.9685658
     4  15 P        6   8 O                                       1.5797307
     6   8 O        7   6 C                                       1.4388554
     7   6 C        8   6 C                                       1.5163461
     4  15 P        9  16 S                                       2.1340183 (max)
    11  16 S       12  15 P                                       2.1048492
    12  15 P       13  16 S                                       1.9650292
    12  15 P       14   8 O                                       1.5857980
    14   8 O       15   6 C                                       1.4452999
    15   6 C       16   6 C                                       1.5161772
    12  15 P       17   8 O                                       1.5952090
    17   8 O       18   6 C                                       1.4374083
    18   6 C       19   6 C                                       1.5150210
     1   6 C       20   1 H                                       1.0853583
     1   6 C       21   1 H                                       1.0865050
     1   6 C       22   1 H                                       1.0859860
     2   6 C       23   1 H                                       1.0931765
     2   6 C       24   1 H                                       1.0957565
     7   6 C       25   1 H                                       1.0952847
     7   6 C       26   1 H                                       1.0917647
     8   6 C       27   1 H                                       1.0890089
     8   6 C       28   1 H                                       1.0852964 (min)
     8   6 C       29   1 H                                       1.0868950
    10   6 C       30   1 H                                       1.0866999
    10   6 C       31   1 H                                       1.0927340
    15   6 C       32   1 H                                       1.0932470
    15   6 C       33   1 H                                       1.0914494
    16   6 C       34   1 H                                       1.0880520
    16   6 C       35   1 H                                       1.0855128
    16   6 C       36   1 H                                       1.0876983
    18   6 C       37   1 H                                       1.0913354
    18   6 C       38   1 H                                       1.0947780
    19   6 C       39   1 H                                       1.0866918
    19   6 C       40   1 H                                       1.0857770
    19   6 C       41   1 H                                       1.0888811

 * 5 distinct bonds (by element types)

   Z      Z             #   av. dist./Å        max./Å        min./Å
   1 H    6 C          22     1.0894495     1.0957565     1.0852964
   6 C    6 C           4     1.5160499     1.5166552     1.5150210
   6 C    8 O           4     1.4409118     1.4452999     1.4374083
   8 O   15 P           4     1.5851876     1.5952090     1.5797307
  15 P   16 S           4     2.0431156     2.1340183     1.9650292

           -------------------------------------------------
          |               Frequency Printout                |
           -------------------------------------------------
 projected vibrational frequencies (cm⁻¹)
eigval :       -0.00    -0.00    -0.00     0.00     0.00     0.00
eigval :       44.53    54.36    52.60    55.67    61.62    72.87
eigval :       67.49    75.83    76.82    81.33    81.17    81.76
eigval :       93.19   114.68   114.16   138.81   139.92   145.91
eigval :      166.75   183.18   192.16   200.63   217.95   235.48
eigval :      205.53   241.98   216.55   229.47   247.47   308.04
eigval :      321.25   332.58   347.89   381.30   425.84   423.05
eigval :      449.42   463.86   480.62   610.04   616.02   672.37
eigval :      711.68   721.99   742.19   757.87   790.43   784.91
eigval :      820.40   824.65   825.81   828.07   910.01   923.65
eigval :      934.03   960.81  1037.58  1040.48  1056.26  1063.28
eigval :     1083.74  1093.59  1093.21  1095.72  1098.53  1131.81
eigval :     1132.71  1134.87  1135.17  1166.76  1235.31  1237.17
eigval :     1241.12  1241.26  1303.27  1307.22  1314.61  1315.23
eigval :     1339.95  1390.83  1392.01  1396.89  1399.14  1434.17
eigval :     1442.82  1443.40  1450.34  1454.92  1461.22  1463.01
eigval :     1463.10  1474.41  1476.46  1482.51  1485.58  2910.23
eigval :     2912.77  2917.42  2926.31  2939.74  2945.90  2970.06
eigval :     2970.74  2975.75  3016.74  3021.37  3028.51  3034.75
eigval :     3043.68  3046.80  3048.77  3050.01  3055.78  3056.23
eigval :     3056.73  3060.34  3060.73
 reduced masses (amu)
   1: 16.70   2: 18.90   3: 20.65   4: 22.20   5: 19.27   6: 17.69   7: 25.67   8: 24.61
   9: 22.03  10: 19.75  11: 16.38  12: 20.11  13: 13.58  14: 18.18  15: 16.46  16: 13.52
  17: 12.99  18: 12.88  19: 12.16  20: 14.34  21: 12.00  22: 16.44  23: 14.50  24: 14.14
  25: 19.09  26: 15.62  27: 16.01  28: 17.00  29: 16.90  30: 17.38  31:  4.45  32: 14.36
  33:  4.18  34:  7.20  35: 10.72  36: 13.46  37: 18.58  38: 15.02  39: 15.95  40: 18.67
  41: 26.59  42: 15.10  43: 13.92  44: 18.63  45: 19.66  46: 24.94  47: 27.04  48: 18.03
  49: 17.08  50: 19.77  51: 19.24  52: 22.01  53: 19.01  54:  6.45  55:  2.72  56:  2.49
  57:  2.76  58:  3.21  59: 12.91  60: 13.28  61: 11.38  62: 11.10  63:  8.59  64:  8.68
  65:  9.57  66: 11.01  67:  2.48  68:  7.37  69:  6.91  70:  7.77  71:  7.63  72:  5.18
  73:  5.05  74:  5.30  75:  5.18  76:  2.24  77:  2.35  78:  2.33  79:  2.24  80:  2.25
  81:  3.06  82:  3.08  83:  3.01  84:  3.09  85:  1.79  86:  3.11  87:  3.09  88:  3.05
  89:  3.02  90:  1.95  91:  1.90  92:  1.90  93:  1.89  94:  1.50  95:  1.50  96:  1.48
  97:  1.50  98:  1.55  99:  1.56 100:  1.57 101:  1.57 102:  1.79 103:  1.73 104:  1.75
 105:  1.74 106:  1.76 107:  1.67 108:  1.70 109:  1.72 110:  1.73 111:  1.80 112:  1.75
 113:  1.79 114:  1.89 115:  1.49 116:  1.62 117:  1.63 118:  1.81 119:  1.78 120:  1.48
 121:  1.77 122:  1.88 123:  1.77
 IR intensities (km·mol⁻¹)
   1:  0.31   2:  0.00   3:  0.03   4:  0.05   5:  0.11   6:  0.29   7:  0.08   8:  0.30
   9:  2.22  10:  1.82  11:  7.37  12:  3.59  13:  6.04  14: 11.30  15:  2.72  16:  1.68
  17:  1.74  18:  3.30  19:  4.43  20:  4.86  21:  1.79  22:  5.31  23: 12.80  24: 13.49
  25: 18.30  26:  6.18  27:  4.10  28:  0.14  29:  4.17  30:  6.64  31:  1.45  32: 16.52
  33:  3.19  34:  3.82  35:  2.05  36: 21.95  37:  3.72  38:  9.62  39:  5.33  40:  7.72
  41: 92.71  42:  8.63  43: 55.80  44: 35.20  45:152.58  46:135.07  47:195.83  48:  8.90
  49: 55.75  50:242.41  51:131.85  52:266.67  53:343.68  54:  3.32  55:  1.80  56:  5.26
  57:  3.01  58:  4.71  59:307.70  60:435.51  61:109.35  62: 74.52  63:160.42  64:245.78
  65:154.90  66: 12.32  67:  7.17  68: 15.81  69:  5.69  70: 16.41  71:  9.56  72: 24.67
  73: 16.24  74: 15.40  75: 24.68  76: 25.79  77:  1.47  78:  6.25  79:  4.64  80:  2.47
  81:  3.82  82:  4.56  83:  4.34  84:  4.16  85: 17.80  86: 10.90  87: 16.98  88:  9.26
  89: 13.75  90:  7.40  91:  3.89  92:  4.51  93:  0.84  94:  6.79  95:  8.83  96:  9.89
  97:  2.59  98:  4.68  99:  4.10 100:  2.01 101:  5.97 102: 29.42 103: 13.30 104: 21.44
 105: 25.82 106: 30.10 107: 22.38 108: 14.54 109:  7.45 110:  9.91 111:  5.46 112: 57.80
 113: 39.71 114: 32.46 115: 22.94 116: 18.08 117: 16.80 118: 26.22 119: 19.77 120: 12.76
 121:  8.35 122: 16.57 123:  5.65
 Raman intensities (Ä⁴*amu⁻¹)
   1:  0.00   2:  0.00   3:  0.00   4:  0.00   5:  0.00   6:  0.00   7:  0.00   8:  0.00
   9:  0.00  10:  0.00  11:  0.00  12:  0.00  13:  0.00  14:  0.00  15:  0.00  16:  0.00
  17:  0.00  18:  0.00  19:  0.00  20:  0.00  21:  0.00  22:  0.00  23:  0.00  24:  0.00
  25:  0.00  26:  0.00  27:  0.00  28:  0.00  29:  0.00  30:  0.00  31:  0.00  32:  0.00
  33:  0.00  34:  0.00  35:  0.00  36:  0.00  37:  0.00  38:  0.00  39:  0.00  40:  0.00
  41:  0.00  42:  0.00  43:  0.00  44:  0.00  45:  0.00  46:  0.00  47:  0.00  48:  0.00
  49:  0.00  50:  0.00  51:  0.00  52:  0.00  53:  0.00  54:  0.00  55:  0.00  56:  0.00
  57:  0.00  58:  0.00  59:  0.00  60:  0.00  61:  0.00  62:  0.00  63:  0.00  64:  0.00
  65:  0.00  66:  0.00  67:  0.00  68:  0.00  69:  0.00  70:  0.00  71:  0.00  72:  0.00
  73:  0.00  74:  0.00  75:  0.00  76:  0.00  77:  0.00  78:  0.00  79:  0.00  80:  0.00
  81:  0.00  82:  0.00  83:  0.00  84:  0.00  85:  0.00  86:  0.00  87:  0.00  88:  0.00
  89:  0.00  90:  0.00  91:  0.00  92:  0.00  93:  0.00  94:  0.00  95:  0.00  96:  0.00
  97:  0.00  98:  0.00  99:  0.00 100:  0.00 101:  0.00 102:  0.00 103:  0.00 104:  0.00
 105:  0.00 106:  0.00 107:  0.00 108:  0.00 109:  0.00 110:  0.00 111:  0.00 112:  0.00
 113:  0.00 114:  0.00 115:  0.00 116:  0.00 117:  0.00 118:  0.00 119:  0.00 120:  0.00
 121:  0.00 122:  0.00 123:  0.00
 output can be read by thermo (or use thermo option).
 writing <g98.out> molden fake output.
 recommended (thermochemical) frequency scaling factor: 1.0
           -------------------------------------------------
          |             Thermodynamic Functions             |
           -------------------------------------------------

Molecule has no symmetry elements
It seems to be the C1 point group
c1  symmetry found (for desy threshold:  0.10E+00) used in thermo

          ...................................................
          :                      SETUP                      :
          :.................................................:
          :  # frequencies                         117      :
          :  # imaginary freq.                       0      :
          :  linear?                             false      :
          :  only rotor calc.                    false      :
          :  symmetry                               c1      :
          :  rotational number                       1      :
          :  scaling factor                  1.0000000      :
          :  rotor cutoff                    0.0000000 cm⁻¹ :
          :  imag. cutoff                 -100.0000000 cm⁻¹ :
          :.................................................:

    mode    ω/cm⁻¹     T·S(HO)/kcal·mol⁻¹    T·S(FR)/kcal·mol⁻¹   T·S(vib)
   ------------------------------------------------------------------------
       1     44.53    -1.50468 (100.00%)    -1.09085 (  0.00%)    -1.50468
       2     54.36    -1.38708 (100.00%)    -1.03178 (  0.00%)    -1.38708
       3     52.60    -1.40639 (100.00%)    -1.04149 (  0.00%)    -1.40639
       4     55.67    -1.37300 (100.00%)    -1.02470 (  0.00%)    -1.37300
       5     61.62    -1.31320 (100.00%)    -0.99460 (  0.00%)    -1.31320
       6     72.87    -1.21473 (100.00%)    -0.94494 (  0.00%)    -1.21473
       7     67.49    -1.25973 (100.00%)    -0.96765 (  0.00%)    -1.25973
       8     75.83    -1.19140 (100.00%)    -0.93315 (  0.00%)    -1.19140
       9     76.82    -1.18379 (100.00%)    -0.92930 (  0.00%)    -1.18379
      10     81.33    -1.15038 (100.00%)    -0.91239 (  0.00%)    -1.15038
      11     81.17    -1.15153 (100.00%)    -0.91298 (  0.00%)    -1.15153
      12     81.76    -1.14730 (100.00%)    -0.91083 (  0.00%)    -1.14730
      13     93.19    -1.07094 (100.00%)    -0.87208 (  0.00%)    -1.07094
      14    114.68    -0.95054 (100.00%)    -0.81062 (  0.00%)    -0.95054
      15    114.16    -0.95317 (100.00%)    -0.81197 (  0.00%)    -0.95317
      16    138.81    -0.84084 (100.00%)    -0.75405 (  0.00%)    -0.84084
      17    139.92    -0.83631 (100.00%)    -0.75169 (  0.00%)    -0.83631
      18    145.91    -0.81243 (100.00%)    -0.73928 (  0.00%)    -0.81243
      19    166.75    -0.73698 (100.00%)    -0.69973 (  0.00%)    -0.73698
      20    183.18    -0.68449 (100.00%)    -0.67189 (  0.00%)    -0.68449
      21    192.16    -0.65798 (100.00%)    -0.65771 (  0.00%)    -0.65798
      22    200.63    -0.63426 (100.00%)    -0.64493 (  0.00%)    -0.63426
      23    217.95    -0.58915 (100.00%)    -0.62040 (  0.00%)    -0.58915
      24    235.48    -0.54764 (100.00%)    -0.59749 (  0.00%)    -0.54764
      25    205.53    -0.62105 (100.00%)    -0.63778 (  0.00%)    -0.62105
      26    241.98    -0.53318 (100.00%)    -0.58942 (  0.00%)    -0.53318
      27    216.55    -0.59264 (100.00%)    -0.62230 (  0.00%)    -0.59264
      28    229.47    -0.56144 (100.00%)    -0.60514 (  0.00%)    -0.56144
      29    247.47    -0.52132 (100.00%)    -0.58277 (  0.00%)    -0.52132
   ------------------------------------------------------------------------

   temp. (K)  partition function   enthalpy   heat capacity  entropy
                                   cal/mol     cal/K/mol   cal/K/mol   J/K/mol
 298.15  VIB  0.105E+13            15652.985     88.476    107.501
         ROT  0.105E+08              888.752      2.981     35.103
         INT  0.110E+20            16541.737     91.457    142.603
         TR   0.729E+28             1481.254      4.968     43.712
         TOT                       18022.9911    96.4249   186.3158   779.5454

       T/K    H(0)-H(T)+PV         H(T)/Eh          T*S/Eh         G(T)/Eh
   ------------------------------------------------------------------------
    298.15    0.287215E-01    0.341554E+00    0.885247E-01    0.253030E+00
   ------------------------------------------------------------------------

         :::::::::::::::::::::::::::::::::::::::::::::::::::::
         ::                  THERMODYNAMIC                  ::
         :::::::::::::::::::::::::::::::::::::::::::::::::::::
         :: total free energy         -64.796095712672 Eh   ::
         ::.................................................::
         :: total energy              -65.049125217310 Eh   ::
         :: zero point energy           0.312832699724 Eh   ::
         :: G(RRHO) w/o ZPVE           -0.059803195085 Eh   ::
         :: G(RRHO) contrib.            0.253029504638 Eh   ::
         :::::::::::::::::::::::::::::::::::::::::::::::::::::

optimized geometry written to: xtbopt.coord


           -------------------------------------------------
          | TOTAL ENERGY              -65.049125217310 Eh   |
          | TOTAL ENTHALPY            -64.707571053065 Eh   |
          | TOTAL FREE ENERGY         -64.796095712672 Eh   |
          | GRADIENT NORM               0.000187112992 Eh/α |
          | HOMO-LUMO GAP               3.249286932203 eV   |
           -------------------------------------------------

------------------------------------------------------------------------
 * finished run on 2025/04/09 at 14:03:50.321     
------------------------------------------------------------------------
 total:
 * wall-time:     0 d,  0 h,  0 min, 21.631 sec
 *  cpu-time:     0 d,  0 h,  0 min, 21.368 sec
 * ratio c/w:     0.988 speedup
 SCF:
 * wall-time:     0 d,  0 h,  0 min,  0.071 sec
 *  cpu-time:     0 d,  0 h,  0 min,  0.048 sec
 * ratio c/w:     0.672 speedup
 analytical hessian:
 * wall-time:     0 d,  0 h,  0 min,  8.491 sec
 *  cpu-time:     0 d,  0 h,  0 min,  8.465 sec
 * ratio c/w:     0.997 speedup

