
                                 *****************
                                 * O   R   C   A *
                                 *****************

                                            #,                                       
                                            ###                                      
                                            ####                                     
                                            #####                                    
                                            ######                                   
                                           ########,                                 
                                     ,,################,,,,,                         
                               ,,#################################,,                 
                          ,,##########################################,,             
                       ,#########################################, ''#####,          
                    ,#############################################,,   '####,        
                  ,##################################################,,,,####,       
                ,###########''''           ''''###############################       
              ,#####''   ,,,,##########,,,,          '''####'''          '####       
            ,##' ,,,,###########################,,,                        '##       
           ' ,,###''''                  '''############,,,                           
         ,,##''                                '''############,,,,        ,,,,,,###''
      ,#''                                            '''#######################'''  
     '                                                          ''''####''''         
             ,#######,   #######,   ,#######,      ##                                
            ,#'     '#,  ##    ##  ,#'     '#,    #''#        ,####,   ,####,        
            ##       ##  ##   ,#'  ##            #'  '#       #'       #'  '#        
            ##       ##  #######   ##           ,######,      #####,   #    #        
            '#,     ,#'  ##    ##  '#,     ,#' ,#      #,     #,   #   #,  ,#        
             '#######'   ##     ##  '#######'  #'      '#     '####' # '####'        



                #########################################################
                #                        -***-                          #
                #          Department of theory and spectroscopy        #
                #                                                       #
                #                      Frank Neese                      #
                #                                                       #
                #     Directorship, Architecture, Infrastructure        #
                #                    SHARK, DRIVERS                     #
                #        Core code/Algorithms in most modules           #
                #                                                       #
                #        Max Planck Institute fuer Kohlenforschung      #
                #                Kaiser Wilhelm Platz 1                 #
                #                 D-45470 Muelheim/Ruhr                 #
                #                      Germany                          #
                #                                                       #
                #                  All rights reserved                  #
                #                        -***-                          #
                #########################################################


                         Program Version 6.0.0  -   RELEASE  -


 With contributions from (in alphabetic order):
   Daniel Aravena         : Magnetic Suceptibility
   Michael Atanasov       : Ab Initio Ligand Field Theory (pilot matlab implementation)
   Alexander A. Auer      : GIAO ZORA, VPT2 properties, NMR spectrum
   Ute Becker             : All parallelization in ORCA, NUMFREQ, NUMCALC
   Giovanni Bistoni       : ED, misc. LED, open-shell LED, HFLD
   Martin Brehm           : Molecular dynamics
   Dmytro Bykov           : pre 5.0 version of the SCF Hessian
   Marcos Casanova-Páez   : Triplet and SCS-CIS(D). UHF-(DLPNO)-IP/EA/STEOM-CCSD. UHF-CVS-IP/STEOM-CCSD
   Vijay G. Chilkuri      : MRCI spin determinant printing, contributions to CSF-ICE
   Pauline Colinet        : FMM embedding
   Dipayan Datta          : RHF DLPNO-CCSD density
   Achintya Kumar Dutta   : EOM-CC, STEOM-CC
   Nicolas Foglia         : Exact transition moments, OPA infrastructure, MCD improvements
   Dmitry Ganyushin       : Spin-Orbit,Spin-Spin,Magnetic field MRCI
   Miquel Garcia          : C-PCM and meta-GGA Hessian, CCSD/C-PCM, Gaussian charge scheme
   Tiago L. C. Gouveia    : GS-ROHF, GS-ROCIS
   Yang Guo               : DLPNO-NEVPT2, F12-NEVPT2, CIM, IAO-localization
   Andreas Hansen         : Spin unrestricted coupled pair/coupled cluster methods
   Ingolf Harden          : AUTO-CI MPn and infrastructure 
   Benjamin Helmich-Paris : MC-RPA, TRAH-(SCF,CASSCF), AVAS, COSX integrals, SCF dyn. polar.
   Lee Huntington         : MR-EOM, pCC
   Robert Izsak           : Overlap fitted RIJCOSX, COSX-SCS-MP3, EOM
   Riya Kayal             : Wick's Theorem for AUTO-CI, AUTO-CI UHF-CCSDT
   Emily Kempfer          : AUTO-CI, RHF CISDT and CCSDT
   Christian Kollmar      : KDIIS, OOCD, Brueckner-CCSD(T), CCSD density, CASPT2, CASPT2-K, improved NEVPT2
   Axel Koslowski         : Symmetry handling
   Simone Kossmann        : Meta GGA functionals, TD-DFT gradient, OOMP2, (MP2 Hessian; deprecated post 5.0)
   Lucas Lang             : DCDCAS
   Marvin Lechner         : AUTO-CI (C++ implementation), FIC-MRCC
   Spencer Leger          : CASSCF response
   Dagmar Lenk            : GEPOL surface, SMD, ORCA-2-JSON
   Dimitrios Liakos       : Extrapolation schemes; Compound Job, initial MDCI parallelization
   Dimitrios Manganas     : Further ROCIS development; embedding schemes. LFT, Crystal Embedding
   Dimitrios Pantazis     : SARC Basis sets
   Anastasios Papadopoulos: AUTO-CI, single reference methods and gradients
   Taras Petrenko         : pre 6.0 DFT Hessian and TD-DFT gradient, (ASA, deprecated), ECA, 1-Electron XAS/XES, NRVS
   Peter Pinski           : DLPNO-MP2, DLPNO-MP2 Gradient
   Christoph Reimann      : Effective Core Potentials
   Marius Retegan         : Local ZFS, SOC
   Christoph Riplinger    : Optimizer, TS searches, QM/MM, DLPNO-CCSD(T), (RO)-DLPNO pert. Triples
   Michael Roemelt        : Original ROCIS implementation
   Masaaki Saitow         : Open-shell DLPNO-CCSD energy and density
   Barbara Sandhoefer     : DKH picture change effects
   Kantharuban Sivalingam : CASSCF convergence/infrastructure, NEVPT2 and variants, FIC-MRCI
   Bernardo de Souza      : ESD, SOC TD-DFT
   Georgi Stoychev        : AutoAux, RI-MP2 NMR, DLPNO-MP2 response, X2C
   Van Anh Tran           : RI-MP2 g-tensors
   Willem Van den Heuvel  : Paramagnetic NMR
   Zikuan Wang            : NOTCH, Electric field optimization 
   Frank Wennmohs         : Technical directorship and infrastructure
   Hang Xu                : AUTO-CI-Response properties 


 We gratefully acknowledge several colleagues who have allowed us to
 interface, adapt or use parts of their codes:
   Stefan Grimme, W. Hujo, H. Kruse, P. Pracht,  : VdW corrections, initial TS optimization,
                  C. Bannwarth, S. Ehlert,         DFT functionals, gCP, sTDA/sTD-DF
                  L. Wittmann, M. Mueller
   Ed Valeev, F. Pavosevic, A. Kumar             : LibInt (2-el integral package), F12 methods
   Garnet Chan, S. Sharma, J. Yang, R. Olivares  : DMRG
   Ulf Ekstrom                                   : XCFun DFT Library
   Mihaly Kallay                                 : mrcc  (arbitrary order and MRCC methods)
   Frank Weinhold                                : gennbo (NPA and NBO analysis)
   Simon Mueller                                 : openCOSMO-RS
   Christopher J. Cramer and Donald G. Truhlar   : smd solvation model
   Lars Goerigk                                  : TD-DFT with DH, B97 family of functionals
   V. Asgeirsson, H. Jonsson                     : NEB implementation
   FAccTs GmbH                                   : IRC, NEB, NEB-TS, DLPNO-Multilevel, CI-OPT
                                                   MM, QMMM, 2- and 3-layer-ONIOM, Crystal-QMMM,
                                                   LR-CPCM, SF, NACMEs, symmetry and pop. for TD-DFT,
                                                   nearIR, NL-DFT gradient (VV10), updates on ESD,
                                                   ML-optimized integration grids, MBIS, APM,
                                                   GOAT, DOCKER, SOLVATOR, interface openCOSMO-RS
   S Lehtola, MJT Oliveira, MAL Marques          : LibXC Library
   Liviu Ungur et al                             : ANISO software


 Your calculation uses the libint2 library for the computation of 2-el integrals
 For citations please refer to: http://libint.valeyev.net

 Your ORCA version has been built with support for libXC version: 6.2.2
 For citations please refer to: https://libxc.gitlab.io

 This ORCA versions uses:
   CBLAS   interface :  Fast vector & matrix operations
   LAPACKE interface :  Fast linear algebra routines
   SCALAPACK package :  Parallel linear algebra routines
   Shared memory     :  Shared parallel matrices
   BLAS/LAPACK       :  OpenBLAS 0.3.27  USE64BITINT DYNAMIC_ARCH NO_AFFINITY SkylakeX SINGLE_THREADED
        Core in use  :  SkylakeX
   Copyright (c) 2011-2014, The OpenBLAS Project


Your calculation utilizes the geometrical counterpoise correction gCP
Please cite in your paper:
H.Kruse, S. Grimme J.Chem.Phys., 136, (2012), 154101 
   

Your calculation utilizes the atom-pairwise dispersion correction
based on EEQ partial charges (D4)


Your calculation utilizes the SMD solvation module
Please cite in your paper:
A.V. Marenich, C.J. Cramer, D.G. Truhlar J. Phys. Chem. B, 113, (2009), 6378 

================================================================================

----- Orbital basis set information -----
Your calculation utilizes the basis: def2-mTZVPP
   Stefan Grimme, Andreas Hansen, Sebastian Ehlert, and Jan-Michael Mewes 
   J. Chem. Phys. 154, 064103 (2021). DOI: 10.1063/5.0040021

----- AuxJ basis set information -----
Your calculation utilizes the auxiliary basis: def2/J
   F. Weigend, Phys. Chem. Chem. Phys. 8, 1057 (2006).

================================================================================
                                        WARNINGS
                       Please study these warnings very carefully!
================================================================================

Using LibXC functional ID 497 : Re-regularized SCAN exchange by Furness et al
[ 1]  J. W. Furness, A. D. Kaplan, J. Ning, J. P. Perdew, and J. Sun.,  J. Phys. Chem. Lett. 11, 8208-8215 (2020)
[ 2]  J. W. Furness, A. D. Kaplan, J. Ning, J. P. Perdew, and J. Sun.,  J. Phys. Chem. Lett. 11, 9248-9248 (2020)
Using LibXC functional ID 498 : Re-regularized SCAN correlation by Furness et al
[ 1]  J. W. Furness, A. D. Kaplan, J. Ning, J. P. Perdew, and J. Sun.,  J. Phys. Chem. Lett. 11, 8208-8215 (2020)
[ 2]  J. W. Furness, A. D. Kaplan, J. Ning, J. P. Perdew, and J. Sun.,  J. Phys. Chem. Lett. 11, 9248-9248 (2020)
Using LibXC functional ID 497 : Re-regularized SCAN exchange by Furness et al
[ 1]  J. W. Furness, A. D. Kaplan, J. Ning, J. P. Perdew, and J. Sun.,  J. Phys. Chem. Lett. 11, 8208-8215 (2020)
[ 2]  J. W. Furness, A. D. Kaplan, J. Ning, J. P. Perdew, and J. Sun.,  J. Phys. Chem. Lett. 11, 9248-9248 (2020)
Using LibXC functional ID 498 : Re-regularized SCAN correlation by Furness et al
[ 1]  J. W. Furness, A. D. Kaplan, J. Ning, J. P. Perdew, and J. Sun.,  J. Phys. Chem. Lett. 11, 8208-8215 (2020)
[ 2]  J. W. Furness, A. D. Kaplan, J. Ning, J. P. Perdew, and J. Sun.,  J. Phys. Chem. Lett. 11, 9248-9248 (2020)

================================================================================
                                       INPUT FILE
================================================================================
NAME = sp_solv.inp
|  1> ! r2scan-3c def2/J RI DEFGRID2 scfconv6 printgap
|  2> %output
|  3>     printlevel normal
|  4> end
|  5> %cpcm
|  6>     smd true
|  7>     smdsolvent "water"
|  8> end
|  9> * xyz 0 1
| 10> C -1.0917166889 0.189062764 0.0020753522
| 11> C -0.1890128463 -1.0915901163 -0.0021427519
| 12> C 1.0917974396 -0.1890473323 0.0021641307
| 13> C 0.1890562176 1.0916145175 -0.002104859
| 14> F 0.321783193 1.8574216698 -1.0878801252
| 15> F 0.3236412027 1.8679224339 1.0757821785
| 16> F 1.8682125156 -0.3237024112 -1.0756624351
| 17> F 1.8574953944 -0.3218223026 1.0880167687
| 18> F -0.3239630152 -1.8678969275 1.0757030621
| 19> F -0.3216932525 -1.8573534927 -1.0879466063
| 20> F -1.8575776902 0.3217062428 1.0878212053
| 21> F -1.8679768172 0.3236996052 -1.0758289096
| 22> *
| 23> 
| 24>                          ****END OF INPUT****
================================================================================

                       ****************************
                       * Single Point Calculation *
                       ****************************

---------------------------------
CARTESIAN COORDINATES (ANGSTROEM)
---------------------------------
  C     -1.091717    0.189063    0.002075
  C     -0.189013   -1.091590   -0.002143
  C      1.091797   -0.189047    0.002164
  C      0.189056    1.091615   -0.002105
  F      0.321783    1.857422   -1.087880
  F      0.323641    1.867922    1.075782
  F      1.868213   -0.323702   -1.075662
  F      1.857495   -0.321822    1.088017
  F     -0.323963   -1.867897    1.075703
  F     -0.321693   -1.857353   -1.087947
  F     -1.857578    0.321706    1.087821
  F     -1.867977    0.323700   -1.075829

----------------------------
CARTESIAN COORDINATES (A.U.)
----------------------------
  NO LB      ZA    FRAG     MASS         X           Y           Z
   0 C     6.0000    0    12.011   -2.063046    0.357277    0.003922
   1 C     6.0000    0    12.011   -0.357183   -2.062806   -0.004049
   2 C     6.0000    0    12.011    2.063198   -0.357248    0.004090
   3 C     6.0000    0    12.011    0.357264    2.062852   -0.003978
   4 F     9.0000    0    18.998    0.608082    3.510018   -2.055796
   5 F     9.0000    0    18.998    0.611593    3.529862    2.032934
   6 F     9.0000    0    18.998    3.530410   -0.611709   -2.032707
   7 F     9.0000    0    18.998    3.510158   -0.608156    2.056054
   8 F     9.0000    0    18.998   -0.612201   -3.529814    2.032784
   9 F     9.0000    0    18.998   -0.607912   -3.509889   -2.055921
  10 F     9.0000    0    18.998   -3.510313    0.607937    2.055684
  11 F     9.0000    0    18.998   -3.529965    0.611704   -2.033022

--------------------------------
INTERNAL COORDINATES (ANGSTROEM)
--------------------------------
 C      0   0   0     0.000000000000     0.00000000     0.00000000
 C      1   0   0     1.566832415949     0.00000000     0.00000000
 C      2   1   0     1.566868537771    90.00770590     0.00000000
 C      1   2   3     1.566842806390    89.99251405     0.31035270
 F      4   1   2     1.335284603822   114.44280514   116.72205571
 F      4   1   2     1.335143275042   114.53020919   242.54811227
 F      3   2   1     1.335163835062   114.52158916   242.53710502
 F      3   2   1     1.335289669763   114.43755281   116.72368489
 F      2   1   3     1.335146213701   114.50889059   117.16220222
 F      2   1   3     1.335278116744   114.43629161   242.96254693
 F      1   2   3     1.335283274554   114.44550778   243.27929484
 F      1   2   3     1.335134623700   114.53308906   117.44872968

---------------------------
INTERNAL COORDINATES (A.U.)
---------------------------
 C      0   0   0     0.000000000000     0.00000000     0.00000000
 C      1   0   0     2.960884163893     0.00000000     0.00000000
 C      2   1   0     2.960952424244    90.00770590     0.00000000
 C      1   2   3     2.960903798982    89.99251405     0.31035270
 F      4   1   2     2.523322212065   114.44280514   116.72205571
 F      4   1   2     2.523055139376   114.53020919   242.54811227
 F      3   2   1     2.523093992183   114.52158916   242.53710502
 F      3   2   1     2.523331785305   114.43755281   116.72368489
 F      2   1   3     2.523060692636   114.50889059   117.16220222
 F      2   1   3     2.523309953264   114.43629161   242.96254693
 F      1   2   3     2.523319700113   114.44550778   243.27929484
 F      1   2   3     2.523038790710   114.53308906   117.44872968

---------------------
BASIS SET INFORMATION
---------------------
There are 2 groups of distinct atoms

 Group   1 Type C   : 11s6p1d contracted to 5s3p1d pattern {62111/411/1}
 Group   2 Type F   : 11s6p2d contracted to 5s3p2d pattern {62111/411/11}

Atom   0C    basis set group =>   1
Atom   1C    basis set group =>   1
Atom   2C    basis set group =>   1
Atom   3C    basis set group =>   1
Atom   4F    basis set group =>   2
Atom   5F    basis set group =>   2
Atom   6F    basis set group =>   2
Atom   7F    basis set group =>   2
Atom   8F    basis set group =>   2
Atom   9F    basis set group =>   2
Atom  10F    basis set group =>   2
Atom  11F    basis set group =>   2
---------------------------------
AUXILIARY/J BASIS SET INFORMATION
---------------------------------
There are 2 groups of distinct atoms

 Group   1 Type C   : 12s5p4d2f1g contracted to 6s4p3d1f1g pattern {711111/2111/211/2/1}
 Group   2 Type F   : 12s5p4d2f1g contracted to 6s4p3d1f1g pattern {711111/2111/211/2/1}

Atom   0C    basis set group =>   1
Atom   1C    basis set group =>   1
Atom   2C    basis set group =>   1
Atom   3C    basis set group =>   1
Atom   4F    basis set group =>   2
Atom   5F    basis set group =>   2
Atom   6F    basis set group =>   2
Atom   7F    basis set group =>   2
Atom   8F    basis set group =>   2
Atom   9F    basis set group =>   2
Atom  10F    basis set group =>   2
Atom  11F    basis set group =>   2

Checking for AutoStart:
The File: sp_solv.gbw exists
Trying to determine its content:
     ... Fine, the file contains calculation information
     ... Fine, the calculation information was read
     ... Fine, the file contains a basis set
     ... Fine, the basis set was read
     ... Fine, the file contains a geometry
     ... Fine, the geometry was read
     ... Fine, the file contains a set of orbitals
     ... Fine, the orbitals can be read
     => possible old guess file was deleted
     => GBW file was renamed to GES file
     => GES file is set as startup file
     => Guess is set to MORead
     ... now leaving AutoStart

------------------------------------------------------------------------------
                             ORCA STARTUP CALCULATIONS
                           -- RI-GTO INTEGRALS CHOSEN --
------------------------------------------------------------------------------
------------------------------------------------------------------------------
                   ___                                                        
                  /   \      - P O W E R E D   B Y -                         
                 /     \                                                     
                 |  |  |   _    _      __       _____    __    __             
                 |  |  |  | |  | |    /  \     |  _  \  |  |  /  |          
                  \  \/   | |  | |   /    \    | | | |  |  | /  /          
                 / \  \   | |__| |  /  /\  \   | |_| |  |  |/  /          
                |  |  |   |  __  | /  /__\  \  |    /   |      \           
                |  |  |   | |  | | |   __   |  |    \   |  |\   \          
                \     /   | |  | | |  |  |  |  | |\  \  |  | \   \       
                 \___/    |_|  |_| |__|  |__|  |_| \__\ |__|  \__/        
                                                                              
                      - O R C A' S   B I G   F R I E N D -                    
                                      &                                       
                       - I N T E G R A L  F E E D E R -                       
                                                                              
 v1 FN, 2020, v2 2021, v3 2022-2024                                           
------------------------------------------------------------------------------


----------------------
SHARK INTEGRAL PACKAGE
----------------------

Number of atoms                             ...     12
Number of basis functions                   ...    268
Number of shells                            ...    116
Maximum angular momentum                    ...      2
Integral batch strategy                     ... SHARK/LIBINT Hybrid
RI-J (if used) integral strategy            ... SPLIT-RIJ (Revised 2003 algorithm where possible)
Printlevel                                  ...      1
Contraction scheme used                     ... SEGMENTED contraction
Prescreening option                         ... SCHWARTZ
   Thresh                                   ... 1.000e-10
   Tcut                                     ... 1.000e-11
   Tpresel                                  ... 1.000e-11 
Coulomb Range Separation                    ... NOT USED
Exchange Range Separation                   ... NOT USED
Multipole approximations                    ... NOT USED
Finite Nucleus Model                        ... NOT USED
CABS basis                                  ... NOT available
Auxiliary Coulomb fitting basis             ... AVAILABLE
   # of basis functions in Aux-J            ...    588
   # of shells in Aux-J                     ...    180
   Maximum angular momentum in Aux-J        ...      4
Auxiliary J/K fitting basis                 ... NOT available
Auxiliary Correlation fitting basis         ... NOT available
Auxiliary 'external' fitting basis          ... NOT available

Checking pre-screening integrals            ... done (  0.0 sec) Dimension = 116
Check shell pair data                       ... done (  0.0 sec)
Shell pair information
Shell pair cut-off parameter TPreSel        ...   1.0e-11
Total number of shell pairs                 ...      6786
Shell pairs after pre-screening             ...      5888
Total number of primitive shell pairs       ...     25464
Primitive shell pairs kept                  ...     14866
          la=0 lb=0:   1388 shell pairs
          la=1 lb=0:   1912 shell pairs
          la=1 lb=1:    642 shell pairs
          la=2 lb=0:   1056 shell pairs
          la=2 lb=1:    688 shell pairs
          la=2 lb=2:    202 shell pairs

Calculating one electron integrals          ... done (  0.0 sec)
Calculating RI/J V-Matrix + Cholesky decomp.... done (  0.1 sec)
Calculating Nuclear repulsion               ... done (  0.0 sec) ENN=    887.752454000034 Eh

Diagonalization of the overlap matrix:
Smallest eigenvalue                        ... 1.735e-05
Time for diagonalization                   ...    0.007 sec
Threshold for overlap eigenvalues          ... 1.000e-07
Number of eigenvalues below threshold      ... 0
Time for construction of square roots      ...    0.018 sec
Total time needed                          ...    0.129 sec

-------------------
DFT GRID GENERATION
-------------------

General Integration Accuracy     IntAcc      ... 4.388
Radial Grid Type                 RadialGrid  ... OptM3 with GC (2021)
Angular Grid (max. ang.)         AngularGrid ... 4 (Lebedev-302)
Angular grid pruning method      GridPruning ... 4 (adaptive)
Weight generation scheme         WeightScheme... mBecke (2022)
Basis function cutoff            BFCut       ... 1.0000e-10
Integration weight cutoff        WCut        ... 1.0000e-14
Partially contracted basis set               ... off
Rotationally invariant grid construction     ... off
Angular grids for H and He will be reduced by one unit

Total number of grid points                  ...    72896
Total number of batches                      ...     1148
Average number of points per batch           ...       63
Average number of grid points per atom       ...     6075
Initializing property integral containers    ... done (  0.0 sec)

SHARK setup successfully completed in   1.4 seconds

Maximum memory used throughout the entire STARTUP-calculation: 38.1 MB
-------------------------------------------------------------------------------
                                 ORCA GUESS
                   Start orbitals & Density for SCF / CASSCF
-------------------------------------------------------------------------------

------------
SCF SETTINGS
------------
Hamiltonian:
 Density Functional     Method          .... DFT(GTOs)
  Functional kind                       .... Exchange
  Functional name                       .... Re-regularized SCAN exchange by Furness et al
  Functional family                     .... MGGA
  Functional refs                              
    [ 0] J. W. Furness, A. D. Kaplan, J. Ning, J. P. Perdew, and J. Sun.,  J. Phys. Chem. Lett. 11, 8208-8215 (2020), doi: 10.1021/acs.jpclett.0c02405
    [ 1] J. W. Furness, A. D. Kaplan, J. Ning, J. P. Perdew, and J. Sun.,  J. Phys. Chem. Lett. 11, 9248-9248 (2020), doi: 10.1021/acs.jpclett.0c03077
  Functional external parameters        .... 6
    Parameter  0 _c1        =  6.670000e-01 : c1 parameter        
    Parameter  1 _c2        =  8.000000e-01 : c2 parameter        
    Parameter  2 _d         =  1.240000e+00 : d parameter         
    Parameter  3 _k1        =  6.500000e-02 : k1 parameter        
    Parameter  4 _eta       =  1.000000e-03 : eta parameter       
    Parameter  5 _dp2       =  3.610000e-01 : dp2 parameter       
  Functional kind                       .... Correlation
  Functional name                       .... Re-regularized SCAN correlation by Furness et al
  Functional family                     .... MGGA
  Functional refs                              
    [ 0] J. W. Furness, A. D. Kaplan, J. Ning, J. P. Perdew, and J. Sun.,  J. Phys. Chem. Lett. 11, 8208-8215 (2020), doi: 10.1021/acs.jpclett.0c02405
    [ 1] J. W. Furness, A. D. Kaplan, J. Ning, J. P. Perdew, and J. Sun.,  J. Phys. Chem. Lett. 11, 9248-9248 (2020), doi: 10.1021/acs.jpclett.0c03077
  Functional external parameters        .... 1
    Parameter  0 _eta       =  1.000000e-03 : Regularization parameter
 Gradients option       PostSCFGGA      .... off
 RI-approximation to the Coulomb term is turned on
   Number of AuxJ basis functions       .... 588


General Settings:
 Integral files         IntName         .... sp_solv
 Hartree-Fock type      HFTyp           .... RHF
 Total Charge           Charge          ....    0
 Multiplicity           Mult            ....    1
 Number of Electrons    NEL             ....   96
 Basis Dimension        Dim             ....  268
 Nuclear Repulsion      ENuc            ....    887.7524540000 Eh

Convergence Acceleration:
 AO-DIIS                CNVDIIS         .... on
   Start iteration      DIISMaxIt       ....    12
   Startup error        DIISStart       ....  0.200000
   # of expansion vecs  DIISMaxEq       ....     5
   Bias factor          DIISBfac        ....   1.050
   Max. coefficient     DIISMaxC        ....  10.000
 MO-DIIS                CNVKDIIS        .... off
 Trust-Rad. Augm. Hess. CNVTRAH         .... auto
   Auto Start mean grad. ratio tolernc. ....  1.125000
   Auto Start start iteration           ....     1
   Auto Start num. interpolation iter.  ....    10
   Max. Number of Micro iterations      ....    24
   Max. Number of Macro iterations      .... Maxiter - #DIIS iter
   Number of Davidson start vectors     ....     2
   Converg. threshold    (grad. norm)   ....   3.330e-04
   Grad. Scal. Fac. for Micro threshold ....   0.100
   Minimum threshold for Micro iter.    ....   1.000e-02
   NR start threshold (gradient norm)   ....   1.000e-04
   Initial trust radius                 ....   0.400
   Minimum AH scaling param. (alpha)    ....   1.000
   Maximum AH scaling param. (alpha)    .... 1000.000
   Quad. conv. algorithm                .... NR
   White noise on init. David. guess    .... on
   Maximum white noise                  ....   0.010
   Pseudo random numbers                .... off
   Inactive MOs                         .... canonical
   Orbital update algorithm             .... Taylor
   Preconditioner                       .... Diag
   Full preconditioner red. dimension   ....   250
   COSX micro iterations for RIJONX calc.... off
 SOSCF                  CNVSOSCF        .... on
   Start iteration      SOSCFMaxIt      ....   150
   Startup grad/error   SOSCFStart      ....  0.003300
   Hessian update       SOSCFHessUp     .... L-BFGS
 Level Shifting         CNVShift        .... on
   Level shift para.    LevelShift      ....    0.2500
   Turn off err/grad.   ShiftErr        ....    0.0010
 Zerner damping         CNVZerner       .... off
 Static damping         CNVDamp         .... on
   Fraction old density DampFac         ....    0.7000
   Max. Damping (<1)    DampMax         ....    0.9800
   Min. Damping (>=0)   DampMin         ....    0.0000
   Turn off err/grad.   DampErr         ....    0.1000

SCF Procedure:
 Maximum # iterations   MaxIter         ....   125
 SCF integral mode      SCFMode         .... Direct
   Integral package                     .... SHARK and LIBINT hybrid scheme
 Reset frequency        DirectResetFreq ....    20
 Integral Threshold     Thresh          ....  1.000e-10 Eh
 Primitive CutOff       TCut            ....  1.000e-11 Eh

Convergence Tolerance:
 Convergence Check Mode ConvCheckMode   .... Total+1el-Energy
 Convergence forced     ConvForced      .... 0
 Energy Change          TolE            ....  1.000e-06 Eh
 1-El. energy change                    ....  1.000e-03 Eh
 Orbital Gradient       TolG            ....  3.330e-04
 Orbital Rotation angle TolX            ....  3.330e-04
 DIIS Error             TolErr          ....  1.000e-06

---------------------
INITIAL GUESS: MOREAD
---------------------
Guess MOs are being read from file: sp_solv.ges
Input Geometry matches current geometry (good)
Atom 0: N(Shells)= 9 and 6 - projection required
Input basis set needs projection
NBasis(read)= 168
NBasis(calc)= 268
Basis set overlap was calculated
Using GuessMode=FMatrix for the initial guess
C*T matrix was formed
Effective Fockian was calculated
Effective Fockian was diagonalized
Initial density was built
                      ------------------
                      INITIAL GUESS DONE (   0.5 sec)
                      ------------------
             **** ENERGY FILE WAS UPDATED (sp_solv.en.tmp) ****
Finished Guess after   0.7 sec
Maximum memory used throughout the entire GUESS-calculation: 20.7 MB

-------------------------------------------------------------------------------------------
                                      ORCA LEAN-SCF
                              memory conserving SCF solver
-------------------------------------------------------------------------------------------

--------------------
CPCM SOLVATION MODEL
--------------------
CPCM parameters:
  Epsilon                                         ...      78.3550
  Refrac                                          ...       1.3328
  Rsolv                                           ...       1.3000
  Surface type                                    ... GAUSSIAN VDW
  Discretization scheme                           ... Constant charge density
    Threshold for H atoms                         ...       5.0000 (charges/Ang^2)
    Threshold for non-H atoms                     ...       5.0000 (charges/Ang^2)
  Epsilon function type                           ...         CPCM
Solvent:                                          ... WATER
SMD-CDS solvent descriptors:
  Soln                                            ...       1.3328
  Soln25                                          ...       1.3323
  Sola                                            ...       0.0000
  Solb                                            ...       0.0000
  Solg                                            ...       0.0000
  Solc                                            ...       0.0000
  Solh                                            ...       0.0000
Radii:
  Scheme                                          ... Element-dependent radii
  Radius for C  used is    3.4960 Bohr (=   1.8500 Ang.)
  Radius for F  used is    3.2692 Bohr (=   1.7300 Ang.)
Calculating surface                               ...        done! (  0.0s)
Cavity surface points                             ...         1112
Cavity Volume                                     ...     985.0939
Cavity Surface-area                               ...     584.0609
Calculating surface distance matrix               ...        done! (  0.0s)
Performing Cholesky decomposition & store         ...        done! (  0.3s)
Overall time for CPCM initialization              ...                 0.3s

----------------------------------------D-I-I-S--------------------------------------------
Iteration    Energy (Eh)           Delta-E    RMSDP     MaxDP     DIISErr   Damp  Time(sec)
-------------------------------------------------------------------------------------------
               ***  Starting incremental Fock matrix formation  ***
    1    -950.6835866650631033     0.00e+00  2.72e-02  1.51e+00  8.33e-01  0.700   5.3
    2    -950.8133142717754254    -1.30e-01  1.89e-02  1.02e+00  5.86e-01  0.700   3.9
    3    -950.9044165195223286    -9.11e-02  1.30e-02  6.96e-01  4.11e-01  0.700   3.6
    4    -950.9683146060315266    -6.39e-02  9.04e-03  4.79e-01  2.88e-01  0.700   3.5
    5    -951.0130939604778177    -4.48e-02  6.30e-03  3.32e-01  2.01e-01  0.700   4.2
                               ***Turning on AO-DIIS***
    6    -951.0444615743626855    -3.14e-02  4.37e-03  2.29e-01  1.41e-01  0.700   5.0
    7    -951.0664303166774971    -2.20e-02  3.05e-03  1.59e-01  9.87e-02  0.700   4.6
    8    -951.0818156652551352    -1.54e-02  7.07e-03  3.68e-01  6.91e-02  0.000   3.5
                              *** Initializing SOSCF ***
---------------------------------------S-O-S-C-F--------------------------------------
Iteration    Energy (Eh)           Delta-E    RMSDP     MaxDP     MaxGrad    Time(sec)
--------------------------------------------------------------------------------------
    9    -951.1177383583428764    -3.59e-02  1.15e-05  4.82e-04  1.17e-04     5.5
               *** Restarting incremental Fock matrix formation ***
   10    -951.1177378271759153     5.31e-07  1.57e-05  6.54e-04  1.28e-04     4.4
   11    -951.1177370747079749     7.52e-07  1.04e-05  4.53e-04  2.61e-04     3.7
                 **** Energy Check signals convergence ****

               *****************************************************
               *                     SUCCESS                       *
               *           SCF CONVERGED AFTER  11 CYCLES          *
               *****************************************************


SMD CDS free energy correction energy :                 6.75316     Kcal/mol
Total Energy after SMD CDS correction =              -951.106975232 Eh
             **** ENERGY FILE WAS UPDATED (sp_solv.en.tmp) ****

----------------
TOTAL SCF ENERGY
----------------

Total Energy       :       -951.10697523178328 Eh          -25880.93656 eV

Components:
Nuclear Repulsion  :        887.75245400003428 Eh           24156.97239 eV
Electronic Energy  :      -1838.86395987874789 Eh          -50038.03223 eV
One Electron Energy:      -3086.14930199927267 Eh          -83978.39189 eV
Two Electron Energy:       1247.28534212052477 Eh           33940.35965 eV
CPCM Dielectric    :         -0.00623119599440 Eh              -0.16956 eV
SMD CDS (Gcds)     :          0.01076184292469 Eh               0.29284 eV

Virial components:
Potential Energy   :      -1899.24425705048839 Eh          -51681.06365 eV
Kinetic Energy     :        948.13728181870511 Eh           25800.12709 eV
Virial Ratio       :          2.00313213441769

DFT components:
N(Alpha)           :       48.000014335942 electrons
N(Beta)            :       48.000014335942 electrons
N(Total)           :       96.000028671884 electrons
E(X)               :     -101.803768371965 Eh       
E(C)               :       -3.353110692574 Eh       
E(XC)              :     -105.156879064539 Eh       

CPCM Solvation Model Properties:
Surface-charge          :         -0.00789496725286
Corrected charge        :         -0.00000000000000
Outlying charge corr.   :          0.00000475458974 Eh               0.00013 eV
Free-energy (cav+disp)  :          0.01076184292469 Eh               0.29284 eV

---------------
SCF CONVERGENCE
---------------

  Last Energy change         ...   -7.5247e-07  Tolerance :   1.0000e-06
  Last MAX-Density change    ...    4.5322e-04  Tolerance :   1.0000e-05
  Last RMS-Density change    ...    1.0438e-05  Tolerance :   1.0000e-06
  Last DIIS Error            ...    1.1681e-04  Tolerance :   1.0000e-06
  Last Orbital Gradient      ...    2.6148e-04  Tolerance :   3.3300e-04
  Last Orbital Rotation      ...    1.7013e-04  Tolerance :   3.3300e-04


----------------
ORBITAL ENERGIES
----------------

  NO   OCC          E(Eh)            E(eV) 
   0   2.0000     -24.542503      -667.8355 
   1   2.0000     -24.542499      -667.8354 
   2   2.0000     -24.542497      -667.8353 
   3   2.0000     -24.542494      -667.8352 
   4   2.0000     -24.542458      -667.8342 
   5   2.0000     -24.542452      -667.8341 
   6   2.0000     -24.542451      -667.8340 
   7   2.0000     -24.542446      -667.8339 
   8   2.0000     -10.247602      -278.8514 
   9   2.0000     -10.247522      -278.8492 
  10   2.0000     -10.247520      -278.8492 
  11   2.0000     -10.247440      -278.8470 
  12   2.0000      -1.286160       -34.9982 
  13   2.0000      -1.268618       -34.5209 
  14   2.0000      -1.268615       -34.5208 
  15   2.0000      -1.255501       -34.1639 
  16   2.0000      -1.218043       -33.1446 
  17   2.0000      -1.208055       -32.8729 
  18   2.0000      -1.208053       -32.8728 
  19   2.0000      -1.199433       -32.6382 
  20   2.0000      -0.867960       -23.6184 
  21   2.0000      -0.693558       -18.8727 
  22   2.0000      -0.693536       -18.8721 
  23   2.0000      -0.625315       -17.0157 
  24   2.0000      -0.606391       -16.5007 
  25   2.0000      -0.593558       -16.1515 
  26   2.0000      -0.586862       -15.9693 
  27   2.0000      -0.557378       -15.1670 
  28   2.0000      -0.557374       -15.1669 
  29   2.0000      -0.549606       -14.9555 
  30   2.0000      -0.549578       -14.9548 
  31   2.0000      -0.533972       -14.5301 
  32   2.0000      -0.456560       -12.4236 
  33   2.0000      -0.456554       -12.4235 
  34   2.0000      -0.448307       -12.1990 
  35   2.0000      -0.443803       -12.0765 
  36   2.0000      -0.443423       -12.0662 
  37   2.0000      -0.442096       -12.0301 
  38   2.0000      -0.427736       -11.6393 
  39   2.0000      -0.427732       -11.6392 
  40   2.0000      -0.419010       -11.4018 
  41   2.0000      -0.404093       -10.9959 
  42   2.0000      -0.398117       -10.8333 
  43   2.0000      -0.398115       -10.8332 
  44   2.0000      -0.390693       -10.6313 
  45   2.0000      -0.355286        -9.6678 
  46   2.0000      -0.355247        -9.6668 
  47   2.0000      -0.296042        -8.0557 
  48   0.0000      -0.071236        -1.9384 
  49   0.0000       0.018048         0.4911 
  50   0.0000       0.089930         2.4471 
  51   0.0000       0.089958         2.4479 
  52   0.0000       0.126872         3.4524 
  53   0.0000       0.126905         3.4533 
  54   0.0000       0.141350         3.8463 
  55   0.0000       0.141369         3.8468 
  56   0.0000       0.151017         4.1094 
  57   0.0000       0.181664         4.9433 
  58   0.0000       0.186111         5.0643 
*Only the first 10 virtual orbitals were printed.

                    ********************************
                    * MULLIKEN POPULATION ANALYSIS *
                    ********************************

-----------------------
MULLIKEN ATOMIC CHARGES
-----------------------
   0 C :    0.364712
   1 C :    0.364899
   2 C :    0.364720
   3 C :    0.364894
   4 F :   -0.182463
   5 F :   -0.182349
   6 F :   -0.182343
   7 F :   -0.182452
   8 F :   -0.182356
   9 F :   -0.182465
  10 F :   -0.182457
  11 F :   -0.182341
Sum of atomic charges:   -0.0000000

--------------------------------
MULLIKEN REDUCED ORBITAL CHARGES
--------------------------------
  0 C s       :     2.975910  s :     2.975910
      pz      :     0.670359  p :     2.539798
      px      :     0.871458
      py      :     0.997982
      dz2     :     0.031906  d :     0.119580
      dxz     :     0.031290
      dyz     :     0.017091
      dx2y2   :     0.012855
      dxy     :     0.026437

  1 C s       :     2.975843  s :     2.975843
      pz      :     0.670382  p :     2.539675
      px      :     0.997930
      py      :     0.871363
      dz2     :     0.031907  d :     0.119582
      dxz     :     0.017093
      dyz     :     0.031288
      dx2y2   :     0.012860
      dxy     :     0.026435

  2 C s       :     2.975959  s :     2.975959
      pz      :     0.670354  p :     2.539749
      px      :     0.871447
      py      :     0.997947
      dz2     :     0.031904  d :     0.119573
      dxz     :     0.031288
      dyz     :     0.017091
      dx2y2   :     0.012855
      dxy     :     0.026435

  3 C s       :     2.975860  s :     2.975860
      pz      :     0.670385  p :     2.539664
      px      :     0.997934
      py      :     0.871345
      dz2     :     0.031908  d :     0.119582
      dxz     :     0.017091
      dyz     :     0.031289
      dx2y2   :     0.012859
      dxy     :     0.026436

  4 F s       :     3.932023  s :     3.932023
      pz      :     1.591594  p :     5.237815
      px      :     1.922993
      py      :     1.723228
      dz2     :     0.002968  d :     0.012625
      dxz     :     0.001371
      dyz     :     0.004517
      dx2y2   :     0.000894
      dxy     :     0.002875

  5 F s       :     3.931976  s :     3.931976
      pz      :     1.596639  p :     5.237697
      px      :     1.922701
      py      :     1.718357
      dz2     :     0.002833  d :     0.012676
      dxz     :     0.001355
      dyz     :     0.004665
      dx2y2   :     0.000915
      dxy     :     0.002908

  6 F s       :     3.931980  s :     3.931980
      pz      :     1.596689  p :     5.237684
      px      :     1.718302
      py      :     1.922694
      dz2     :     0.002832  d :     0.012679
      dxz     :     0.004667
      dyz     :     0.001356
      dx2y2   :     0.000916
      dxy     :     0.002908

  7 F s       :     3.932025  s :     3.932025
      pz      :     1.591540  p :     5.237800
      px      :     1.723272
      py      :     1.922987
      dz2     :     0.002969  d :     0.012626
      dxz     :     0.004516
      dyz     :     0.001372
      dx2y2   :     0.000894
      dxy     :     0.002875

  8 F s       :     3.931977  s :     3.931977
      pz      :     1.596672  p :     5.237702
      px      :     1.922663
      py      :     1.718367
      dz2     :     0.002833  d :     0.012677
      dxz     :     0.001356
      dyz     :     0.004665
      dx2y2   :     0.000916
      dxy     :     0.002908

  9 F s       :     3.932022  s :     3.932022
      pz      :     1.591574  p :     5.237818
      px      :     1.922995
      py      :     1.723249
      dz2     :     0.002968  d :     0.012625
      dxz     :     0.001371
      dyz     :     0.004517
      dx2y2   :     0.000894
      dxy     :     0.002874

 10 F s       :     3.932026  s :     3.932026
      pz      :     1.591613  p :     5.237804
      px      :     1.723193
      py      :     1.922997
      dz2     :     0.002967  d :     0.012628
      dxz     :     0.004519
      dyz     :     0.001372
      dx2y2   :     0.000894
      dxy     :     0.002875

 11 F s       :     3.931978  s :     3.931978
      pz      :     1.596623  p :     5.237684
      px      :     1.718367
      py      :     1.922693
      dz2     :     0.002834  d :     0.012679
      dxz     :     0.004665
      dyz     :     0.001357
      dx2y2   :     0.000915
      dxy     :     0.002908


------------------------
MULLIKEN OVERLAP CHARGES
------------------------
B(  0-C ,  2-C ) :   0.3403 B(  0-C ,  4-F ) :  -0.0766 B(  0-C ,  5-F ) :  -0.0765 
B(  0-C ,  8-F ) :  -0.0766 B(  0-C ,  9-F ) :  -0.0766 B(  0-C , 10-F ) :   0.4536 
B(  0-C , 11-F ) :   0.4556 B(  1-C ,  3-C ) :   0.3398 B(  1-C ,  6-F ) :  -0.0765 
B(  1-C ,  7-F ) :  -0.0766 B(  1-C ,  8-F ) :   0.4556 B(  1-C ,  9-F ) :   0.4535 
B(  1-C , 10-F ) :  -0.0765 B(  1-C , 11-F ) :  -0.0764 B(  2-C ,  4-F ) :  -0.0766 
B(  2-C ,  5-F ) :  -0.0766 B(  2-C ,  6-F ) :   0.4556 B(  2-C ,  7-F ) :   0.4535 
B(  2-C ,  8-F ) :  -0.0765 B(  2-C ,  9-F ) :  -0.0766 B(  3-C ,  4-F ) :   0.4535 
B(  3-C ,  5-F ) :   0.4556 B(  3-C ,  6-F ) :  -0.0764 B(  3-C ,  7-F ) :  -0.0765 
B(  3-C , 10-F ) :  -0.0766 B(  3-C , 11-F ) :  -0.0765 B(  4-F ,  5-F ) :  -0.1181 
B(  6-F ,  7-F ) :  -0.1181 B(  8-F ,  9-F ) :  -0.1181 B( 10-F , 11-F ) :  -0.1181 



                     *******************************
                     * LOEWDIN POPULATION ANALYSIS *
                     *******************************

----------------------
LOEWDIN ATOMIC CHARGES
----------------------
   0 C :    0.415184
   1 C :    0.415187
   2 C :    0.415214
   3 C :    0.415194
   4 F :   -0.207616
   5 F :   -0.207590
   6 F :   -0.207579
   7 F :   -0.207609
   8 F :   -0.207590
   9 F :   -0.207618
  10 F :   -0.207601
  11 F :   -0.207575

-------------------------------
LOEWDIN REDUCED ORBITAL CHARGES
-------------------------------
  0 C s       :     2.741480  s :     2.741480
      pz      :     0.746814  p :     2.582852
      px      :     0.871935
      py      :     0.964103
      dz2     :     0.070533  d :     0.260484
      dxz     :     0.075155
      dyz     :     0.031824
      dx2y2   :     0.023641
      dxy     :     0.059332

  1 C s       :     2.741507  s :     2.741507
      pz      :     0.746816  p :     2.582819
      px      :     0.964075
      py      :     0.871927
      dz2     :     0.070534  d :     0.260486
      dxz     :     0.031827
      dyz     :     0.075150
      dx2y2   :     0.023650
      dxy     :     0.059326

  2 C s       :     2.741500  s :     2.741500
      pz      :     0.746807  p :     2.582819
      px      :     0.871925
      py      :     0.964088
      dz2     :     0.070528  d :     0.260467
      dxz     :     0.075149
      dyz     :     0.031823
      dx2y2   :     0.023641
      dxy     :     0.059327

  3 C s       :     2.741509  s :     2.741509
      pz      :     0.746818  p :     2.582810
      px      :     0.964071
      py      :     0.871921
      dz2     :     0.070535  d :     0.260486
      dxz     :     0.031824
      dyz     :     0.075152
      dx2y2   :     0.023646
      dxy     :     0.059329

  4 F s       :     3.729632  s :     3.729632
      pz      :     1.660150  p :     5.320358
      px      :     1.900704
      py      :     1.759504
      dz2     :     0.041841  d :     0.157627
      dxz     :     0.029290
      dyz     :     0.046604
      dx2y2   :     0.015590
      dxy     :     0.024302

  5 F s       :     3.729595  s :     3.729595
      pz      :     1.663448  p :     5.320384
      px      :     1.900501
      py      :     1.756434
      dz2     :     0.041527  d :     0.157611
      dxz     :     0.028921
      dyz     :     0.046512
      dx2y2   :     0.015981
      dxy     :     0.024670

  6 F s       :     3.729609  s :     3.729609
      pz      :     1.663477  p :     5.320377
      px      :     1.756402
      py      :     1.900497
      dz2     :     0.041522  d :     0.157594
      dxz     :     0.046504
      dyz     :     0.028914
      dx2y2   :     0.015984
      dxy     :     0.024669

  7 F s       :     3.729636  s :     3.729636
      pz      :     1.660113  p :     5.320354
      px      :     1.759541
      py      :     1.900700
      dz2     :     0.041843  d :     0.157620
      dxz     :     0.046601
      dyz     :     0.029293
      dx2y2   :     0.015587
      dxy     :     0.024296

  8 F s       :     3.729596  s :     3.729596
      pz      :     1.663469  p :     5.320383
      px      :     1.900472
      py      :     1.756442
      dz2     :     0.041527  d :     0.157611
      dxz     :     0.028919
      dyz     :     0.046510
      dx2y2   :     0.015986
      dxy     :     0.024669

  9 F s       :     3.729627  s :     3.729627
      pz      :     1.660137  p :     5.320359
      px      :     1.900704
      py      :     1.759518
      dz2     :     0.041844  d :     0.157632
      dxz     :     0.029293
      dyz     :     0.046605
      dx2y2   :     0.015590
      dxy     :     0.024300

 10 F s       :     3.729630  s :     3.729630
      pz      :     1.660159  p :     5.320348
      px      :     1.759485
      py      :     1.900703
      dz2     :     0.041841  d :     0.157624
      dxz     :     0.046599
      dyz     :     0.029288
      dx2y2   :     0.015593
      dxy     :     0.024303

 11 F s       :     3.729589  s :     3.729589
      pz      :     1.663435  p :     5.320374
      px      :     1.756446
      py      :     1.900494
      dz2     :     0.041530  d :     0.157612
      dxz     :     0.046508
      dyz     :     0.028923
      dx2y2   :     0.015981
      dxy     :     0.024670


---------------------------------
LOEWDIN BOND ORDERS (THRESH 0.050000)
---------------------------------
B(  0-C ,  1-C ) :   0.7599 B(  0-C ,  2-C ) :   0.1258 B(  0-C ,  3-C ) :   0.7599 
B(  0-C ,  4-F ) :   0.1103 B(  0-C ,  5-F ) :   0.1102 B(  0-C ,  8-F ) :   0.1103 
B(  0-C ,  9-F ) :   0.1103 B(  0-C , 10-F ) :   1.3519 B(  0-C , 11-F ) :   1.3524 
B(  1-C ,  2-C ) :   0.7599 B(  1-C ,  3-C ) :   0.1259 B(  1-C ,  6-F ) :   0.1103 
B(  1-C ,  7-F ) :   0.1103 B(  1-C ,  8-F ) :   1.3524 B(  1-C ,  9-F ) :   1.3519 
B(  1-C , 10-F ) :   0.1103 B(  1-C , 11-F ) :   0.1102 B(  2-C ,  3-C ) :   0.7599 
B(  2-C ,  4-F ) :   0.1103 B(  2-C ,  5-F ) :   0.1103 B(  2-C ,  6-F ) :   1.3523 
B(  2-C ,  7-F ) :   1.3519 B(  2-C ,  8-F ) :   0.1102 B(  2-C ,  9-F ) :   0.1103 
B(  3-C ,  4-F ) :   1.3519 B(  3-C ,  5-F ) :   1.3524 B(  3-C ,  6-F ) :   0.1102 
B(  3-C ,  7-F ) :   0.1103 B(  3-C , 10-F ) :   0.1103 B(  3-C , 11-F ) :   0.1103 
B(  4-F ,  5-F ) :   0.2352 B(  6-F ,  7-F ) :   0.2352 B(  8-F ,  9-F ) :   0.2352 
B( 10-F , 11-F ) :   0.2352 

------------------------------------------
LOEWDIN REDUCED ORBITAL POPULATIONS PER MO
-------------------------------------------
THRESHOLD FOR PRINTING IS 0.1%%
                      0         1         2         3         4         5   
                 -24.54250 -24.54250 -24.54250 -24.54249 -24.54246 -24.54245
                   2.00000   2.00000   2.00000   2.00000   2.00000   2.00000
                  --------  --------  --------  --------  --------  --------
 4 F  s               0.0       0.1      96.6       0.1       0.5       1.5
 5 F  s               0.8       1.2       0.3       0.0       0.2      16.5
 6 F  s               0.3       0.0       1.7       1.8      81.0      11.5
 7 F  s              97.5       0.4       0.0       0.0       0.2       0.1
 8 F  s               0.7       1.1       0.0       0.3       0.1       0.1
 9 F  s               0.0       0.0       0.0      96.3       0.6       2.5
10 F  s               0.6      97.0       0.0       0.0       0.2       0.0
11 F  s               0.0       0.2       1.4       1.4      17.2      67.8

                      6         7         8         9        10        11   
                 -24.54245 -24.54245 -10.24760 -10.24752 -10.24752 -10.24744
                   2.00000   2.00000   2.00000   2.00000   2.00000   2.00000
                  --------  --------  --------  --------  --------  --------
 0 C  s               0.0       0.0      19.7      42.4       6.6      30.1
 1 C  s               0.0       0.0      22.0       2.4      47.4      27.0
 2 C  s               0.0       0.0      30.6      45.0       3.7      19.4
 3 C  s               0.0       0.0      26.6       9.0      41.0      22.3
 4 F  s               1.0       0.3       0.0       0.0       0.0       0.0
 4 F  dyz             0.0       0.0       0.1       0.0       0.1       0.1
 5 F  s              58.5      22.5       0.0       0.0       0.0       0.0
 5 F  dyz             0.0       0.0       0.1       0.0       0.1       0.1
 6 F  s               2.0       1.6       0.0       0.0       0.0       0.0
 6 F  dxz             0.0       0.0       0.1       0.1       0.0       0.1
 7 F  s               0.1       1.6       0.0       0.0       0.0       0.0
 7 F  dxz             0.0       0.0       0.1       0.1       0.0       0.1
 8 F  s              29.8      67.9       0.0       0.0       0.0       0.0
 8 F  dyz             0.0       0.0       0.0       0.0       0.1       0.1
 9 F  s               0.0       0.6       0.0       0.0       0.0       0.0
 9 F  dyz             0.0       0.0       0.0       0.0       0.1       0.1
10 F  s               0.2       1.9       0.0       0.0       0.0       0.0
10 F  dxz             0.0       0.0       0.0       0.1       0.0       0.1
11 F  s               8.3       3.6       0.0       0.0       0.0       0.0
11 F  dxz             0.0       0.0       0.0       0.1       0.0       0.1

                     12        13        14        15        16        17   
                  -1.28616  -1.26862  -1.26862  -1.25550  -1.21804  -1.20806
                   2.00000   2.00000   2.00000   2.00000   2.00000   2.00000
                  --------  --------  --------  --------  --------  --------
 0 C  s               6.2       3.7       2.0       1.8       0.0       0.0
 0 C  pz              0.0       0.0       0.0       0.0       5.2       7.4
 0 C  px              0.5       3.0       1.0       3.2       0.0       0.0
 0 C  py              0.0       0.4       1.8       0.1       0.0       0.0
 0 C  dz2             0.1       0.2       0.1       0.2       0.0       0.0
 0 C  dxz             0.0       0.0       0.0       0.0       0.5       0.9
 1 C  s               6.2       2.0       3.7       1.8       0.0       0.0
 1 C  pz              0.0       0.0       0.0       0.0       5.2       1.0
 1 C  px              0.0       1.8       0.4       0.1       0.0       0.0
 1 C  py              0.5       1.0       3.0       3.2       0.0       0.0
 1 C  dz2             0.1       0.1       0.2       0.2       0.0       0.0
 1 C  dyz             0.0       0.0       0.0       0.0       0.5       0.1
 2 C  s               6.2       3.7       2.0       1.8       0.0       0.0
 2 C  pz              0.0       0.0       0.0       0.0       5.2       7.4
 2 C  px              0.5       3.0       1.0       3.2       0.0       0.0
 2 C  py              0.0       0.4       1.8       0.1       0.0       0.0
 2 C  dz2             0.1       0.2       0.1       0.2       0.0       0.0
 2 C  dxz             0.0       0.0       0.0       0.0       0.5       0.9
 3 C  s               6.2       2.0       3.7       1.8       0.0       0.0
 3 C  pz              0.0       0.0       0.0       0.0       5.2       1.0
 3 C  px              0.0       1.8       0.4       0.1       0.0       0.0
 3 C  py              0.5       1.0       3.0       3.2       0.0       0.0
 3 C  dz2             0.1       0.1       0.2       0.2       0.0       0.0
 3 C  dyz             0.0       0.0       0.0       0.0       0.5       0.1
 4 F  s               8.3       6.1      11.4       9.2       9.4       2.3
 4 F  pz              0.4       0.3       0.5       0.4       0.1       0.0
 4 F  py              0.2       0.1       0.2       0.1       0.1       0.0
 4 F  dz2             0.1       0.1       0.1       0.1       0.0       0.0
 5 F  s               8.3       6.1      11.4       9.2       9.4       2.3
 5 F  pz              0.4       0.3       0.5       0.4       0.1       0.0
 5 F  py              0.2       0.1       0.2       0.1       0.1       0.0
 5 F  dz2             0.1       0.1       0.1       0.1       0.0       0.0
 6 F  s               8.3      11.4       6.1       9.2       9.4      17.5
 6 F  pz              0.4       0.5       0.3       0.4       0.1       0.2
 6 F  px              0.2       0.2       0.1       0.1       0.1       0.1
 6 F  dz2             0.1       0.1       0.1       0.1       0.0       0.1
 7 F  s               8.3      11.4       6.1       9.2       9.4      17.5
 7 F  pz              0.4       0.5       0.3       0.4       0.1       0.2
 7 F  px              0.2       0.2       0.1       0.1       0.1       0.1
 7 F  dz2             0.1       0.1       0.1       0.1       0.0       0.1
 8 F  s               8.3       6.1      11.4       9.2       9.4       2.3
 8 F  pz              0.4       0.3       0.5       0.4       0.1       0.0
 8 F  py              0.2       0.1       0.2       0.1       0.1       0.0
 8 F  dz2             0.1       0.1       0.1       0.1       0.0       0.0
 9 F  s               8.3       6.1      11.4       9.2       9.4       2.3
 9 F  pz              0.4       0.3       0.5       0.4       0.1       0.0
 9 F  py              0.2       0.1       0.2       0.1       0.1       0.0
 9 F  dz2             0.1       0.1       0.1       0.1       0.0       0.0
10 F  s               8.3      11.4       6.1       9.2       9.4      17.5
10 F  pz              0.4       0.5       0.3       0.4       0.1       0.2
10 F  px              0.2       0.2       0.1       0.1       0.1       0.1
10 F  dz2             0.1       0.1       0.1       0.1       0.0       0.1
11 F  s               8.3      11.4       6.1       9.2       9.4      17.5
11 F  pz              0.4       0.5       0.3       0.4       0.1       0.2
11 F  px              0.2       0.2       0.1       0.1       0.1       0.1
11 F  dz2             0.1       0.1       0.1       0.1       0.0       0.1

                     18        19        20        21        22        23   
                  -1.20805  -1.19943  -0.86796  -0.69356  -0.69354  -0.62531
                   2.00000   2.00000   2.00000   2.00000   2.00000   2.00000
                  --------  --------  --------  --------  --------  --------
 0 C  s               0.0       0.0       7.6       9.7       0.0       2.3
 0 C  pz              1.0       3.4       0.0       0.0       0.0       0.0
 0 C  px              0.0       0.0      10.0       0.3       0.3       1.5
 0 C  py              0.0       0.0       0.3       0.1       7.4       0.0
 0 C  dz2             0.0       0.0       0.2       0.0       0.0       0.0
 0 C  dxz             0.1       0.6       0.0       0.0       0.0       0.0
 0 C  dxy             0.0       0.0       0.0       0.0       0.3       0.0
 1 C  s               0.0       0.0       7.6       0.0       9.7       2.3
 1 C  pz              7.4       3.4       0.0       0.0       0.0       0.0
 1 C  px              0.0       0.0       0.3       7.4       0.1       0.0
 1 C  py              0.0       0.0      10.0       0.3       0.3       1.5
 1 C  dz2             0.0       0.0       0.2       0.0       0.0       0.0
 1 C  dyz             0.9       0.6       0.0       0.0       0.0       0.0
 1 C  dxy             0.0       0.0       0.0       0.3       0.0       0.0
 2 C  s               0.0       0.0       7.6       9.7       0.0       2.3
 2 C  pz              1.0       3.4       0.0       0.0       0.0       0.0
 2 C  px              0.0       0.0      10.0       0.3       0.3       1.5
 2 C  py              0.0       0.0       0.3       0.1       7.4       0.0
 2 C  dz2             0.0       0.0       0.2       0.0       0.0       0.0
 2 C  dxz             0.1       0.6       0.0       0.0       0.0       0.0
 2 C  dxy             0.0       0.0       0.0       0.0       0.3       0.0
 3 C  s               0.0       0.0       7.6       0.0       9.7       2.3
 3 C  pz              7.4       3.4       0.0       0.0       0.0       0.0
 3 C  px              0.0       0.0       0.3       7.4       0.1       0.0
 3 C  py              0.0       0.0      10.0       0.3       0.3       1.5
 3 C  dz2             0.0       0.0       0.2       0.0       0.0       0.0
 3 C  dyz             0.9       0.6       0.0       0.0       0.0       0.0
 3 C  dxy             0.0       0.0       0.0       0.3       0.0       0.0
 4 F  s              17.5      10.3       1.5       0.0       3.6       1.6
 4 F  pz              0.2       0.1       0.5       0.0       6.4       7.1
 4 F  px              0.0       0.0       0.0       0.6       0.2       0.0
 4 F  py              0.1       0.1       0.8       0.1       3.9       1.6
 4 F  dz2             0.1       0.0       0.0       0.0       0.1       0.2
 4 F  dxz             0.0       0.0       0.0       0.1       0.0       0.0
 4 F  dyz             0.0       0.0       0.4       0.0       0.6       0.1
 4 F  dxy             0.0       0.0       0.0       0.1       0.0       0.0
 5 F  s              17.5      10.3       1.5       0.0       3.7       1.6
 5 F  pz              0.2       0.1       0.5       0.0       6.3       7.0
 5 F  px              0.0       0.0       0.0       0.6       0.2       0.0
 5 F  py              0.1       0.1       0.8       0.1       4.0       1.6
 5 F  dz2             0.1       0.0       0.0       0.0       0.1       0.2
 5 F  dxz             0.0       0.0       0.0       0.1       0.0       0.0
 5 F  dyz             0.0       0.0       0.4       0.0       0.6       0.1
 5 F  dxy             0.0       0.0       0.0       0.1       0.0       0.0
 6 F  s               2.3      10.3       1.5       3.7       0.0       1.6
 6 F  pz              0.0       0.1       0.5       6.3       0.0       7.0
 6 F  px              0.0       0.1       0.8       4.0       0.1       1.6
 6 F  py              0.0       0.0       0.0       0.2       0.6       0.0
 6 F  dz2             0.0       0.0       0.0       0.1       0.0       0.2
 6 F  dxz             0.0       0.0       0.4       0.7       0.0       0.1
 6 F  dyz             0.0       0.0       0.0       0.0       0.1       0.0
 6 F  dxy             0.0       0.0       0.0       0.0       0.1       0.0
 7 F  s               2.3      10.3       1.5       3.6       0.0       1.6
 7 F  pz              0.0       0.1       0.5       6.4       0.0       7.1
 7 F  px              0.0       0.1       0.8       3.9       0.1       1.6
 7 F  py              0.0       0.0       0.0       0.2       0.6       0.0
 7 F  dz2             0.0       0.0       0.0       0.1       0.0       0.2
 7 F  dxz             0.0       0.0       0.4       0.6       0.0       0.1
 7 F  dyz             0.0       0.0       0.0       0.0       0.1       0.0
 7 F  dxy             0.0       0.0       0.0       0.0       0.1       0.0
 8 F  s              17.5      10.3       1.5       0.0       3.7       1.6
 8 F  pz              0.2       0.1       0.5       0.0       6.3       7.0
 8 F  px              0.0       0.0       0.0       0.6       0.2       0.0
 8 F  py              0.1       0.1       0.8       0.1       4.0       1.6
 8 F  dz2             0.1       0.0       0.0       0.0       0.1       0.2
 8 F  dxz             0.0       0.0       0.0       0.1       0.0       0.0
 8 F  dyz             0.0       0.0       0.4       0.0       0.6       0.1
 8 F  dxy             0.0       0.0       0.0       0.1       0.0       0.0
 9 F  s              17.5      10.3       1.5       0.0       3.6       1.6
 9 F  pz              0.2       0.1       0.5       0.0       6.4       7.1
 9 F  px              0.0       0.0       0.0       0.6       0.2       0.0
 9 F  py              0.1       0.1       0.8       0.1       3.9       1.6
 9 F  dz2             0.1       0.0       0.0       0.0       0.1       0.2
 9 F  dxz             0.0       0.0       0.0       0.1       0.0       0.0
 9 F  dyz             0.0       0.0       0.4       0.0       0.6       0.1
 9 F  dxy             0.0       0.0       0.0       0.1       0.0       0.0
10 F  s               2.3      10.3       1.5       3.6       0.0       1.6
10 F  pz              0.0       0.1       0.5       6.4       0.0       7.1
10 F  px              0.0       0.1       0.8       3.9       0.1       1.6
10 F  py              0.0       0.0       0.0       0.2       0.6       0.0
10 F  dz2             0.0       0.0       0.0       0.1       0.0       0.2
10 F  dxz             0.0       0.0       0.4       0.6       0.0       0.1
10 F  dyz             0.0       0.0       0.0       0.0       0.1       0.0
10 F  dxy             0.0       0.0       0.0       0.0       0.1       0.0
11 F  s               2.3      10.3       1.5       3.7       0.0       1.6
11 F  pz              0.0       0.1       0.5       6.3       0.0       7.0
11 F  px              0.0       0.1       0.8       4.0       0.1       1.6
11 F  py              0.0       0.0       0.0       0.2       0.6       0.0
11 F  dz2             0.0       0.0       0.0       0.1       0.0       0.2
11 F  dxz             0.0       0.0       0.4       0.6       0.0       0.1
11 F  dyz             0.0       0.0       0.0       0.0       0.1       0.0
11 F  dxy             0.0       0.0       0.0       0.0       0.1       0.0

                     24        25        26        27        28        29   
                  -0.60639  -0.59356  -0.58686  -0.55738  -0.55737  -0.54961
                   2.00000   2.00000   2.00000   2.00000   2.00000   2.00000
                  --------  --------  --------  --------  --------  --------
 0 C  s               0.3       0.0       0.0       0.0       0.0       0.3
 0 C  pz              0.0       5.9       0.0       8.6       0.2       0.0
 0 C  px              6.0       0.0       0.4       0.0       0.0       7.3
 0 C  py              0.2       0.0      12.2       0.0       0.0       0.3
 0 C  dxz             0.0       0.0       0.0       0.2       0.0       0.0
 0 C  dyz             0.0       0.0       0.0       0.0       0.1       0.0
 0 C  dx2y2           0.0       0.0       0.0       0.0       0.0       0.2
 1 C  s               0.3       0.0       0.0       0.0       0.0       0.0
 1 C  pz              0.0       5.9       0.0       0.2       8.6       0.0
 1 C  px              0.2       0.0      12.2       0.0       0.0       7.7
 1 C  py              6.0       0.0       0.4       0.0       0.0       0.3
 1 C  dxz             0.0       0.0       0.0       0.1       0.0       0.0
 1 C  dyz             0.0       0.0       0.0       0.0       0.2       0.0
 2 C  s               0.3       0.0       0.0       0.0       0.0       0.3
 2 C  pz              0.0       5.9       0.0       8.6       0.2       0.0
 2 C  px              6.0       0.0       0.4       0.0       0.0       7.3
 2 C  py              0.2       0.0      12.2       0.0       0.0       0.3
 2 C  dxz             0.0       0.0       0.0       0.2       0.0       0.0
 2 C  dyz             0.0       0.0       0.0       0.0       0.1       0.0
 2 C  dx2y2           0.0       0.0       0.0       0.0       0.0       0.2
 3 C  s               0.3       0.0       0.0       0.0       0.0       0.0
 3 C  pz              0.0       5.9       0.0       0.2       8.6       0.0
 3 C  px              0.2       0.0      12.2       0.0       0.0       7.7
 3 C  py              6.0       0.0       0.4       0.0       0.0       0.3
 3 C  dxz             0.0       0.0       0.0       0.1       0.0       0.0
 3 C  dyz             0.0       0.0       0.0       0.0       0.2       0.0
 4 F  s               1.0       1.2       0.0       0.0       1.7       0.0
 4 F  pz              7.7       2.5       0.0       0.2       7.2       0.0
 4 F  px              0.0       0.2       5.4       0.1       0.4       4.8
 4 F  py              0.2       5.4       0.2       0.4      10.5       0.2
 4 F  dz2             0.2       0.1       0.0       0.0       0.1       0.0
 4 F  dxz             0.0       0.0       0.3       0.0       0.0       0.2
 4 F  dxy             0.0       0.0       0.2       0.0       0.0       0.1
 5 F  s               1.0       1.2       0.0       0.0       1.6       0.0
 5 F  pz              7.7       2.5       0.0       0.2       6.4       0.0
 5 F  px              0.0       0.2       5.4       0.1       0.4       4.8
 5 F  py              0.2       5.5       0.2       0.4      10.8       0.2
 5 F  dz2             0.2       0.1       0.0       0.0       0.1       0.0
 5 F  dxz             0.0       0.0       0.3       0.0       0.0       0.2
 5 F  dxy             0.0       0.0       0.3       0.0       0.0       0.1
 6 F  s               1.0       1.2       0.0       1.6       0.0       0.4
 6 F  pz              7.7       2.5       0.0       6.4       0.2      10.5
 6 F  px              0.2       5.5       0.2      10.8       0.4       0.5
 6 F  py              0.0       0.2       5.4       0.4       0.1       0.0
 6 F  dz2             0.2       0.1       0.0       0.1       0.0       0.3
 6 F  dyz             0.0       0.0       0.3       0.0       0.0       0.0
 6 F  dxy             0.0       0.0       0.3       0.0       0.0       0.0
 7 F  s               1.0       1.2       0.0       1.7       0.0       0.3
 7 F  pz              7.7       2.5       0.0       7.2       0.2       9.8
 7 F  px              0.2       5.4       0.2      10.5       0.4       0.7
 7 F  py              0.0       0.2       5.4       0.4       0.1       0.0
 7 F  dz2             0.2       0.1       0.0       0.1       0.0       0.3
 7 F  dyz             0.0       0.0       0.3       0.0       0.0       0.0
 7 F  dxy             0.0       0.0       0.2       0.0       0.0       0.0
 8 F  s               1.0       1.2       0.0       0.0       1.6       0.0
 8 F  pz              7.7       2.5       0.0       0.2       6.4       0.0
 8 F  px              0.0       0.2       5.4       0.1       0.4       4.8
 8 F  py              0.2       5.5       0.2       0.4      10.8       0.2
 8 F  dz2             0.2       0.1       0.0       0.0       0.1       0.0
 8 F  dxz             0.0       0.0       0.3       0.0       0.0       0.2
 8 F  dxy             0.0       0.0       0.3       0.0       0.0       0.1
 9 F  s               1.0       1.2       0.0       0.0       1.7       0.0
 9 F  pz              7.7       2.5       0.0       0.2       7.2       0.0
 9 F  px              0.0       0.2       5.4       0.1       0.4       4.8
 9 F  py              0.2       5.4       0.2       0.4      10.5       0.2
 9 F  dz2             0.2       0.1       0.0       0.0       0.1       0.0
 9 F  dxz             0.0       0.0       0.3       0.0       0.0       0.2
 9 F  dxy             0.0       0.0       0.2       0.0       0.0       0.1
10 F  s               1.0       1.2       0.0       1.7       0.0       0.3
10 F  pz              7.7       2.5       0.0       7.2       0.2       9.8
10 F  px              0.2       5.4       0.2      10.5       0.4       0.7
10 F  py              0.0       0.2       5.4       0.4       0.1       0.0
10 F  dz2             0.2       0.1       0.0       0.1       0.0       0.3
10 F  dyz             0.0       0.0       0.3       0.0       0.0       0.0
10 F  dxy             0.0       0.0       0.2       0.0       0.0       0.0
11 F  s               1.0       1.2       0.0       1.6       0.0       0.4
11 F  pz              7.7       2.5       0.0       6.4       0.2      10.5
11 F  px              0.2       5.5       0.2      10.8       0.4       0.5
11 F  py              0.0       0.2       5.4       0.4       0.1       0.0
11 F  dz2             0.2       0.1       0.0       0.1       0.0       0.3
11 F  dyz             0.0       0.0       0.3       0.0       0.0       0.0
11 F  dxy             0.0       0.0       0.3       0.0       0.0       0.0

                     30        31        32        33        34        35   
                  -0.54958  -0.53397  -0.45656  -0.45655  -0.44831  -0.44380
                   2.00000   2.00000   2.00000   2.00000   2.00000   2.00000
                  --------  --------  --------  --------  --------  --------
 0 C  s               0.0       0.0       0.1       0.4       0.2       0.0
 0 C  pz              0.0       3.6       0.0       0.0       0.0       0.0
 0 C  px              0.3       0.0       0.3       0.6       0.4       0.0
 0 C  py              7.7       0.0       1.1       0.4       0.0       1.4
 0 C  dz2             0.0       0.0       0.1       0.6       0.5       0.0
 0 C  dxz             0.0       0.3       0.0       0.0       0.0       0.0
 0 C  dxy             0.0       0.0       0.3       0.1       0.0       0.3
 1 C  s               0.3       0.0       0.4       0.1       0.2       0.0
 1 C  pz              0.0       3.6       0.0       0.0       0.0       0.0
 1 C  px              0.3       0.0       0.4       1.1       0.0       1.4
 1 C  py              7.3       0.0       0.6       0.3       0.4       0.0
 1 C  dz2             0.0       0.0       0.6       0.1       0.5       0.0
 1 C  dyz             0.0       0.3       0.0       0.0       0.0       0.0
 1 C  dx2y2           0.2       0.0       0.0       0.1       0.1       0.0
 1 C  dxy             0.0       0.0       0.1       0.3       0.0       0.3
 2 C  s               0.0       0.0       0.1       0.4       0.2       0.0
 2 C  pz              0.0       3.6       0.0       0.0       0.0       0.0
 2 C  px              0.3       0.0       0.3       0.6       0.4       0.0
 2 C  py              7.7       0.0       1.1       0.4       0.0       1.4
 2 C  dz2             0.0       0.0       0.1       0.6       0.5       0.0
 2 C  dxz             0.0       0.3       0.0       0.0       0.0       0.0
 2 C  dxy             0.0       0.0       0.3       0.1       0.0       0.3
 3 C  s               0.3       0.0       0.4       0.1       0.2       0.0
 3 C  pz              0.0       3.6       0.0       0.0       0.0       0.0
 3 C  px              0.3       0.0       0.4       1.1       0.0       1.4
 3 C  py              7.3       0.0       0.6       0.3       0.4       0.0
 3 C  dz2             0.0       0.0       0.6       0.1       0.5       0.0
 3 C  dyz             0.0       0.3       0.0       0.0       0.0       0.0
 3 C  dx2y2           0.2       0.0       0.0       0.1       0.1       0.0
 3 C  dxy             0.0       0.0       0.1       0.3       0.0       0.3
 4 F  s               0.3       0.7       0.0       0.0       0.0       0.0
 4 F  pz              9.8       4.5       1.9       0.3       2.2       0.0
 4 F  px              0.0       0.2       2.7       6.6       0.3      14.8
 4 F  py              0.7       5.2       8.2       2.9       9.3       0.4
 4 F  dz2             0.3       0.0       0.0       0.0       0.0       0.0
 5 F  s               0.4       0.6       0.0       0.0       0.0       0.0
 5 F  pz             10.5       4.3       2.0       0.3       2.3       0.0
 5 F  px              0.0       0.2       2.7       6.8       0.3       7.6
 5 F  py              0.5       5.4       8.1       2.9       9.2       0.2
 5 F  dz2             0.3       0.0       0.0       0.0       0.0       0.0
 6 F  s               0.0       0.6       0.0       0.0       0.0       0.0
 6 F  pz              0.0       4.3       0.3       2.0       2.3       0.0
 6 F  px              0.2       5.4       2.9       8.1       9.2       0.2
 6 F  py              4.8       0.2       6.8       2.8       0.3       7.6
 6 F  dyz             0.2       0.0       0.1       0.0       0.0       0.1
 6 F  dxy             0.1       0.0       0.0       0.0       0.0       0.0
 7 F  s               0.0       0.7       0.0       0.0       0.0       0.0
 7 F  pz              0.0       4.5       0.3       1.9       2.2       0.0
 7 F  px              0.2       5.2       2.9       8.2       9.3       0.4
 7 F  py              4.8       0.2       6.6       2.7       0.3      14.8
 7 F  dyz             0.2       0.0       0.1       0.0       0.0       0.1
 7 F  dxy             0.1       0.0       0.0       0.0       0.0       0.0
 8 F  s               0.4       0.6       0.0       0.0       0.0       0.0
 8 F  pz             10.5       4.3       2.0       0.3       2.3       0.0
 8 F  px              0.0       0.2       2.8       6.8       0.3       7.6
 8 F  py              0.5       5.4       8.1       2.9       9.2       0.2
 8 F  dz2             0.3       0.0       0.0       0.0       0.0       0.0
 9 F  s               0.3       0.7       0.0       0.0       0.0       0.0
 9 F  pz              9.8       4.5       1.9       0.3       2.2       0.0
 9 F  px              0.0       0.2       2.7       6.6       0.3      14.8
 9 F  py              0.7       5.2       8.2       2.9       9.3       0.4
 9 F  dz2             0.3       0.0       0.0       0.0       0.0       0.0
10 F  s               0.0       0.7       0.0       0.0       0.0       0.0
10 F  pz              0.0       4.5       0.3       1.9       2.2       0.0
10 F  px              0.2       5.2       2.9       8.2       9.4       0.4
10 F  py              4.8       0.2       6.6       2.7       0.3      14.8
10 F  dyz             0.2       0.0       0.1       0.0       0.0       0.1
10 F  dxy             0.1       0.0       0.0       0.0       0.0       0.0
11 F  s               0.0       0.6       0.0       0.0       0.0       0.0
11 F  pz              0.0       4.3       0.3       2.0       2.3       0.0
11 F  px              0.2       5.4       2.9       8.1       9.2       0.2
11 F  py              4.8       0.2       6.8       2.7       0.3       7.6
11 F  dyz             0.2       0.0       0.1       0.0       0.0       0.1
11 F  dxy             0.1       0.0       0.0       0.0       0.0       0.0

                     36        37        38        39        40        41   
                  -0.44342  -0.44210  -0.42774  -0.42773  -0.41901  -0.40409
                   2.00000   2.00000   2.00000   2.00000   2.00000   2.00000
                  --------  --------  --------  --------  --------  --------
 0 C  s               0.0       0.3       0.0       0.0       0.0       0.0
 0 C  pz              0.0       0.0       0.3       0.3       1.2       0.0
 0 C  px              0.0       1.4       0.0       0.0       0.0       0.0
 0 C  dz2             0.0       0.7       0.0       0.0       0.0       0.0
 0 C  dxz             0.0       0.0       0.0       0.1       0.4       0.0
 0 C  dyz             0.4       0.0       0.3       0.2       0.0       0.3
 0 C  dx2y2           0.0       0.1       0.0       0.0       0.0       0.0
 1 C  s               0.0       0.3       0.0       0.0       0.0       0.0
 1 C  pz              0.0       0.0       0.3       0.3       1.2       0.0
 1 C  py              0.0       1.4       0.0       0.0       0.0       0.0
 1 C  dz2             0.0       0.7       0.0       0.0       0.0       0.0
 1 C  dxz             0.4       0.0       0.2       0.3       0.0       0.3
 1 C  dyz             0.0       0.0       0.1       0.0       0.4       0.0
 1 C  dx2y2           0.0       0.1       0.0       0.0       0.0       0.0
 2 C  s               0.0       0.3       0.0       0.0       0.0       0.0
 2 C  pz              0.0       0.0       0.3       0.3       1.2       0.0
 2 C  px              0.0       1.4       0.0       0.0       0.0       0.0
 2 C  dz2             0.0       0.7       0.0       0.0       0.0       0.0
 2 C  dxz             0.0       0.0       0.0       0.1       0.4       0.0
 2 C  dyz             0.4       0.0       0.3       0.2       0.0       0.3
[...]
 2 C  dz2             1.7       0.1       1.8       0.0       0.0       0.0
 2 C  dxz             0.0       0.0       0.0       1.9       0.0       0.0
 2 C  dx2y2           0.4       0.0       0.0       0.0       0.0       0.0
 2 C  dxy             0.0       0.5       0.0       0.0       0.0       0.0
 3 C  s               0.1       2.1       1.6       0.0      24.8       0.0
 3 C  pz              0.0       0.0       0.0       4.1       0.0       0.0
 3 C  px              0.3       0.2       0.1       0.0       0.0       0.0
 3 C  py              0.2       3.1       3.4       0.0       0.0       0.0
 3 C  dz2             0.1       1.7       1.8       0.0       0.0       0.0
 3 C  dyz             0.0       0.0       0.0       1.9       0.0       0.0
 3 C  dx2y2           0.0       0.4       0.0       0.0       0.0       0.0
 3 C  dxy             0.5       0.0       0.0       0.0       0.0       0.0
 4 F  s               0.4      12.8       6.5       4.1       0.0       0.0
 4 F  pz              0.0       1.2       0.8       1.7       0.0       0.0
 4 F  py              0.0       1.0       0.4       1.9       0.0       0.0
 4 F  dz2             0.0       0.5       0.3       0.1       0.0       0.0
 4 F  dyz             0.0       0.6       0.6       1.3       0.0       0.0
 4 F  dx2y2           0.0       0.2       0.2       0.2       0.0       0.0
 5 F  s               0.6      17.1       6.6       4.1       0.0       0.0
 5 F  pz              0.1       2.0       0.8       1.6       0.0       0.0
 5 F  py              0.1       1.8       0.4       2.0       0.0       0.0
 5 F  dz2             0.0       0.7       0.3       0.1       0.0       0.0
 5 F  dyz             0.1       1.3       0.6       1.4       0.0       0.0
 5 F  dx2y2           0.0       0.3       0.2       0.2       0.0       0.0
 6 F  s              17.1       0.6       6.6       4.1       0.0       0.1
 6 F  pz              2.0       0.1       0.8       1.6       0.0       0.0
 6 F  px              1.8       0.1       0.4       2.0       0.0       0.0
 6 F  dz2             0.7       0.0       0.3       0.1       0.0       0.0
 6 F  dxz             1.3       0.1       0.6       1.4       0.0       0.0
 6 F  dx2y2           0.3       0.0       0.2       0.2       0.0       0.0
 7 F  s              12.9       0.4       6.5       4.1       0.0       0.1
 7 F  pz              1.2       0.0       0.8       1.7       0.0       0.0
 7 F  px              1.0       0.0       0.4       1.9       0.0       0.0
 7 F  dz2             0.5       0.0       0.3       0.1       0.0       0.0
 7 F  dxz             0.6       0.0       0.6       1.3       0.0       0.0
 7 F  dx2y2           0.2       0.0       0.2       0.2       0.0       0.0
 8 F  s               0.6      17.1       6.6       4.1       0.0       0.0
 8 F  pz              0.1       2.0       0.8       1.6       0.0       0.0
 8 F  py              0.1       1.8       0.4       2.0       0.0       0.0
 8 F  dz2             0.0       0.7       0.3       0.1       0.0       0.0
 8 F  dyz             0.1       1.3       0.6       1.4       0.0       0.0
 8 F  dx2y2           0.0       0.3       0.2       0.2       0.0       0.0
 9 F  s               0.4      12.8       6.5       4.1       0.0       0.0
 9 F  pz              0.0       1.2       0.8       1.7       0.0       0.0
 9 F  py              0.0       1.0       0.4       1.9       0.0       0.0
 9 F  dz2             0.0       0.5       0.3       0.1       0.0       0.0
 9 F  dyz             0.0       0.6       0.6       1.3       0.0       0.0
 9 F  dx2y2           0.0       0.2       0.2       0.2       0.0       0.0
10 F  s              12.9       0.4       6.5       4.1       0.0       0.1
10 F  pz              1.2       0.0       0.8       1.7       0.0       0.0
10 F  px              1.0       0.0       0.4       1.9       0.0       0.0
10 F  dz2             0.5       0.0       0.3       0.1       0.0       0.0
10 F  dxz             0.6       0.0       0.6       1.3       0.0       0.0
10 F  dx2y2           0.2       0.0       0.2       0.2       0.0       0.0
11 F  s              17.1       0.6       6.6       4.1       0.0       0.1
11 F  pz              2.0       0.1       0.8       1.6       0.0       0.0
11 F  px              1.8       0.1       0.4       2.0       0.0       0.0
11 F  dz2             0.7       0.0       0.3       0.1       0.0       0.0
11 F  dxz             1.3       0.1       0.6       1.4       0.0       0.0
11 F  dx2y2           0.3       0.0       0.2       0.2       0.0       0.0

                    258       259       260       261       262       263   
                  22.22561  22.56264  56.92874  57.04661  57.27312  57.27315
                   0.00000   0.00000   0.00000   0.00000   0.00000   0.00000
                  --------  --------  --------  --------  --------  --------
 0 C  s               0.0      24.9       0.0       0.0       0.0       0.0
 1 C  s              49.6      24.9       0.0       0.0       0.0       0.0
 2 C  s               0.0      24.9       0.0       0.0       0.0       0.0
 3 C  s              49.6      24.9       0.0       0.0       0.0       0.0
 4 F  s               0.1       0.0      12.5      12.5      12.8      12.5
 5 F  s               0.1       0.0      12.5      12.5      12.5      12.2
 6 F  s               0.0       0.0      12.5      12.5      12.2      12.5
 7 F  s               0.0       0.0      12.5      12.5      12.5      12.8
 8 F  s               0.1       0.0      12.5      12.5      12.5      12.2
 9 F  s               0.1       0.0      12.5      12.5      12.8      12.5
10 F  s               0.0       0.0      12.5      12.5      12.5      12.8
11 F  s               0.0       0.0      12.5      12.5      12.2      12.5

                    264       265       266       267   
                  57.41728  57.41731  57.52654  57.59352
                   0.00000   0.00000   0.00000   0.00000
                  --------  --------  --------  --------
 0 C  s               0.1       0.0       0.0       0.1
 1 C  s               0.0       0.1       0.0       0.1
 2 C  s               0.1       0.0       0.0       0.1
 3 C  s               0.0       0.1       0.0       0.1
 4 F  s               0.9      23.7      12.5      12.4
 5 F  s               1.0      24.2      12.5      12.4
 6 F  s              24.3       1.0      12.5      12.4
 7 F  s              23.7       1.0      12.5      12.4
 8 F  s               1.0      24.2      12.5      12.5
 9 F  s               1.0      23.7      12.5      12.4
10 F  s              23.7       1.0      12.5      12.4
11 F  s              24.2       1.0      12.5      12.5


                      *****************************
                      * MAYER POPULATION ANALYSIS *
                      *****************************

  NA   - Mulliken gross atomic population
  ZA   - Total nuclear charge
  QA   - Mulliken gross atomic charge
  VA   - Mayer's total valence
  BVA  - Mayer's bonded valence
  FA   - Mayer's free valence

  ATOM       NA         ZA         QA         VA         BVA        FA
  0 C      5.6353     6.0000     0.3647     3.9963     3.9963    -0.0000
  1 C      5.6351     6.0000     0.3649     3.9962     3.9962    -0.0000
  2 C      5.6353     6.0000     0.3647     3.9962     3.9962     0.0000
  3 C      5.6351     6.0000     0.3649     3.9962     3.9962     0.0000
  4 F      9.1825     9.0000    -0.1825     1.0512     1.0512    -0.0000
  5 F      9.1823     9.0000    -0.1823     1.0519     1.0519    -0.0000
  6 F      9.1823     9.0000    -0.1823     1.0520     1.0520    -0.0000
  7 F      9.1825     9.0000    -0.1825     1.0513     1.0513    -0.0000
  8 F      9.1824     9.0000    -0.1824     1.0519     1.0519    -0.0000
  9 F      9.1825     9.0000    -0.1825     1.0512     1.0512    -0.0000
 10 F      9.1825     9.0000    -0.1825     1.0513     1.0513     0.0000
 11 F      9.1823     9.0000    -0.1823     1.0520     1.0520     0.0000

  Mayer bond orders larger than 0.100000
B(  0-C ,  1-C ) :   0.9480 B(  0-C ,  3-C ) :   0.9480 B(  0-C , 10-F ) :   0.9697 
B(  0-C , 11-F ) :   0.9688 B(  1-C ,  2-C ) :   0.9479 B(  1-C ,  8-F ) :   0.9688 
B(  1-C ,  9-F ) :   0.9696 B(  2-C ,  3-C ) :   0.9479 B(  2-C ,  6-F ) :   0.9688 
B(  2-C ,  7-F ) :   0.9696 B(  3-C ,  4-F ) :   0.9697 B(  3-C ,  5-F ) :   0.9688 


-------
TIMINGS
-------

Total SCF time: 0 days 0 hours 0 min 48 sec 

Total time                  ....      48.367 sec
Sum of individual times     ....      46.005 sec  ( 95.1%)

SCF preparation             ....       0.539 sec  (  1.1%)
Fock matrix formation       ....      42.809 sec  ( 88.5%)
  Startup                   ....       0.274 sec  (  0.6% of F)
  Split-RI-J                ....       7.215 sec  ( 16.9% of F)
  XC integration            ....      28.802 sec  ( 67.3% of F)
    XC Preparation          ....       0.000 sec  (  0.0% of XC)
    Basis function eval.    ....       3.372 sec  ( 11.7% of XC)
    Density eval.           ....       8.345 sec  ( 29.0% of XC)
    XC-Functional eval.     ....       2.030 sec  (  7.0% of XC)
    XC-Potential eval.      ....       9.571 sec  ( 33.2% of XC)
  CPCM terms                ....       5.862 sec  ( 13.7% of F)
Diagonalization             ....       0.000 sec  (  0.0%)
Density matrix formation    ....       0.300 sec  (  0.6%)
Total Energy calculation    ....       0.057 sec  (  0.1%)
Population analysis         ....       0.137 sec  (  0.3%)
Orbital Transformation      ....       0.076 sec  (  0.2%)
Orbital Orthonormalization  ....       0.000 sec  (  0.0%)
DIIS solution               ....       1.975 sec  (  4.1%)
  MO trafo                  ....       0.000 sec  (  0.0 % of DIIS)
  Orb grad                  ....       0.000 sec  (  0.0 % of DIIS)
  Energy W gradient         ....       0.000 sec  (  0.0 % of DIIS)
  DIIS error                ....       0.025 sec  (  1.2 % of DIIS)
  DIIS work                 ....       1.884 sec  ( 95.4 % of DIIS)
  Form Q                    ....       0.000 sec  (  0.0 % of DIIS)
  Form QpQm                 ....       0.000 sec  (  0.0 % of DIIS)
  Exp/Cayley                ....       0.000 sec  (  0.0 % of DIIS)
  Orb update                ....       0.000 sec  (  0.0 % of DIIS)
  Wake-sleep                ....       0.031 sec  (  1.6 % of DIIS)
SOSCF solution              ....       0.111 sec  (  0.2%)
  MO trafo                  ....       0.065 sec  ( 58.0 % of SOSCF)
  Orb grad                  ....       0.001 sec  (  1.3 % of SOSCF)
  Rot update                ....       0.015 sec  ( 13.1 % of SOSCF)
  Step                      ....       0.031 sec  ( 27.5 % of SOSCF)
Finished LeanSCF after  48.5 sec

Maximum memory used throughout the entire LEANSCF-calculation: 28.4 MB


-------------------------------------------------------------------------------
                          DFT DISPERSION CORRECTION                            
                                                                               
                                DFTD4 V3.4.0                                   
-------------------------------------------------------------------------------
The R2SCAN3C composite method is recognized
Using three-body term ABC
Active option DFTDOPT                   ...         5   

-------------------------   ----------------
Dispersion correction           -0.003389322
-------------------------   ----------------

------------------   -----------------
gCP correction             0.015064815
------------------   -----------------

-------------------------   --------------------
FINAL SINGLE POINT ENERGY      -951.095299739142
-------------------------   --------------------


------------------------------------------------------------------------------
                              ORCA PROPERTY CALCULATIONS
------------------------------------------------------------------------------

GBWName                                 ... sp_solv.gbw
Number of atoms                         ...     12
Number of basis functions               ...    268
Max core memory                         ...   1024 MB

Electric properties:
Dipole moment                           ... YES
Quadrupole moment                       ...  NO
Static polarizability (Dipole/Dipole)   ...  NO
Static polarizability (Dipole/Quad.)    ...  NO
Static polarizability (Quad./Quad.)     ...  NO
Static polarizability (Velocity)        ...  NO

Atomic electric properties:
Dipole moment                           ...  NO
Quadrupole moment                       ...  NO
Static polarizability                   ...  NO

Choice of electric origin               ... Center of mass
Position of electric origin             ...     0.000000     0.000000    -0.000000

General magnetic properties:
Magnetizability                         ...  NO

EPR properties:
g-Tensor (aka g-matrix)                 ...  NO
Zero-Field splitting spin-orbit         ...  NO
Zero-field splitting spin-spin          ...  NO
Hyperfine couplings                     ...  NO (   0 nuclei)
Quadrupole couplings                    ...  NO (   0 nuclei)
Contact density                         ...  NO (   0 nuclei)

NMR properties:
Chemical shifts                         ...  NO (   0 nuclei)
Spin-rotation constants                 ...  NO (   0 nuclei)
Spin-spin couplings                     ...  NO (   0 nuclei,    0 pairs)

Choice of magnetic origin               ... GIAO
Position of magnetic origin             ...     0.000000     0.000000     0.000000

Properties with geometric perturbations:
SCF Hessian                             ...  NO
IR spectrum                             ...  NO
VCD spectrum                            ...  NO
X-ray spectroscopy properties:
SCF XES/XAS/RIXS spectra                ...  NO


-------------
DIPOLE MOMENT
-------------

Method             : SCF
Type of density    : Electron Density
Multiplicity       :   1
Irrep              :   0
Energy             :  -951.1069752317832808 Eh
Relativity type    : 
Basis              : AO
                                X                 Y                 Z
Electronic contribution:      0.000074086       0.000041317      -0.000007874
Nuclear contribution   :      0.000072707       0.000023333      -0.000004761
                        -----------------------------------------
Total Dipole Moment    :      0.000146793       0.000064650      -0.000012635
                        -----------------------------------------
Magnitude (a.u.)       :      0.000160896
Magnitude (Debye)      :      0.000408965



--------------------
Rotational spectrum 
--------------------
 
Rotational constants in cm-1:             0.035198             0.035194             0.027995 
Rotational constants in MHz :          1055.219953          1055.094233           839.277575 

Dipole components along the rotational axes: 
x,y,z [a.u.] :     0.000147    -0.000065    -0.000013 
x,y,z [Debye]:     0.000373    -0.000164    -0.000032 

 

Dipole moment calculation done in   0.0 sec 

Maximum memory used throughout the entire PROP-calculation: 18.9 MB

--------------------------------
SUGGESTED CITATIONS FOR THIS RUN
--------------------------------

Below you find a list of papers that are relevant to this ORCA run
We neither can nor want to force you to cite these papers, but we appreciate if you do
You receive ORCA, which is the product of decades of hard work by many enthusiastic individuals, for free
The only thing we kindly ask in return is that you cite our papers,
We deeply appreciate it, if you show your appreciation for ORCA by not just citing the generic ORCA reference.

Please note that relegating all ORCA citations to the supporting information does *not* help us.
SI sections are not indexed - citations you put there will not count into any citation statistics
But we need these citations in order to attract the funding resources that allow us to do what we are doing

Therefore, if you are a happy ORCA user, please consider citing a few of the papers listed below in the main body of your paper

In addition to the list printed below, the program has created the file sp_solv.bibtex that contains the list in bibtex format
You can import this file easily into all common literature databanks and citation aid programs


List of essential papers. We consider these as the minimum necessary citations

  1. Neese,F.
     Software update: the ORCA program system, version 5.0
     WIRES Comput. Molec. Sci., 2022 12(1)e1606
     doi.org/10.1002/wcms.1606
  2. Grimme,S.; Hansen,A.; Ehlert,S.; Mewes,J.
     r2SCAN-3c: A 'Swiss army knife' composite electronic-structure method
     J. Chem. Phys., 2021 154 064103
     doi.org/10.1063/5.0040021

List of papers to cite with high priority. The work reported in these papers was absolutely
necessary for this run to complete.
Our perspective: the developers of density functionals and basis sets usually get cited in chemistry papers
Good! But without the algorithms to do something with them, the functionals or basis sets would not do anything.
Hence, in our opinion, the algorithm design and method developments papers are equally worthy of getting cited

  1. Neese,F.
     An improvement of the resolution of the identity approximation for the formation of the Coulomb matrix
     J. Comp. Chem., 2003 24(14)1740-1747
     doi.org/10.1002/jcc.10318
  2. Garcia-Rates,M.; Neese,F.
     Effect of the Solute Cavity on the Solvation Energy and its Derivatives within the Framework of the Gaussian Charge Scheme
     J. Comput. Chem., 2020 41 922-939
     doi.org/10.1002/jcc.26139
  3. Neese,F.
     The SHARK Integral Generation and Digestion System
     J. Comp. Chem., 2022  1-16
     doi.org/10.1002/jcc.26942
  4. Lehtola,S.; Steigemann,C.; Oliveira,M.; Marques,M.
     Recent developments in Libxc - A comprehensive library of functionals for density functional theory
     Software X, 2018 7 
     doi.org/10.1016/j.softx.2017.11.002
  5. Caldeweyher,E.; Bannwarth,C.; Grimme,S.
     Extension of the D3 dispersion coefficient model
     J. Chem. Phys., 2017 147 034112-XXXX
     doi.org/10.1063/1.4993215
  6. Caldeweyher,E.; Ehlert,S.; Hansen,A.; Neugebauer,H.; Spicher,S.; Bannwarth,C.; Grimme,S.
     A generally applicable atomic-charge dependent London dispersion correction
     J. Chem. Phys., 2019 150 154122-XXXX
     doi.org/10.1063/1.5090222
  7. Caldeweyher,E.; Mewes,J.; Ehlert,S.; Grimme,S.
     Extension and evaluation of the D4 London-dispersion model for periodic systems
     Phys. Chem. Chem. Phys., 2020 22(16)8499-8512
     doi.org/10.1039/D0CP00502A

List of suggested additional citations. These are papers that are important in the 'surrounding' of 
of this run, or papers that preceded the highly important papers. If you like your results we are grateful for a citation.

  1. Neese,F.
     The ORCA program system
     WIRES Comput. Molec. Sci., 2012 2(1)73-78
     doi.org/10.1002/wcms.81
  2. Neese,F.
     Software update: the ORCA program system, version 4.0
     WIRES Comput. Molec. Sci., 2018 8(1)1-6
     doi.org/10.1002/wcms.1327
  3. Neese,F.; Wennmohs,F.; Becker,U.; Riplinger,C.
     The ORCA quantum chemistry program package
     J. Chem. Phys., 2020 152 Art. No. L224108
     doi.org/10.1063/5.0004608

List of optional additional citations

  1. Neese,F.
     Approximate second-order SCF convergence for spin unrestricted wavefunctions
     Chem. Phys. Lett., 2000 325(1-3)93-98
     doi.org/10.1016/s0009-2614(00)00662-x

Timings for individual modules:

Sum of individual times          ...       50.865 sec (=   0.848 min)
Startup calculation              ...        1.452 sec (=   0.024 min)   2.9 %
SCF iterations                   ...       49.290 sec (=   0.821 min)  96.9 %
Property calculations            ...        0.123 sec (=   0.002 min)   0.2 %
                             ****ORCA TERMINATED NORMALLY****
TOTAL RUN TIME: 0 days 0 hours 0 minutes 52 seconds 21 msec
