20
 energy: -36.151876492430 gnorm: 0.049101205779 xtb: 6.7.1 (edcfbbe)
C            0.61737226197947        1.70550835635135       -0.01979718893395
C            1.38445233681407        0.40853765736535       -0.24578325984227
H            1.61088258371650        0.29166360259520       -1.31542003612011
C            0.55181549588034       -0.78136251741145        0.20976284086680
H            0.40609249691456       -0.72078586931185        1.29947439095824
C           -0.79610484656417       -0.74280119957216       -0.49090046751636
H           -0.62989324346447       -0.85416801589792       -1.57214808601584
C           -1.48801780881422        0.61253210142643       -0.28156583878300
H           -2.37644809297982        0.68240978937873       -0.92096125668566
O           -0.64290045170647        1.67348807658782       -0.71742886325230
O           -1.84284476785544        0.73579167759734        1.08053268383382
O           -1.59296700833873       -1.82082462280276        0.00118741658428
O            1.18612955411622       -2.02091388510670       -0.13010539001494
O            2.59483831878134        0.40106190696200        0.52293136513713
H            1.16893338267817        2.55546024087236       -0.42937927842230
H            0.46243702319438        1.86687474980407        1.05493892010129
H           -2.46751894280566        1.47013557129194        1.15486599122939
H           -2.37227168578709       -1.88995268180624       -0.56619957745098
H            2.03755803582548       -2.03480821174390        0.32720289537702
H            3.21973870529881        0.99909266491724        0.09193386639595
20
 energy: -36.154023692053 gnorm: 0.025542914146 xtb: 6.7.1 (edcfbbe)
C            0.61018088996558        1.70282140121786       -0.02376397147526
C            1.39303880094268        0.40872060252148       -0.24401199462664
H            1.61789721774988        0.28670625741070       -1.31229556715690
C            0.55030684408904       -0.78491126502003        0.20727195531657
H            0.39028305753200       -0.73432286196696        1.29301612378336
C           -0.80060357502787       -0.75103727450614       -0.49806339583932
H           -0.62304273022096       -0.87559007050377       -1.57583840422331
C           -1.48019057173956        0.61318210296536       -0.27672008046880
H           -2.36630705808727        0.69261812108393       -0.91846823618369
O           -0.64345144755729        1.66890149391171       -0.70823041840861
O           -1.82899318618279        0.74413930247754        1.07413698644862
O           -1.59692240022476       -1.81045921627818       -0.00309888460137
O            1.19021176759492       -2.00545005284985       -0.13208745739181
O            2.59493714051113        0.39634694208683        0.51704045358274
H            1.13819564609041        2.56374918735679       -0.43723853982146
H            0.44731279145793        1.85035487951367        1.05007517641758
H           -2.44718975361403        1.48428671427384        1.16699233729038
H           -2.38207921068016       -1.89332984040988       -0.56205097458870
H            2.04083335076407       -2.02232852014527        0.32980395387044
H            3.22686577352030        1.00254148835721        0.10667206552240
20
 energy: -36.154727990961 gnorm: 0.004410693769 xtb: 6.7.1 (edcfbbe)
C            0.60412398812364        1.70507093093825       -0.02831066284131
C            1.39661326993990        0.41082681938016       -0.24327911788470
H            1.61612748774344        0.28227843691659       -1.31231639345079
C            0.55119960743793       -0.79174144833531        0.20465050662576
H            0.37826088579832       -0.74136173193267        1.28763574808771
C           -0.80576853525413       -0.75659107095230       -0.50180450251065
H           -0.62238949278594       -0.88511364562567       -1.57800675731182
C           -1.47514366994618        0.61774646613447       -0.28039865630663
H           -2.36026984792081        0.70002792799349       -0.92681191071270
O           -0.63973331412980        1.66495156567681       -0.70949775638456
O           -1.81387481019136        0.74153700923800        1.06185569124578
O           -1.59727710700449       -1.79942711450955       -0.00141868653426
O            1.19342841830401       -1.99652453694064       -0.13430231380802
O            2.58575963200003        0.39038934244789        0.51400415325294
H            1.12025472853949        2.57085336732425       -0.44288727460402
H            0.44078516450677        1.84090980699052        1.04695881621944
H           -2.42129901770330        1.48900562665184        1.18443840361285
H           -2.39116671978100       -1.89887892976476       -0.54726062411624
H            2.04618330517637       -2.01734166375576        0.32608944569442
H            3.22546937403034        1.01032223362121        0.13380301917301
20
 energy: -36.154783710530 gnorm: 0.002465702842 xtb: 6.7.1 (edcfbbe)
C            0.60380897488724        1.70541855719772       -0.02988151787034
C            1.39738517131725        0.41125144448219       -0.24358868888342
H            1.61502262344634        0.28327677302393       -1.31393844772588
C            0.55110903733503       -0.79293116626677        0.20280245121829
H            0.37718100616753       -0.73986434425712        1.28613214044584
C           -0.80735323549358       -0.75858554125483       -0.50328542291775
H           -0.62510001786865       -0.88594468808730       -1.58039557390420
C           -1.47490589448215        0.61827536447489       -0.28233124984046
H           -2.36004230846665        0.69930220657001       -0.93010341048987
O           -0.63818158865552        1.66373095858864       -0.71442737917279
O           -1.81262022647558        0.73941372520591        1.05952008969284
O           -1.59746394814512       -1.79868341960482        0.00160261375080
O            1.19296210687123       -1.99639392687770       -0.13686569030563
O            2.58342109777919        0.38865838096922        0.51552288924532
H            1.12323699122082        2.56983470957967       -0.44264516631989
H            0.44164089218703        1.84195142911233        1.04591726678016
H           -2.41388086617976        1.49024764073753        1.18926009132130
H           -2.39445738866722       -1.90152473988888       -0.53884716648989
H            2.04728715218031       -2.01776563127062        0.32057830689513
H            3.22223376792550        1.01727165906284        0.14811499201667
20
 energy: -36.154812746085 gnorm: 0.001949402854 xtb: 6.7.1 (edcfbbe)
C            0.60404250694278        1.70494448627596       -0.03139306958508
C            1.39776495761190        0.41074992349116       -0.24441819567937
H            1.61520396468816        0.28469798928882       -1.31585409040102
C            0.55138352773195       -0.79476090961833        0.20025537242655
H            0.37793609048740       -0.73975718305524        1.28419333193936
C           -0.80848445720091       -0.76040566612379       -0.50404322394496
H           -0.62891033977815       -0.88720118830153       -1.58209730594787
C           -1.47545984773603        0.61829471076711       -0.28441066977982
H           -2.36083118870364        0.69904515152497       -0.93281140006286
O           -0.63673528295905        1.66247026768789       -0.71930768460141
O           -1.81246914224321        0.73878082426490        1.05725794507155
O           -1.59675359214406       -1.79907124618588        0.00531113899670
O            1.19235943071800       -1.99822876386187       -0.14028082309068
O            2.58136431195161        0.38601573897459        0.51675578806488
H            1.12730533471906        2.56843203380737       -0.44202233837361
H            0.44107041623667        1.84317567638858        1.04443465500756
H           -2.40497753389339        1.49481474803391        1.19224631158800
H           -2.39695628979483       -1.90387642927957       -0.52938610686964
H            2.04878339555250       -2.01953537093284        0.31301636355786
H            3.21564708469649        1.02835459835064        0.16569512913008
20
 energy: -36.154829697093 gnorm: 0.001991294617 xtb: 6.7.1 (edcfbbe)
C            0.60456612854955        1.70326986767345       -0.03257188174894
C            1.39819973609399        0.40935199415347       -0.24538262268717
H            1.61710258575324        0.28523164845337       -1.31719688109842
C            0.55159872855057       -0.79637257480219        0.19770324347928
H            0.37993499021003       -0.74193578725488        1.28224451945231
C           -0.80934197872307       -0.76199923305798       -0.50404945356016
H           -0.63284709809285       -0.88977320171348       -1.58264311532297
C           -1.47583845182521        0.61762614685413       -0.28580028938833
H           -2.36103358894435        0.69868988228851       -0.93457065777995
O           -0.63554496211295        1.66104732714751       -0.72250510311085
O           -1.81290425666576        0.73975362805984        1.05539847099493
O           -1.59599149546178       -1.80003976735375        0.00897746071666
O            1.19135891965667       -2.00017098313004       -0.14460606174319
O            2.58065200401492        0.38285826300384        0.51705094998827
H            1.12972458796165        2.56663968995697       -0.44205797135161
H            0.43949116123310        1.84243937899228        1.04293577599776
H           -2.39509752687827        1.50285361445340        1.19244707138528
H           -2.39919908969648       -1.90478589417923       -0.52066146180818
H            2.05009053583277       -2.02084983357363        0.30416402015528
H            3.20636241742746        1.04310522552523        0.18426511487624
20
 energy: -36.154843691146 gnorm: 0.001169030592 xtb: 6.7.1 (edcfbbe)
C            0.60508877535918        1.70133037065229       -0.03322507677920
C            1.39839328396254        0.40769339835494       -0.24605399585220
H            1.61958430599486        0.28384623396539       -1.31739276523702
C            0.55197483257579       -0.79768230117263        0.19605424441145
H            0.38232778958066       -0.74616733199860        1.28091311670390
C           -0.80968960126521       -0.76278378695526       -0.50329216300810
H           -0.63504425040819       -0.89308351831421       -1.58173167658369
C           -1.47579622710445        0.61661028393149       -0.28632960560003
H           -2.36053286275188        0.69808210659221       -0.93535997276435
O           -0.63496024811164        1.65965253816031       -0.72311982562595
O           -1.81352570884791        0.74140414115247        1.05434615675874
O           -1.59591615420354       -1.80047614080761        0.01188020832959
O            1.19090713532505       -2.00162416085153       -0.14888802198038
O            2.58108825877084        0.38060508890027        0.51666977592321
H            1.12913851714946        2.56530523067327       -0.44300448052942
H            0.43843206401849        1.83975983628240        1.04197247999554
H           -2.38696026809503        1.51150150938067        1.18969980591379
H           -2.40129290524952       -1.90276285208503       -0.51489600618479
H            2.05156888213505       -2.02123451568680        0.29621050405031
H            3.19649772804868        1.05696326132280        0.19868842550482
20
 energy: -36.154847568356 gnorm: 0.000470816376 xtb: 6.7.1 (edcfbbe)
C            0.60537543292543        1.70031621353005       -0.03359885557910
C            1.39868462890542        0.40682600829780       -0.24647390627723
H            1.62088436406691        0.28242622503591       -1.31748848963794
C            0.55240422823770       -0.79858031071698        0.19537380081169
H            0.38384111375194       -0.74912819164174        1.28035854533468
C           -0.80998963134191       -0.76326456971861       -0.50271365280451
H           -0.63586644008594       -0.89547361414956       -1.58093386948598
C           -1.47531618673414        0.61615490635328       -0.28670878712668
H           -2.35993536081851        0.69733508466918       -0.93597341312575
O           -0.63470888453338        1.65886676614098       -0.72311549426928
O           -1.81384459735642        0.74201072045729        1.05380815221867
O           -1.59669697154377       -1.80014375866099        0.01392620839707
O            1.19114619443946       -2.00209649256009       -0.15183838771623
O            2.58151249294432        0.37990488826519        0.51660715414524
H            1.12839416936454        2.56445624274547       -0.44374905396662
H            0.43898699180787        1.83786386332801        1.04169002403115
H           -2.38357420792834        1.51537001065173        1.18707062924071
H           -2.40364448895551       -1.89980894058249       -0.51129301149300
H            2.05286140241820       -2.02111049044584        0.29132279792255
H            3.19076909731938        1.06501483049824        0.20687073682677
20
 energy: -36.154848074134 gnorm: 0.000193283225 xtb: 6.7.1 (edcfbbe)
C            0.60550875315429        1.70019387226775       -0.03377215002686
C            1.39878686935838        0.40666280733965       -0.24657032011182
H            1.62125838757506        0.28216394764997       -1.31748761124609
C            0.55275556103698       -0.79908212622557        0.19510395004432
H            0.38455284807774       -0.75007966326622        1.28012066155843
C           -0.80994586751838       -0.76341089365697       -0.50258738075166
H           -0.63602574873218       -0.89635975568689       -1.58073998731483
C           -1.47505670724990        0.61612384887664       -0.28695108399280
H           -2.35977866251910        0.69709545256015       -0.93620030654868
O           -0.63463942887501        1.65868005161517       -0.72309457240067
O           -1.81394428122285        0.74216268673557        1.05369802574446
O           -1.59692138667214       -1.79980287475840        0.01467427184325
O            1.19141171335411       -2.00240340758387       -0.15287677479094
O            2.58155490340677        0.37981488458368        0.51665995827854
H            1.12844684644600        2.56432177702881       -0.44400447203029
H            0.43924096574801        1.83767777996199        1.04155815745971
H           -2.38380440353824        1.51558726082390        1.18613154249655
H           -2.40466871250914       -1.89804315329993       -0.50966247186979
H            2.05331378394258       -2.02148245491714        0.28990719671081
H            3.18923791362024        1.06711935144852        0.20923449439459
20
 energy: -36.154848281921 gnorm: 0.000124078205 xtb: 6.7.1 (edcfbbe)
C            0.60563000262387        1.70003828653715       -0.03387122725529
C            1.39905287795042        0.40659504778817       -0.24669539751993
H            1.62164481566040        0.28220905931000       -1.31762039094176
C            0.55295956087557       -0.79927263198422        0.19483441410934
H            0.38497558485499       -0.75053724314466        1.27989605111784
C           -0.80996029862875       -0.76357530687617       -0.50255119442846
H           -0.63625329025980       -0.89693734675636       -1.58069262679301
C           -1.47476274387829        0.61617362673398       -0.28721689616357
H           -2.35952285029089        0.69697809497420       -0.93644392040430
O           -0.63448805715336        1.65861563177421       -0.72320634606252
O           -1.81390417510526        0.74219700446262        1.05353440996916
O           -1.59702277413788       -1.79962937138494        0.01521879715375
O            1.19155636055750       -2.00234994990534       -0.15370250345912
O            2.58167435137946        0.37969742294551        0.51669921908156
H            1.12863329815390        2.56409793859822       -0.44414468236182
H            0.43940153273093        1.83759284935716        1.04147784984282
H           -2.38469420786022        1.51504274747573        1.18560355047516
H           -2.40568712134877       -1.89667309881716       -0.50797206435078
H            2.05345239892878       -2.02175511702524        0.28907290461475
H            3.18859808183060        1.06843174743397        0.21092118082240
20
 energy: -36.154848231257 gnorm: 0.000333233818 xtb: 6.7.1 (edcfbbe)
C            0.60576302488714        1.69988080715236       -0.03397641863606
C            1.39933006307401        0.40652614311700       -0.24682586310541
H            1.62205345490236        0.28226129067860       -1.31775884486842
C            0.55318274002873       -0.79947899129109        0.19454192120684
H            0.38543293837989       -0.75102528977071        1.27965232661146
C           -0.80996681003499       -0.76374529014667       -0.50251553687449
H           -0.63649281544348       -0.89754877707179       -1.58064697630388
C           -1.47445406127509        0.61622529832759       -0.28750234290367
H           -2.35925103705239        0.69685603155073       -0.93670883726920
O           -0.63432246760547        1.65854566045348       -0.72333015832926
O           -1.81386332498751        0.74223724539530        1.05335633302396
O           -1.59711492677366       -1.79944253973136        0.01579981606826
O            1.19171271720183       -2.00230517961041       -0.15458420211647
O            2.58179566176902        0.37957189072087        0.51674242293794
H            1.12883539945863        2.56387296656350       -0.44428806586882
H            0.43956709680015        1.83750653302494        1.04139079987982
H           -2.38566432751423        1.51444916913556        1.18504126970710
H           -2.40677175838755       -1.89519931442652       -0.50614545201886
H            2.05359976652020       -2.02206486077971        0.28818652716905
H            3.18791201293561        1.06981659820517        0.21271240913634
20
 energy: -36.154848400775 gnorm: 0.000177076102 xtb: 6.7.1 (edcfbbe)
C            0.60576411941304        1.70010406638604       -0.03388135676274
C            1.39916772496711        0.40666388030899       -0.24670852306579
H            1.62183481030028        0.28238801687565       -1.31764234283085
C            0.55316972527029       -0.79935590771584        0.19463258287697
H            0.38530830479225       -0.75069779669358        1.27972911104308
C           -0.80981283152943       -0.76356871382217       -0.50258511279466
H           -0.63628535963013       -0.89715160814371       -1.58074904153988
C           -1.47461114035234        0.61622176542094       -0.28740544888186
H           -2.35934900475511        0.69696107825441       -0.93663726041145
O           -0.63433819567168        1.65861759654648       -0.72330608264303
O           -1.81390019841258        0.74225118579844        1.05343136681508
O           -1.59685324292438       -1.79949036124611        0.01549671409234
O            1.19170972842412       -2.00239286774189       -0.15417134523350
O            2.58170830496066        0.37972722961442        0.51678234903024
H            1.12883740004655        2.56417866486649       -0.44409636747488
H            0.43945047026967        1.83768234946647        1.04145600638372
H           -2.38621817533132        1.51401553878361        1.18525168195468
H           -2.40633689061871       -1.89550276818604       -0.50660251210007
H            2.05345439054612       -2.02220367530175        0.28886786844778
H            3.18858340711881        1.06849171802599        0.21127884054106
20
 energy: -36.154848449115 gnorm: 0.000074747147 xtb: 6.7.1 (edcfbbe)
C            0.60577225650834        1.70012306415344       -0.03384477962178
C            1.39918510121152        0.40669254177981       -0.24671856892729
H            1.62184873318292        0.28248575592049       -1.31766017255671
C            0.55318635608879       -0.79929265363293        0.19458750275546
H            0.38530279766747       -0.75062232326405        1.27968335178265
C           -0.80977126107198       -0.76350877091628       -0.50261704621317
H           -0.63627481689060       -0.89703161121298       -1.58079996952594
C           -1.47468100847295        0.61622136465725       -0.28739366311320
H           -2.35933423473896        0.69705891769199       -0.93671345222036
O           -0.63427896520570        1.65863219804620       -0.72337153404332
O           -1.81387226246819        0.74230506006340        1.05336454634906
O           -1.59667410598117       -1.79954276173734        0.01541951542454
O            1.19173160298946       -2.00238737281077       -0.15411982939457
O            2.58172773606736        0.37967250839723        0.51676657780537
H            1.12881936497056        2.56426462567589       -0.44394282456633
H            0.43932542781203        1.83761422973683        1.04147323498776
H           -2.38660256718164        1.51374728164136        1.18530911486879
H           -2.40636054019741       -1.89544096220539       -0.50635120682250
H            2.05337588873225       -2.02228642550647        0.28910727279028
H            3.18885784386115        1.06823472501914        0.21096305768750
