10
 energy: -230.224336325932 gnorm: 0.001631680244 xtb: 6.7.1 (edcfbbe)
C           -0.68303592223130       -0.53649578366790        0.35191904020131
C            0.64744437019924       -0.50066400297402       -0.34880258894781
O            1.37012151365456        0.66779481292982        0.07710422149512
O           -1.49896070070511        0.54193311191740       -0.13834181462770
H           -0.53451170378756       -0.44513651289957        1.43756797720263
H           -1.15776333806778       -1.50672360106580        0.14685124631112
H            0.49364768324301       -0.48194641039309       -1.43666675628542
H            1.20142083396130       -1.41494999853917       -0.09179474707140
H            2.14949266188539        0.74831511697384       -0.48682841307744
H           -2.31490038657372        0.54606936588455        0.37710687366048
10
 energy: -230.224344315494 gnorm: 0.000651271413 xtb: 6.7.1 (edcfbbe)
C           -0.68314945868264       -0.53690391905004        0.35117295852541
C            0.64699375555962       -0.50034521899330       -0.34954174740370
O            1.36791082378261        0.67099973111478        0.07368674919130
O           -1.49913300286756        0.54322311630000       -0.13680758675574
H           -0.53531265977673       -0.44626886004979        1.43645979253311
H           -1.15790722711564       -1.50630416318779        0.14531560905074
H            0.49463723712102       -0.48446540549720       -1.43762439109582
H            1.20191579660980       -1.41278674053393       -0.08971758672372
H            2.15131917701386        0.74554982065596       -0.48446634212657
H           -2.31431938996290        0.54549771212576        0.37963754857981
10
 energy: -230.224354467482 gnorm: 0.000949905746 xtb: 6.7.1 (edcfbbe)
C           -0.68326068135709       -0.53708430244640        0.35010533187848
C            0.64581762543015       -0.49923692358774       -0.35123084771665
O            1.36214992076480        0.67860711762729        0.06516832724002
O           -1.50042595727049        0.54549461891254       -0.13385268508996
H           -0.53529189344844       -0.44951104713128        1.43525573585667
H           -1.15889347124842       -1.50489105926933        0.14057554987427
H            0.49479076031252       -0.49032482582555       -1.43958783903506
H            1.20483055685192       -1.40698408885155       -0.08487046976324
H            2.15759374880344        0.73779268187012       -0.47813646206804
H           -2.31435545756621        0.54433385549929        0.38468830341479
10
 energy: -230.224358094796 gnorm: 0.000941483613 xtb: 6.7.1 (edcfbbe)
C           -0.68348599852625       -0.53705818184255        0.34982533870067
C            0.64515626170601       -0.49790298865737       -0.35235826547848
O            1.35927626987885        0.68267641287217        0.06001852612801
O           -1.50102098488172        0.54596508131912       -0.13253037550216
H           -0.53498348722784       -0.45099231029382        1.43519273960545
H           -1.15901182501783       -1.50492177520585        0.13911550359125
H            0.49324988381733       -0.49285492522354       -1.44065674215402
H            1.20634034767035       -1.40363010007608       -0.08342192691018
H            2.16220570916497        0.73302018785623       -0.47331688097985
H           -2.31477097901087        0.54389461371884        0.38624702404950
10
 energy: -230.224358094796 gnorm: 0.000941483613 xtb: 6.7.1 (edcfbbe)
C           -0.68348599852625       -0.53705818184255        0.34982533870067
C            0.64515626170601       -0.49790298865737       -0.35235826547848
O            1.35927626987885        0.68267641287217        0.06001852612801
O           -1.50102098488172        0.54596508131912       -0.13253037550216
H           -0.53498348722784       -0.45099231029382        1.43519273960545
H           -1.15901182501783       -1.50492177520585        0.13911550359125
H            0.49324988381733       -0.49285492522354       -1.44065674215402
H            1.20634034767035       -1.40363010007608       -0.08342192691018
H            2.16220570916497        0.73302018785623       -0.47331688097985
H           -2.31477097901087        0.54389461371884        0.38624702404950
