      -----------------------------------------------------------      
     |                   =====================                   |     
     |                           x T B                           |     
     |                   =====================                   |     
     |                         S. Grimme                         |     
     |          Mulliken Center for Theoretical Chemistry        |     
     |                    University of Bonn                     |     
      -----------------------------------------------------------      

   * xtb version 6.7.1 (edcfbbe) compiled by 'albert@albert-system' on 2024-07-22

   xtb is free software: you can redistribute it and/or modify it under
   the terms of the GNU Lesser General Public License as published by
   the Free Software Foundation, either version 3 of the License, or
   (at your option) any later version.
   
   xtb is distributed in the hope that it will be useful,
   but WITHOUT ANY WARRANTY; without even the implied warranty of
   MERCHANTABILITY or FITNESS FOR A PARTICULAR PURPOSE.  See the
   GNU Lesser General Public License for more details.
   
   Cite this work as:
   * C. Bannwarth, E. Caldeweyher, S. Ehlert, A. Hansen, P. Pracht,
     J. Seibert, S. Spicher, S. Grimme, WIREs Comput. Mol. Sci., 2020, 11,
     e01493. DOI: 10.1002/wcms.1493
   
   for GFN2-xTB:
   * C. Bannwarth, S. Ehlert and S. Grimme., J. Chem. Theory Comput., 2019,
     15, 1652-1671. DOI: 10.1021/acs.jctc.8b01176
   for GFN1-xTB:
   * S. Grimme, C. Bannwarth, P. Shushkov, J. Chem. Theory Comput., 2017,
     13, 1989-2009. DOI: 10.1021/acs.jctc.7b00118
   for GFN0-xTB:
   * P. Pracht, E. Caldeweyher, S. Ehlert, S. Grimme, ChemRxiv, 2019, preprint.
     DOI: 10.26434/chemrxiv.8326202.v1
   for GFN-FF:
   * S. Spicher and S. Grimme, Angew. Chem. Int. Ed., 2020, 59, 15665-15673.
     DOI: 10.1002/anie.202004239
   
   for ALPB and GBSA implicit solvation:
   * S. Ehlert, M. Stahn, S. Spicher, S. Grimme, J. Chem. Theory Comput.,
     2021, 17, 4250-4261. DOI: 10.1021/acs.jctc.1c00471
   
   for ddCOSMO and CPCM-X implicit solvation:
   * M. Stahn, S. Ehlert, S. Grimme, J. Phys. Chem. A,
     2023, XX, XXXX-XXXX. DOI: 10.1021/acs.jpca.3c04382
   
   for DFT-D4:
   * E. Caldeweyher, C. Bannwarth and S. Grimme, J. Chem. Phys., 2017,
     147, 034112. DOI: 10.1063/1.4993215
   * E. Caldeweyher, S. Ehlert, A. Hansen, H. Neugebauer, S. Spicher,
     C. Bannwarth and S. Grimme, J. Chem. Phys., 2019, 150, 154122.
     DOI: 10.1063/1.5090222
   * E. Caldeweyher, J.-M. Mewes, S. Ehlert and S. Grimme, Phys. Chem. Chem. Phys.
     2020, 22, 8499-8512. DOI: 10.1039/D0CP00502A
   
   for sTDA-xTB:
   * S. Grimme and C. Bannwarth, J. Chem. Phys., 2016, 145, 054103.
     DOI: 10.1063/1.4959605
   
   in the mass-spec context:
   * V. Asgeirsson, C. Bauer and S. Grimme, Chem. Sci., 2017, 8, 4879.
     DOI: 10.1039/c7sc00601b
   * J. Koopman and S. Grimme, ACS Omega 2019, 4, 12, 15120-15133.
     DOI: 10.1021/acsomega.9b02011
   
   for metadynamics refer to:
   * S. Grimme, J. Chem. Theory Comput., 2019, 155, 2847-2862
     DOI: 10.1021/acs.jctc.9b00143
   
   for SPH calculations refer to:
   * S. Spicher and S. Grimme, J. Chem. Theory Comput., 2021, 17, 1701-1714
     DOI: 10.1021/acs.jctc.0c01306
   
   for ONIOM refer to:
   * C. Plett, A. Katbashev, S. Ehlert, S. Grimme, M. Bursch,
     Phys. Chem. Chem. Phys., 2023, 25, 17860-17868. DOI: 10.1039/D3CP02178E
   
   for DIPRO refer to:
   * J. Kohn, N. Gildemeister, S. Grimme, D. Fazzi, A. Hansen,
     J. Chem. Phys., 2023, just accepted.
   
   for PTB refer to:
   * S. Grimme, M. Mueller, A. Hansen, J. Chem. Phys., 2023, 158, 124111.
     DOI: 10.1063/5.0137838
   
   with help from (in alphabetical order)
   P. Atkinson, C. Bannwarth, F. Bohle, G. Brandenburg, E. Caldeweyher
   M. Checinski, S. Dohm, S. Ehlert, S. Ehrlich, I. Gerasimov, C. Hölzer
   A. Katbashev, J. Kohn, J. Koopman, C. Lavigne, S. Lehtola, F. März, M. Müller,
   F. Musil, H. Neugebauer, J. Pisarek, C. Plett, P. Pracht, F. Pultar,
   J. Seibert, P. Shushkov, S. Spicher, M. Stahn, M. Steiner, T. Strunk,
   J. Stückrath, T. Rose, and J. Unsleber
   
 * started run on 2025/04/10 at 12:23:56.161     
   ID    Z sym.   atoms
    1    6 C      1, 2, 7, 8, 10, 15, 16, 18, 19
    2    8 O      3, 6, 14, 17
    3   15 P      4, 12
    4   16 S      5, 9, 11, 13
    5    1 H      20-41

           -------------------------------------------------
          |                Calculation Setup                |
           -------------------------------------------------

          program call               : /srv/scratch/z5358697/.xtb/bin/xtb xtb_opt.coord --opt normal --orca -I xtb_opt-xcontrol-inp
          hostname                   : k163
          coordinate file            : xtb_opt.coord
          omp threads                :                    24

           -------------------------------------------------
          |                   Orca driver                   |
           -------------------------------------------------
orca executable           : /apps/z_install_tree/linux-rocky8-ivybridge/gcc-12.2.0/orca-6.0.0-srtngmq3qlimg2qxbl6avaaiffipurdx/bin/orca
orca input file           : xtb_opt.inp
orca input line           : 
orca parallel             : true
orca number of threads    : 24
                         * ORCA takes the control...
  ------------------------------------------------------------------------

                                 *****************
                                 * O   R   C   A *
                                 *****************

                                            #,                                       
                                            ###                                      
                                            ####                                     
                                            #####                                    
                                            ######                                   
                                           ########,                                 
                                     ,,################,,,,,                         
                               ,,#################################,,                 
                          ,,##########################################,,             
                       ,#########################################, ''#####,          
                    ,#############################################,,   '####,        
                  ,##################################################,,,,####,       
                ,###########''''           ''''###############################       
              ,#####''   ,,,,##########,,,,          '''####'''          '####       
            ,##' ,,,,###########################,,,                        '##       
           ' ,,###''''                  '''############,,,                           
         ,,##''                                '''############,,,,        ,,,,,,###''
      ,#''                                            '''#######################'''  
     '                                                          ''''####''''         
             ,#######,   #######,   ,#######,      ##                                
            ,#'     '#,  ##    ##  ,#'     '#,    #''#        ,####,   ,####,        
            ##       ##  ##   ,#'  ##            #'  '#       #'       #'  '#        
            ##       ##  #######   ##           ,######,      #####,   #    #        
            '#,     ,#'  ##    ##  '#,     ,#' ,#      #,     #,   #   #,  ,#        
             '#######'   ##     ##  '#######'  #'      '#     '####' # '####'        



                #########################################################
                #                        -***-                          #
                #          Department of theory and spectroscopy        #
                #                                                       #
                #                      Frank Neese                      #
                #                                                       #
                #     Directorship, Architecture, Infrastructure        #
                #                    SHARK, DRIVERS                     #
                #        Core code/Algorithms in most modules           #
                #                                                       #
                #        Max Planck Institute fuer Kohlenforschung      #
                #                Kaiser Wilhelm Platz 1                 #
                #                 D-45470 Muelheim/Ruhr                 #
                #                      Germany                          #
                #                                                       #
                #                  All rights reserved                  #
                #                        -***-                          #
                #########################################################


                         Program Version 6.0.0  -   RELEASE  -


 With contributions from (in alphabetic order):
   Daniel Aravena         : Magnetic Suceptibility
   Michael Atanasov       : Ab Initio Ligand Field Theory (pilot matlab implementation)
   Alexander A. Auer      : GIAO ZORA, VPT2 properties, NMR spectrum
   Ute Becker             : All parallelization in ORCA, NUMFREQ, NUMCALC
   Giovanni Bistoni       : ED, misc. LED, open-shell LED, HFLD
   Martin Brehm           : Molecular dynamics
   Dmytro Bykov           : pre 5.0 version of the SCF Hessian
   Marcos Casanova-Páez   : Triplet and SCS-CIS(D). UHF-(DLPNO)-IP/EA/STEOM-CCSD. UHF-CVS-IP/STEOM-CCSD
   Vijay G. Chilkuri      : MRCI spin determinant printing, contributions to CSF-ICE
   Pauline Colinet        : FMM embedding
   Dipayan Datta          : RHF DLPNO-CCSD density
   Achintya Kumar Dutta   : EOM-CC, STEOM-CC
   Nicolas Foglia         : Exact transition moments, OPA infrastructure, MCD improvements
   Dmitry Ganyushin       : Spin-Orbit,Spin-Spin,Magnetic field MRCI
   Miquel Garcia          : C-PCM and meta-GGA Hessian, CCSD/C-PCM, Gaussian charge scheme
   Tiago L. C. Gouveia    : GS-ROHF, GS-ROCIS
   Yang Guo               : DLPNO-NEVPT2, F12-NEVPT2, CIM, IAO-localization
   Andreas Hansen         : Spin unrestricted coupled pair/coupled cluster methods
   Ingolf Harden          : AUTO-CI MPn and infrastructure 
   Benjamin Helmich-Paris : MC-RPA, TRAH-(SCF,CASSCF), AVAS, COSX integrals, SCF dyn. polar.
   Lee Huntington         : MR-EOM, pCC
   Robert Izsak           : Overlap fitted RIJCOSX, COSX-SCS-MP3, EOM
   Riya Kayal             : Wick's Theorem for AUTO-CI, AUTO-CI UHF-CCSDT
   Emily Kempfer          : AUTO-CI, RHF CISDT and CCSDT
   Christian Kollmar      : KDIIS, OOCD, Brueckner-CCSD(T), CCSD density, CASPT2, CASPT2-K, improved NEVPT2
   Axel Koslowski         : Symmetry handling
   Simone Kossmann        : Meta GGA functionals, TD-DFT gradient, OOMP2, (MP2 Hessian; deprecated post 5.0)
   Lucas Lang             : DCDCAS
   Marvin Lechner         : AUTO-CI (C++ implementation), FIC-MRCC
   Spencer Leger          : CASSCF response
   Dagmar Lenk            : GEPOL surface, SMD, ORCA-2-JSON
   Dimitrios Liakos       : Extrapolation schemes; Compound Job, initial MDCI parallelization
   Dimitrios Manganas     : Further ROCIS development; embedding schemes. LFT, Crystal Embedding
   Dimitrios Pantazis     : SARC Basis sets
   Anastasios Papadopoulos: AUTO-CI, single reference methods and gradients
   Taras Petrenko         : pre 6.0 DFT Hessian and TD-DFT gradient, (ASA, deprecated), ECA, 1-Electron XAS/XES, NRVS
   Peter Pinski           : DLPNO-MP2, DLPNO-MP2 Gradient
   Christoph Reimann      : Effective Core Potentials
   Marius Retegan         : Local ZFS, SOC
   Christoph Riplinger    : Optimizer, TS searches, QM/MM, DLPNO-CCSD(T), (RO)-DLPNO pert. Triples
   Michael Roemelt        : Original ROCIS implementation
   Masaaki Saitow         : Open-shell DLPNO-CCSD energy and density
   Barbara Sandhoefer     : DKH picture change effects
   Kantharuban Sivalingam : CASSCF convergence/infrastructure, NEVPT2 and variants, FIC-MRCI
   Bernardo de Souza      : ESD, SOC TD-DFT
   Georgi Stoychev        : AutoAux, RI-MP2 NMR, DLPNO-MP2 response, X2C
   Van Anh Tran           : RI-MP2 g-tensors
   Willem Van den Heuvel  : Paramagnetic NMR
   Zikuan Wang            : NOTCH, Electric field optimization 
   Frank Wennmohs         : Technical directorship and infrastructure
   Hang Xu                : AUTO-CI-Response properties 


 We gratefully acknowledge several colleagues who have allowed us to
 interface, adapt or use parts of their codes:
   Stefan Grimme, W. Hujo, H. Kruse, P. Pracht,  : VdW corrections, initial TS optimization,
                  C. Bannwarth, S. Ehlert,         DFT functionals, gCP, sTDA/sTD-DF
                  L. Wittmann, M. Mueller
   Ed Valeev, F. Pavosevic, A. Kumar             : LibInt (2-el integral package), F12 methods
   Garnet Chan, S. Sharma, J. Yang, R. Olivares  : DMRG
   Ulf Ekstrom                                   : XCFun DFT Library
   Mihaly Kallay                                 : mrcc  (arbitrary order and MRCC methods)
   Frank Weinhold                                : gennbo (NPA and NBO analysis)
   Simon Mueller                                 : openCOSMO-RS
   Christopher J. Cramer and Donald G. Truhlar   : smd solvation model
   Lars Goerigk                                  : TD-DFT with DH, B97 family of functionals
   V. Asgeirsson, H. Jonsson                     : NEB implementation
   FAccTs GmbH                                   : IRC, NEB, NEB-TS, DLPNO-Multilevel, CI-OPT
                                                   MM, QMMM, 2- and 3-layer-ONIOM, Crystal-QMMM,
                                                   LR-CPCM, SF, NACMEs, symmetry and pop. for TD-DFT,
                                                   nearIR, NL-DFT gradient (VV10), updates on ESD,
                                                   ML-optimized integration grids, MBIS, APM,
                                                   GOAT, DOCKER, SOLVATOR, interface openCOSMO-RS
   S Lehtola, MJT Oliveira, MAL Marques          : LibXC Library
   Liviu Ungur et al                             : ANISO software


 Your calculation uses the libint2 library for the computation of 2-el integrals
 For citations please refer to: http://libint.valeyev.net

 Your ORCA version has been built with support for libXC version: 6.2.2
 For citations please refer to: https://libxc.gitlab.io

 This ORCA versions uses:
   CBLAS   interface :  Fast vector & matrix operations
   LAPACKE interface :  Fast linear algebra routines
   SCALAPACK package :  Parallel linear algebra routines
   Shared memory     :  Shared parallel matrices
   BLAS/LAPACK       :  OpenBLAS 0.3.27  USE64BITINT DYNAMIC_ARCH NO_AFFINITY SapphireRapids SINGLE_THREADED
        Core in use  :  SapphireRapids
   Copyright (c) 2011-2014, The OpenBLAS Project




***************************************
The coordinates will be read from file: xtb_opt.xyz
***************************************


Your calculation utilizes the geometrical counterpoise correction gCP
Please cite in your paper:
H.Kruse, S. Grimme J.Chem.Phys., 136, (2012), 154101 
   

Your calculation utilizes the atom-pairwise dispersion correction
based on EEQ partial charges (D4)


Your calculation utilizes the SMD solvation module
Please cite in your paper:
A.V. Marenich, C.J. Cramer, D.G. Truhlar J. Phys. Chem. B, 113, (2009), 6378 

================================================================================

----- Orbital basis set information -----
Your calculation utilizes the basis: def2-mTZVPP
   Stefan Grimme, Andreas Hansen, Sebastian Ehlert, and Jan-Michael Mewes 
   J. Chem. Phys. 154, 064103 (2021). DOI: 10.1063/5.0040021

----- AuxJ basis set information -----
Your calculation utilizes the auxiliary basis: def2/J
   F. Weigend, Phys. Chem. Chem. Phys. 8, 1057 (2006).

================================================================================
                                        WARNINGS
                       Please study these warnings very carefully!
================================================================================

WARNING: Old DensityContainer found on disk!
         Will remove this file - 
         If you want to keep old densities, please start your calculation with a different basename. 

Using LibXC functional ID 497 : Re-regularized SCAN exchange by Furness et al
[ 1]  J. W. Furness, A. D. Kaplan, J. Ning, J. P. Perdew, and J. Sun.,  J. Phys. Chem. Lett. 11, 8208-8215 (2020)
[ 2]  J. W. Furness, A. D. Kaplan, J. Ning, J. P. Perdew, and J. Sun.,  J. Phys. Chem. Lett. 11, 9248-9248 (2020)
Using LibXC functional ID 498 : Re-regularized SCAN correlation by Furness et al
[ 1]  J. W. Furness, A. D. Kaplan, J. Ning, J. P. Perdew, and J. Sun.,  J. Phys. Chem. Lett. 11, 8208-8215 (2020)
[ 2]  J. W. Furness, A. D. Kaplan, J. Ning, J. P. Perdew, and J. Sun.,  J. Phys. Chem. Lett. 11, 9248-9248 (2020)
Using LibXC functional ID 497 : Re-regularized SCAN exchange by Furness et al
[ 1]  J. W. Furness, A. D. Kaplan, J. Ning, J. P. Perdew, and J. Sun.,  J. Phys. Chem. Lett. 11, 8208-8215 (2020)
[ 2]  J. W. Furness, A. D. Kaplan, J. Ning, J. P. Perdew, and J. Sun.,  J. Phys. Chem. Lett. 11, 9248-9248 (2020)
Using LibXC functional ID 498 : Re-regularized SCAN correlation by Furness et al
[ 1]  J. W. Furness, A. D. Kaplan, J. Ning, J. P. Perdew, and J. Sun.,  J. Phys. Chem. Lett. 11, 8208-8215 (2020)
[ 2]  J. W. Furness, A. D. Kaplan, J. Ning, J. P. Perdew, and J. Sun.,  J. Phys. Chem. Lett. 11, 9248-9248 (2020)

================================================================================
                                       INPUT FILE
================================================================================
NAME = xtb_opt.inp
|  1> ! r2scan-3c def2/J RI DEFGRID2 scfconv7 ENGRAD tightSCF miniprint
|  2> %cpcm
|  3>     smd true
|  4>     smdsolvent "water"
|  5> end
|  6> * xyzfile 0 1 xtb_opt.xyz
|  7> 
|  8>                          ****END OF INPUT****
================================================================================

                     *******************************
                     * Energy+Gradient Calculation *
                     *******************************

---------------------------------
CARTESIAN COORDINATES (ANGSTROEM)
---------------------------------
  C      5.108344   -1.423509   -1.141320
  C      4.969853   -0.135199   -0.370475
  O      3.684073   -0.054500    0.337125
  P      2.304368    0.358025   -0.384317
  S      2.432096    1.518568   -1.943011
  O      1.456634    0.909689    0.865884
  C      1.678612    2.291540    1.330407
  C      0.903416    2.467116    2.609641
  S      1.436418   -1.546942   -0.683110
  C     -0.039503   -1.139702   -1.719129
  S     -1.642388   -1.622133   -0.970459
  P     -2.231539    0.152045    0.044878
  S     -1.932935    1.815724   -0.918167
  O     -1.555289    0.188748    1.492418
  C     -1.182933   -0.984160    2.300654
  C     -2.378750   -1.726684    2.840436
  O     -3.753714   -0.233319    0.401036
  C     -4.811377   -0.200874   -0.621599
  C     -6.118245    0.038020    0.088086
  H      4.958691   -2.289032   -0.489155
  H      4.399656   -1.475271   -1.972859
  H      6.121211   -1.474914   -1.554109
  H      5.062351    0.743157   -1.016124
  H      5.706196   -0.066187    0.432975
  H      2.752790    2.436687    1.486919
  H      1.331616    2.970019    0.545614
  H      1.068132    3.484206    2.979572
  H     -0.168252    2.331264    2.441703
  H      1.242250    1.763091    3.374906
  H      0.040840   -1.718808   -2.641998
  H     -0.047145   -0.072201   -1.967491
  H     -0.539098   -1.625464    1.691514
  H     -0.585546   -0.547130    3.103493
  H     -2.934173   -2.239819    2.050996
  H     -2.020740   -2.481163    3.548702
  H     -3.054739   -1.050260    3.371357
  H     -4.586176    0.599052   -1.333920
  H     -4.798815   -1.163744   -1.141224
  H     -6.114384    1.005330    0.598330
  H     -6.925826    0.039325   -0.650715
  H     -6.319376   -0.751808    0.817544

----------------------------
CARTESIAN COORDINATES (A.U.)
----------------------------
  NO LB      ZA    FRAG     MASS         X           Y           Z
   0 C     6.0000    0    12.011    9.653371   -2.690042   -2.156782
   1 C     6.0000    0    12.011    9.391661   -0.255490   -0.700095
   2 O     8.0000    0    15.999    6.961889   -0.102991    0.637074
   3 P    15.0000    0    30.974    4.354624    0.676569   -0.726253
   4 S    16.0000    0    32.060    4.595996    2.869678   -3.671759
   5 O     8.0000    0    15.999    2.752639    1.719063    1.636284
   6 C     6.0000    0    12.011    3.172117    4.330383    2.514105
   7 C     6.0000    0    12.011    1.707209    4.662174    4.931508
   8 S    16.0000    0    32.060    2.714436   -2.923296   -1.290892
   9 C     6.0000    0    12.011   -0.074650   -2.153725   -3.248684
  10 S    16.0000    0    32.060   -3.103663   -3.065387   -1.833901
  11 P    15.0000    0    30.974   -4.216998    0.287323    0.084807
  12 S    16.0000    0    32.060   -3.652718    3.431221   -1.735084
  13 O     8.0000    0    15.999   -2.939071    0.356682    2.820261
  14 C     6.0000    0    12.011   -2.235419   -1.859793    4.347606
  15 C     6.0000    0    12.011   -4.495186   -3.262959    5.367646
  16 O     8.0000    0    15.999   -7.093492   -0.440909    0.757847
  17 C     6.0000    0    12.011   -9.092185   -0.379596   -1.174653
  18 C     6.0000    0    12.011  -11.561808    0.071848    0.166458
  19 H     1.0000    0     1.008    9.370567   -4.325644   -0.924370
  20 H     1.0000    0     1.008    8.314144   -2.787859   -3.728163
  21 H     1.0000    0     1.008   11.567413   -2.787183   -2.936840
  22 H     1.0000    0     1.008    9.566456    1.404363   -1.920196
  23 H     1.0000    0     1.008   10.783147   -0.125076    0.818204
  24 H     1.0000    0     1.008    5.202019    4.604671    2.809870
  25 H     1.0000    0     1.008    2.516389    5.612522    1.031061
  26 H     1.0000    0     1.008    2.018477    6.584195    5.630576
  27 H     1.0000    0     1.008   -0.317949    4.405451    4.614151
  28 H     1.0000    0     1.008    2.347513    3.331759    6.377649
  29 H     1.0000    0     1.008    0.077176   -3.248077   -4.992653
  30 H     1.0000    0     1.008   -0.089091   -0.136440   -3.718019
  31 H     1.0000    0     1.008   -1.018748   -3.071682    3.196498
  32 H     1.0000    0     1.008   -1.106521   -1.033925    5.864752
  33 H     1.0000    0     1.008   -5.544784   -4.232644    3.875820
  34 H     1.0000    0     1.008   -3.818645   -4.688719    6.706076
  35 H     1.0000    0     1.008   -5.772621   -1.984704    6.370942
  36 H     1.0000    0     1.008   -8.666616    1.132044   -2.520744
  37 H     1.0000    0     1.008   -9.068446   -2.199157   -2.156601
  38 H     1.0000    0     1.008  -11.554511    1.899798    1.130679
  39 H     1.0000    0     1.008  -13.087914    0.074313   -1.229673
  40 H     1.0000    0     1.008  -11.941889   -1.420711    1.544935

------------------------------------------------------------------------------
                   ___                                                        
                  /   \      - P O W E R E D   B Y -                         
                 /     \                                                     
                 |  |  |   _    _      __       _____    __    __             
                 |  |  |  | |  | |    /  \     |  _  \  |  |  /  |          
                  \  \/   | |  | |   /    \    | | | |  |  | /  /          
                 / \  \   | |__| |  /  /\  \   | |_| |  |  |/  /          
                |  |  |   |  __  | /  /__\  \  |    /   |      \           
                |  |  |   | |  | | |   __   |  |    \   |  |\   \          
                \     /   | |  | | |  |  |  |  | |\  \  |  | \   \       
                 \___/    |_|  |_| |__|  |__|  |_| \__\ |__|  \__/        
                                                                              
                      - O R C A' S   B I G   F R I E N D -                    
                                      &                                       
                       - I N T E G R A L  F E E D E R -                       
                                                                              
 v1 FN, 2020, v2 2021, v3 2022-2024                                           
------------------------------------------------------------------------------


----------------------
SHARK INTEGRAL PACKAGE
----------------------

Number of atoms                             ...     41
Number of basis functions                   ...    539
Number of shells                            ...    253
Maximum angular momentum                    ...      2
Integral batch strategy                     ... SHARK/LIBINT Hybrid
RI-J (if used) integral strategy            ... SPLIT-RIJ (Revised 2003 algorithm where possible)
Printlevel                                  ...      1
Contraction scheme used                     ... SEGMENTED contraction
Prescreening option                         ... SCHWARTZ
   Thresh                                   ... 3.000e-11
   Tcut                                     ... 1.000e-12
   Tpresel                                  ... 1.000e-12 
Coulomb Range Separation                    ... NOT USED
Exchange Range Separation                   ... NOT USED
Multipole approximations                    ... NOT USED
Finite Nucleus Model                        ... NOT USED
CABS basis                                  ... NOT available
Auxiliary Coulomb fitting basis             ... AVAILABLE
   # of basis functions in Aux-J            ...   1185
   # of shells in Aux-J                     ...    407
   Maximum angular momentum in Aux-J        ...      4
Auxiliary J/K fitting basis                 ... NOT available
Auxiliary Correlation fitting basis         ... NOT available
Auxiliary 'external' fitting basis          ... NOT available

Checking pre-screening integrals            ... done (  0.0 sec) Dimension = 253
Check shell pair data                       ... done (  0.0 sec)
Shell pair information
Shell pair cut-off parameter TPreSel        ...   1.0e-12
Total number of shell pairs                 ...     32131
Shell pairs after pre-screening             ...     21559
Total number of primitive shell pairs       ...    124843
Primitive shell pairs kept                  ...     50691
          la=0 lb=0:   6094 shell pairs
          la=1 lb=0:   7835 shell pairs
          la=1 lb=1:   2571 shell pairs
          la=2 lb=0:   2857 shell pairs
          la=2 lb=1:   1844 shell pairs
          la=2 lb=2:    358 shell pairs

Calculating one electron integrals          ... done (  0.1 sec)
Calculating RI/J V-Matrix + Cholesky decomp.... done (  0.1 sec)
Calculating Nuclear repulsion               ... done (  0.0 sec) ENN=   2718.472372373985 Eh

Diagonalization of the overlap matrix:
Smallest eigenvalue                        ... 3.200e-04
Time for diagonalization                   ...    0.031 sec
Threshold for overlap eigenvalues          ... 1.000e-07
Number of eigenvalues below threshold      ... 0
Time for construction of square roots      ...    0.059 sec
Total time needed                          ...    0.100 sec

-------------------
DFT GRID GENERATION
-------------------

General Integration Accuracy     IntAcc      ... 4.388
Radial Grid Type                 RadialGrid  ... OptM3 with GC (2021)
Angular Grid (max. ang.)         AngularGrid ... 4 (Lebedev-302)
Angular grid pruning method      GridPruning ... 4 (adaptive)
Weight generation scheme         WeightScheme... mBecke (2022)
Basis function cutoff            BFCut       ... 1.0000e-11
Integration weight cutoff        WCut        ... 1.0000e-14
Partially contracted basis set               ... off
Rotationally invariant grid construction     ... off
Angular grids for H and He will be reduced by one unit
Diffuse basis detected: some atoms will have their outermost
                        angular grid increased by 1.

Total number of grid points                  ...   192911
Total number of batches                      ...     3037
Average number of points per batch           ...       63
Average number of grid points per atom       ...     4705
Initializing property integral containers    ... done (  0.0 sec)

SHARK setup successfully completed in   3.0 seconds

Maximum memory used throughout the entire STARTUP-calculation: 102.5 MB
Occupation numbers will be reassigned to an Aufbau configuration
             **** ENERGY FILE WAS UPDATED (xtb_opt.en.tmp) ****
Finished Guess after   0.7 sec
Maximum memory used throughout the entire GUESS-calculation: 55.9 MB
--------------------
CPCM SOLVATION MODEL
--------------------
CPCM parameters:
  Epsilon                                         ...      78.3550
  Refrac                                          ...       1.3328
  Rsolv                                           ...       1.3000
  Surface type                                    ... GAUSSIAN VDW
  Discretization scheme                           ... Constant charge density
    Threshold for H atoms                         ...       5.0000 (charges/Ang^2)
    Threshold for non-H atoms                     ...       5.0000 (charges/Ang^2)
  Epsilon function type                           ...         CPCM
Solvent:                                          ... WATER
SMD-CDS solvent descriptors:
  Soln                                            ...       1.3328
  Soln25                                          ...       1.3323
  Sola                                            ...       0.0000
  Solb                                            ...       0.0000
  Solg                                            ...       0.0000
  Solc                                            ...       0.0000
  Solh                                            ...       0.0000
Radii:
  Scheme                                          ... Element-dependent radii
  Radius for C  used is    3.4960 Bohr (=   1.8500 Ang.)
  Radius for O  used is    2.8724 Bohr (=   1.5200 Ang.)
  Radius for P  used is    4.0062 Bohr (=   2.1200 Ang.)
  Radius for S  used is    4.7054 Bohr (=   2.4900 Ang.)
  Radius for H  used is    2.2677 Bohr (=   1.2000 Ang.)
Calculating surface                               ...        done! (  0.0s)
Cavity surface points                             ...         3532
Cavity Volume                                     ...    2842.9846
Cavity Surface-area                               ...    1448.3173
Calculating surface distance matrix               ...        done! (  0.1s)
Performing Cholesky decomposition & store         ...        done! (  0.5s)
Overall time for CPCM initialization              ...                 0.6s

----------------------------------------D-I-I-S--------------------------------------------
Iteration    Energy (Eh)           Delta-E    RMSDP     MaxDP     DIISErr   Damp  Time(sec)
-------------------------------------------------------------------------------------------
               ***  Starting incremental Fock matrix formation  ***
                              *** Initializing SOSCF ***
---------------------------------------S-O-S-C-F--------------------------------------
Iteration    Energy (Eh)           Delta-E    RMSDP     MaxDP     MaxGrad    Time(sec)
--------------------------------------------------------------------------------------
    1    -2932.5178053890354022     0.00e+00  6.41e-07  9.17e-05  2.48e-06    14.6
               *** Restarting incremental Fock matrix formation ***
    2    -2932.5178053892245771    -1.89e-10  8.96e-07  1.18e-04  7.67e-06    13.7
                  *** Gradient check signals convergence ***

               *****************************************************
               *                     SUCCESS                       *
               *           SCF CONVERGED AFTER   2 CYCLES          *
               *****************************************************


SMD CDS free energy correction energy :                 7.00101     Kcal/mol
Total Energy after SMD CDS correction =             -2932.506648571 Eh
             **** ENERGY FILE WAS UPDATED (xtb_opt.en.tmp) ****

----------------
TOTAL SCF ENERGY
----------------

Total Energy       :      -2932.50664857074344 Eh          -79797.56274 eV

Components:
Nuclear Repulsion  :       2718.47237237398485 Eh           73973.39399 eV
Electronic Energy  :      -5650.96137742325300 Eh         -153770.47662 eV
One Electron Energy:      -9459.96255078748618 Eh         -257418.66792 eV
Two Electron Energy:       3809.00117336423318 Eh          103648.19130 eV
CPCM Dielectric    :         -0.02880033995651 Eh              -0.78370 eV
SMD CDS (Gcds)     :          0.01115681848112 Eh               0.30359 eV

Virial components:
Potential Energy   :      -5855.60554101351408 Eh         -159339.12742 eV
Kinetic Energy     :       2923.09889244277065 Eh           79541.56468 eV
Virial Ratio       :          2.00321841869678

DFT components:
N(Alpha)           :      101.000109216934 electrons
N(Beta)            :      101.000109216934 electrons
N(Total)           :      202.000218433869 electrons
E(X)               :     -233.394707198119 Eh       
E(C)               :       -7.103225782999 Eh       
E(XC)              :     -240.497932981118 Eh       

CPCM Solvation Model Properties:
Surface-charge          :         -0.04591218968848
Corrected charge        :         -0.00000000000000
Outlying charge corr.   :          0.00010693792333 Eh               0.00291 eV
Free-energy (cav+disp)  :          0.01115681848112 Eh               0.30359 eV

---------------
SCF CONVERGENCE
---------------

  Last Energy change         ...    1.8917e-10  Tolerance :   1.0000e-07
  Last MAX-Density change    ...    1.1769e-04  Tolerance :   1.0000e-07
  Last RMS-Density change    ...    8.9646e-07  Tolerance :   5.0000e-09
  Last DIIS Error            ...    3.8423e-05  Tolerance :   1.0000e-07
  Last Orbital Gradient      ...    7.6737e-06  Tolerance :   1.0000e-04
  Last Orbital Rotation      ...    1.5663e-05  Tolerance :   1.0000e-04


----------------
ORBITAL ENERGIES
----------------

  NO   OCC          E(Eh)            E(eV) 
   0   2.0000     -88.585304     -2410.5287 
   1   2.0000     -88.583260     -2410.4731 
   2   2.0000     -88.531332     -2409.0600 
   3   2.0000     -88.530864     -2409.0473 
   4   2.0000     -76.922887     -2093.1782 
   5   2.0000     -76.921762     -2093.1475 
   6   2.0000     -18.995613      -516.8969 
   7   2.0000     -18.995211      -516.8860 
   8   2.0000     -18.995143      -516.8841 
   9   2.0000     -18.992971      -516.8250 
  10   2.0000     -10.112273      -275.1689 
  11   2.0000     -10.093373      -274.6547 
  12   2.0000     -10.092794      -274.6389 
  13   2.0000     -10.091993      -274.6171 
  14   2.0000     -10.091310      -274.5985 
  15   2.0000     -10.022459      -272.7250 
  16   2.0000     -10.022284      -272.7202 
  17   2.0000     -10.021728      -272.7051 
  18   2.0000     -10.021689      -272.7040 
  19   2.0000      -7.878835      -214.3940 
  20   2.0000      -7.876875      -214.3407 
  21   2.0000      -7.826581      -212.9721 
  22   2.0000      -7.826140      -212.9601 
  23   2.0000      -6.600467      -179.6078 
  24   2.0000      -6.599449      -179.5801 
  25   2.0000      -5.825802      -158.5281 
  26   2.0000      -5.823875      -158.4757 
  27   2.0000      -5.822437      -158.4366 
  28   2.0000      -5.820660      -158.3882 
  29   2.0000      -5.816273      -158.2688 
  30   2.0000      -5.814072      -158.2089 
  31   2.0000      -5.774003      -157.1186 
  32   2.0000      -5.773635      -157.1086 
  33   2.0000      -5.767000      -156.9281 
  34   2.0000      -5.766580      -156.9166 
  35   2.0000      -5.766496      -156.9143 
  36   2.0000      -5.766121      -156.9041 
  37   2.0000      -4.746129      -129.1487 
  38   2.0000      -4.745590      -129.1341 
  39   2.0000      -4.744849      -129.1139 
  40   2.0000      -4.744300      -129.0990 
  41   2.0000      -4.744051      -129.0922 
  42   2.0000      -4.743498      -129.0771 
  43   2.0000      -1.041584       -28.3429 
  44   2.0000      -1.039720       -28.2922 
  45   2.0000      -1.002371       -27.2759 
  46   2.0000      -1.000112       -27.2144 
  47   2.0000      -0.794895       -21.6302 
  48   2.0000      -0.756820       -20.5941 
  49   2.0000      -0.745252       -20.2793 
  50   2.0000      -0.727337       -19.7918 
  51   2.0000      -0.724319       -19.7097 
  52   2.0000      -0.713007       -19.4019 
  53   2.0000      -0.692788       -18.8517 
  54   2.0000      -0.675492       -18.3811 
  55   2.0000      -0.625918       -17.0321 
  56   2.0000      -0.616341       -16.7715 
  57   2.0000      -0.597052       -16.2466 
  58   2.0000      -0.590974       -16.0812 
  59   2.0000      -0.588900       -16.0248 
  60   2.0000      -0.528368       -14.3776 
  61   2.0000      -0.523329       -14.2405 
  62   2.0000      -0.490815       -13.3558 
  63   2.0000      -0.487243       -13.2585 
  64   2.0000      -0.468069       -12.7368 
  65   2.0000      -0.459999       -12.5172 
  66   2.0000      -0.449865       -12.2415 
  67   2.0000      -0.442705       -12.0466 
  68   2.0000      -0.440137       -11.9767 
  69   2.0000      -0.436297       -11.8723 
  70   2.0000      -0.420594       -11.4449 
  71   2.0000      -0.416444       -11.3320 
  72   2.0000      -0.407302       -11.0832 
  73   2.0000      -0.395259       -10.7556 
  74   2.0000      -0.387767       -10.5517 
  75   2.0000      -0.385369       -10.4864 
  76   2.0000      -0.380337       -10.3495 
  77   2.0000      -0.365599        -9.9484 
  78   2.0000      -0.362992        -9.8775 
  79   2.0000      -0.357518        -9.7286 
  80   2.0000      -0.355491        -9.6734 
  81   2.0000      -0.351196        -9.5565 
  82   2.0000      -0.346740        -9.4353 
  83   2.0000      -0.343021        -9.3341 
  84   2.0000      -0.340076        -9.2539 
  85   2.0000      -0.329109        -8.9555 
  86   2.0000      -0.322168        -8.7666 
  87   2.0000      -0.316019        -8.5993 
  88   2.0000      -0.311527        -8.4771 
  89   2.0000      -0.304371        -8.2824 
  90   2.0000      -0.301362        -8.2005 
  91   2.0000      -0.292135        -7.9494 
  92   2.0000      -0.286183        -7.7874 
  93   2.0000      -0.280376        -7.6294 
  94   2.0000      -0.277984        -7.5643 
  95   2.0000      -0.258310        -7.0290 
  96   2.0000      -0.247345        -6.7306 
  97   2.0000      -0.237724        -6.4688 
  98   2.0000      -0.229046        -6.2327 
  99   2.0000      -0.227170        -6.1816 
 100   2.0000      -0.219975        -5.9858 
 101   0.0000      -0.048552        -1.3212 
 102   0.0000      -0.038806        -1.0560 
 103   0.0000      -0.027449        -0.7469 
 104   0.0000       0.007138         0.1942 
 105   0.0000       0.008659         0.2356 
 106   0.0000       0.012864         0.3500 
 107   0.0000       0.020066         0.5460 
 108   0.0000       0.029680         0.8076 
 109   0.0000       0.046925         1.2769 
 110   0.0000       0.057751         1.5715 
 111   0.0000       0.068372         1.8605 
*Only the first 10 virtual orbitals were printed.
Total SCF time: 0 days 0 hours 0 min 29 sec 
Finished LeanSCF after  29.9 sec

Maximum memory used throughout the entire LEANSCF-calculation: 142.6 MB


-------------------------------------------------------------------------------
                          DFT DISPERSION CORRECTION                            
                                                                               
                                DFTD4 V3.4.0                                   
-------------------------------------------------------------------------------
-------------------------   ----------------
Dispersion correction           -0.020909565
-------------------------   ----------------

------------------   -----------------
gCP correction             0.044848051
------------------   -----------------

-------------------------   --------------------
FINAL SINGLE POINT ENERGY     -2932.482710084815
-------------------------   --------------------

------------------------------------------------------------------------------
                         ORCA SCF GRADIENT CALCULATION
------------------------------------------------------------------------------

Nuc. rep. gradient        (SHARK) ... done (  0.0 sec)
HCore & Overlap gradient  (SHARK) ... done (  2.1 sec)
Split-RIJ-J gradient      (SHARK) ... done (  9.5 sec)
XC gradient                       ... done ( 22.5 sec)
CPCM gradient                     ... done (  8.1 sec)
SMD gradient                      ... done (  0.0 sec)
Dispersion correction             ... done (  0.0 sec)

-------------------
DISPERSION GRADIENT
-------------------

   1   C   :    0.000114029   -0.000068209   -0.000022813
   2   C   :    0.000122646   -0.000015560   -0.000003074
   3   O   :    0.000117070   -0.000016841    0.000030525
   4   P   :    0.000251448    0.000049985   -0.000090679
   5   S   :    0.000143810    0.000200064   -0.000241629
   6   O   :    0.000095217    0.000086214    0.000077192
   7   C   :    0.000073475    0.000150538    0.000089372
   8   C   :    0.000035249    0.000138197    0.000151169
   9   S   :    0.000090907   -0.000273590   -0.000132160
  10   C   :   -0.000006638   -0.000099521   -0.000150353
  11   S   :   -0.000072033   -0.000225762   -0.000188605
  12   P   :   -0.000215258    0.000025842   -0.000061563
  13   S   :   -0.000218604    0.000293531   -0.000184892
  14   O   :   -0.000074323   -0.000003472    0.000117490
  15   C   :   -0.000050527   -0.000091375    0.000157557
  16   C   :   -0.000034552   -0.000093682    0.000150379
  17   O   :   -0.000104155    0.000006676   -0.000006855
  18   C   :   -0.000119455    0.000006919   -0.000054243
  19   C   :   -0.000145805    0.000011130   -0.000000100
  20   H   :    0.000047346   -0.000034597    0.000001336
  21   H   :    0.000053889   -0.000031256   -0.000019583
  22   H   :    0.000041560   -0.000020799   -0.000011324
  23   H   :    0.000048269    0.000004168   -0.000008554
  24   H   :    0.000053677   -0.000009797    0.000017466
  25   H   :    0.000014694    0.000044772    0.000041861
  26   H   :    0.000021803    0.000070927    0.000022662
  27   H   :    0.000004795    0.000035727    0.000034901
  28   H   :    0.000015147    0.000066871    0.000065096
  29   H   :    0.000018322    0.000040624    0.000060658
  30   H   :   -0.000008093   -0.000055820   -0.000055206
  31   H   :   -0.000005829   -0.000020362   -0.000065704
  32   H   :   -0.000018632   -0.000059087    0.000060861
  33   H   :   -0.000017332   -0.000027578    0.000086970
  34   H   :   -0.000008067   -0.000043043    0.000057504
  35   H   :   -0.000006265   -0.000031064    0.000047570
  36   H   :   -0.000008145   -0.000021764    0.000062965
  37   H   :   -0.000045875    0.000016457   -0.000019167
  38   H   :   -0.000055403   -0.000017772   -0.000022893
  39   H   :   -0.000055427    0.000011799    0.000006368
  40   H   :   -0.000037252    0.000001553   -0.000003580
  41   H   :   -0.000055683   -0.000001045    0.000003077

Difference to translation invariance:
           :   -0.0000000000   -0.0000000000   -0.0000000000

Difference to rotation invariance:
           :    0.0000000000   -0.0000000000    0.0000000000

Norm of the Dispersion gradient    ...    0.0010107116
RMS gradient                       ...    0.0000911328
MAX gradient                       ...    0.0002935309
gCP correction                   ... done

------------------
CARTESIAN GRADIENT
------------------

   1   C   :   -0.000004400    0.000194492    0.000006225
   2   C   :   -0.000133308   -0.000199227   -0.000016269
   3   O   :    0.000139076   -0.000065955   -0.000050975
   4   P   :   -0.000373009   -0.000157702    0.000148944
   5   S   :    0.000015085    0.000082982   -0.000215878
   6   O   :    0.000199741    0.000152822   -0.000018485
   7   C   :   -0.000202880   -0.000185895    0.000079532
   8   C   :    0.000010479   -0.000160192   -0.000107604
   9   S   :    0.000214440    0.000155028    0.000020752
  10   C   :    0.000150675   -0.000060184    0.000006064
  11   S   :   -0.000251729    0.000077679   -0.000161021
  12   P   :    0.000040522   -0.000161333    0.000347444
  13   S   :   -0.000015176    0.000059764   -0.000117666
  14   O   :    0.000119688   -0.000076047    0.000096445
  15   C   :   -0.000261322    0.000078451    0.000061703
  16   C   :    0.000283521    0.000018976   -0.000213245
  17   O   :    0.000035524   -0.000006542   -0.000109427
  18   C   :    0.000047330    0.000024732    0.000190926
  19   C   :    0.000073586    0.000039436   -0.000008012
  20   H   :    0.000004244   -0.000017780    0.000061686
  21   H   :   -0.000013973   -0.000044325    0.000000478
  22   H   :    0.000006509   -0.000032418   -0.000003943
  23   H   :    0.000035266    0.000087075   -0.000010223
  24   H   :    0.000058560   -0.000004522    0.000055183
  25   H   :    0.000038191    0.000011255    0.000061137
  26   H   :    0.000078042   -0.000010338    0.000039272
  27   H   :    0.000037494    0.000139870    0.000012984
  28   H   :   -0.000039047    0.000018265   -0.000030025
  29   H   :    0.000058789   -0.000010268    0.000032319
  30   H   :   -0.000050723   -0.000022596   -0.000027286
  31   H   :   -0.000067289    0.000011139    0.000036736
  32   H   :    0.000034434    0.000008998   -0.000055665
  33   H   :    0.000018407   -0.000000156   -0.000068651
  34   H   :    0.000012648   -0.000010206    0.000062044
  35   H   :   -0.000044737    0.000022111    0.000026374
  36   H   :   -0.000069492    0.000022299   -0.000026058
  37   H   :   -0.000028287    0.000028661   -0.000027497
  38   H   :   -0.000080434   -0.000079665   -0.000056632
  39   H   :    0.000014548    0.000045706    0.000013247
  40   H   :   -0.000068830    0.000065340   -0.000069541
  41   H   :   -0.000022164   -0.000039732    0.000034605

Difference to translation invariance:
           :    0.0000000001   -0.0000000000   -0.0000000000

Difference to rotation invariance:
           :    0.0006212212    0.0007418130   -0.0018325242

Norm of the Cartesian gradient     ...    0.0011538654
RMS gradient                       ...    0.0001040405
MAX gradient                       ...    0.0003730089

-------
TIMINGS
-------

Total SCF gradient time     ....       48.336 sec

Densities                   ....       0.007 sec  (  0.0%)
One electron gradient       ....       2.140 sec  (  4.4%)
RI-J Coulomb gradient       ....       9.512 sec  ( 19.7%)
XC gradient                 ....      22.452 sec  ( 46.4%)
CPCM gradient               ....       8.133 sec  ( 16.8%)
   A-Matrix (El+Nuc)        ....       0.277 sec  (  0.6%)
   Potential                ....       7.856 sec  ( 16.3%)
SMD gradient                ....       0.016 sec  (  0.0%)

Maximum memory used throughout the entire SCFGRAD-calculation: 85.4 MB

------------------------------------------------------------------------------
                              ORCA PROPERTY CALCULATIONS
------------------------------------------------------------------------------

GBWName                                 ... xtb_opt.gbw
Number of atoms                         ...     41
Number of basis functions               ...    539
Max core memory                         ...   1024 MB

Electric properties:
Dipole moment                           ... YES
Quadrupole moment                       ...  NO
Static polarizability (Dipole/Dipole)   ...  NO
Static polarizability (Dipole/Quad.)    ...  NO
Static polarizability (Quad./Quad.)     ...  NO
Static polarizability (Velocity)        ...  NO

Atomic electric properties:
Dipole moment                           ...  NO
Quadrupole moment                       ...  NO
Static polarizability                   ...  NO

Choice of electric origin               ... Center of mass
Position of electric origin             ...    -0.093186     0.111568    -0.137982

General magnetic properties:
Magnetizability                         ...  NO

EPR properties:
g-Tensor (aka g-matrix)                 ...  NO
Zero-Field splitting spin-orbit         ...  NO
Zero-field splitting spin-spin          ...  NO
Hyperfine couplings                     ...  NO (   0 nuclei)
Quadrupole couplings                    ...  NO (   0 nuclei)
Contact density                         ...  NO (   0 nuclei)

NMR properties:
Chemical shifts                         ...  NO (   0 nuclei)
Spin-rotation constants                 ...  NO (   0 nuclei)
Spin-spin couplings                     ...  NO (   0 nuclei,    0 pairs)

Choice of magnetic origin               ... GIAO
Position of magnetic origin             ...     0.000000     0.000000     0.000000

Properties with geometric perturbations:
SCF Hessian                             ...  NO
IR spectrum                             ...  NO
VCD spectrum                            ...  NO
X-ray spectroscopy properties:
SCF XES/XAS/RIXS spectra                ...  NO


-------------
DIPOLE MOMENT
-------------

Method             : SCF
Type of density    : Electron Density
Multiplicity       :   1
Irrep              :   0
Energy             : -2932.5066485707434367 Eh
Relativity type    : 
Basis              : AO
                                X                 Y                 Z
Electronic contribution:      4.354452992       1.345758429     -13.505897209
Nuclear contribution   :     -4.225205173      -3.044016783      14.682751617
                        -----------------------------------------
Total Dipole Moment    :      0.129247818      -1.698258354       1.176854408
                        -----------------------------------------
Magnitude (a.u.)       :      2.070210795
Magnitude (Debye)      :      5.262057658



--------------------
Rotational spectrum 
--------------------
 
Rotational constants in cm-1:             0.013214             0.004520             0.004395 
Rotational constants in MHz :           396.156965           135.503946           131.757544 

Dipole components along the rotational axes: 
x,y,z [a.u.] :    -0.082886    -0.499539    -2.007327 
x,y,z [Debye]:    -0.210680    -1.269728    -5.102221 

 

Dipole moment calculation done in   0.1 sec 

Maximum memory used throughout the entire PROP-calculation: 52.1 MB

--------------------------------
SUGGESTED CITATIONS FOR THIS RUN
--------------------------------

Below you find a list of papers that are relevant to this ORCA run
We neither can nor want to force you to cite these papers, but we appreciate if you do
You receive ORCA, which is the product of decades of hard work by many enthusiastic individuals, for free
The only thing we kindly ask in return is that you cite our papers,
We deeply appreciate it, if you show your appreciation for ORCA by not just citing the generic ORCA reference.

Please note that relegating all ORCA citations to the supporting information does *not* help us.
SI sections are not indexed - citations you put there will not count into any citation statistics
But we need these citations in order to attract the funding resources that allow us to do what we are doing

Therefore, if you are a happy ORCA user, please consider citing a few of the papers listed below in the main body of your paper

In addition to the list printed below, the program has created the file xtb_opt.bibtex that contains the list in bibtex format
You can import this file easily into all common literature databanks and citation aid programs


List of essential papers. We consider these as the minimum necessary citations

  1. Neese,F.
     Software update: the ORCA program system, version 5.0
     WIRES Comput. Molec. Sci., 2022 12(1)e1606
     doi.org/10.1002/wcms.1606
  2. Grimme,S.; Hansen,A.; Ehlert,S.; Mewes,J.
     r2SCAN-3c: A 'Swiss army knife' composite electronic-structure method
     J. Chem. Phys., 2021 154 064103
     doi.org/10.1063/5.0040021

List of papers to cite with high priority. The work reported in these papers was absolutely
necessary for this run to complete.
Our perspective: the developers of density functionals and basis sets usually get cited in chemistry papers
Good! But without the algorithms to do something with them, the functionals or basis sets would not do anything.
Hence, in our opinion, the algorithm design and method developments papers are equally worthy of getting cited

  1. Neese,F.
     An improvement of the resolution of the identity approximation for the formation of the Coulomb matrix
     J. Comp. Chem., 2003 24(14)1740-1747
     doi.org/10.1002/jcc.10318
  2. Garcia-Rates,M.; Neese,F.
     Effect of the Solute Cavity on the Solvation Energy and its Derivatives within the Framework of the Gaussian Charge Scheme
     J. Comput. Chem., 2020 41 922-939
     doi.org/10.1002/jcc.26139
  3. Neese,F.
     The SHARK Integral Generation and Digestion System
     J. Comp. Chem., 2022  1-16
     doi.org/10.1002/jcc.26942
  4. Lehtola,S.; Steigemann,C.; Oliveira,M.; Marques,M.
     Recent developments in Libxc - A comprehensive library of functionals for density functional theory
     Software X, 2018 7 
     doi.org/10.1016/j.softx.2017.11.002
  5. Caldeweyher,E.; Bannwarth,C.; Grimme,S.
     Extension of the D3 dispersion coefficient model
     J. Chem. Phys., 2017 147 034112-XXXX
     doi.org/10.1063/1.4993215
  6. Caldeweyher,E.; Ehlert,S.; Hansen,A.; Neugebauer,H.; Spicher,S.; Bannwarth,C.; Grimme,S.
     A generally applicable atomic-charge dependent London dispersion correction
     J. Chem. Phys., 2019 150 154122-XXXX
     doi.org/10.1063/1.5090222
  7. Caldeweyher,E.; Mewes,J.; Ehlert,S.; Grimme,S.
     Extension and evaluation of the D4 London-dispersion model for periodic systems
     Phys. Chem. Chem. Phys., 2020 22(16)8499-8512
     doi.org/10.1039/D0CP00502A

List of suggested additional citations. These are papers that are important in the 'surrounding' of 
of this run, or papers that preceded the highly important papers. If you like your results we are grateful for a citation.

  1. Neese,F.
     The ORCA program system
     WIRES Comput. Molec. Sci., 2012 2(1)73-78
     doi.org/10.1002/wcms.81
  2. Neese,F.
     Software update: the ORCA program system, version 4.0
     WIRES Comput. Molec. Sci., 2018 8(1)1-6
     doi.org/10.1002/wcms.1327
  3. Neese,F.; Wennmohs,F.; Becker,U.; Riplinger,C.
     The ORCA quantum chemistry program package
     J. Chem. Phys., 2020 152 Art. No. L224108
     doi.org/10.1063/5.0004608

List of optional additional citations

  1. Neese,F.
     Approximate second-order SCF convergence for spin unrestricted wavefunctions
     Chem. Phys. Lett., 2000 325(1-3)93-98
     doi.org/10.1016/s0009-2614(00)00662-x

Timings for individual modules:

Sum of individual times          ...       82.646 sec (=   1.377 min)
Startup calculation              ...        3.113 sec (=   0.052 min)   3.8 %
SCF iterations                   ...       30.759 sec (=   0.513 min)  37.2 %
Property calculations            ...        0.276 sec (=   0.005 min)   0.3 %
SCF Gradient evaluation          ...       48.499 sec (=   0.808 min)  58.7 %
                             ****ORCA TERMINATED NORMALLY****
TOTAL RUN TIME: 0 days 0 hours 1 minutes 23 seconds 601 msec
  ------------------------------------------------------------------------
          * successful ORCA run, taking over control again...

         :::::::::::::::::::::::::::::::::::::::::::::::::::::
         ::                  ORCA SUMMARY                   ::
         :::::::::::::::::::::::::::::::::::::::::::::::::::::
         :: total energy           -2932.482710084815 Eh    ::
         :: gradient norm              0.001153865378 Eh/a0 ::
         :: HOMO-LUMO gap              0.000000000000 eV    ::
         :::::::::::::::::::::::::::::::::::::::::::::::::::::

      ----------------------------------------------------------- 
     |                       L-ANC optimizer                     |
      ----------------------------------------------------------- 
          low memory version by Sebastian Ehlert

          ...................................................
          :                      SETUP                      :
          :.................................................:
          :   energy convergence        0.5000000E-05 Eh    :
          :   grad. convergence         0.1000000E-02 Eh/a0 :
          :   optimization log               true           :
          :   writing optlog all                1     steps :
          :   Hessian reset                     8     steps :
          :   maximium step len.        1.0000000     a0    :
          :   LBFGS images                      8           :
          ...................................................
 * calculating model hessian...
Using Lindh-Hessian (1995)
 Shifting diagonal of input Hessian by   1.000522371010447E-002
 Lowest  eigenvalues of input Hessian
    0.010000    0.000000    0.000000    0.000000    0.000000    0.000000
    0.000000    0.010208    0.010401    0.010655    0.010962    0.011282
    0.011653    0.011722    0.011856    0.012258    0.012606    0.012840
 Highest eigenvalues
    1.295538    1.300225    1.715069    1.730935    1.863584    1.920186
 

........................................................................
.............................. CYCLE    1 ..............................
........................................................................
                         * ORCA takes the control...
  ------------------------------------------------------------------------

                                 *****************
                                 * O   R   C   A *
                                 *****************

                                            #,                                       
                                            ###                                      
                                            ####                                     
                                            #####                                    
                                            ######                                   
                                           ########,                                 
                                     ,,################,,,,,                         
                               ,,#################################,,                 
                          ,,##########################################,,             
                       ,#########################################, ''#####,          
                    ,#############################################,,   '####,        
                  ,##################################################,,,,####,       
                ,###########''''           ''''###############################       
              ,#####''   ,,,,##########,,,,          '''####'''          '####       
            ,##' ,,,,###########################,,,                        '##       
           ' ,,###''''                  '''############,,,                           
         ,,##''                                '''############,,,,        ,,,,,,###''
      ,#''                                            '''#######################'''  
     '                                                          ''''####''''         
             ,#######,   #######,   ,#######,      ##                                
            ,#'     '#,  ##    ##  ,#'     '#,    #''#        ,####,   ,####,        
            ##       ##  ##   ,#'  ##            #'  '#       #'       #'  '#        
            ##       ##  #######   ##           ,######,      #####,   #    #        
            '#,     ,#'  ##    ##  '#,     ,#' ,#      #,     #,   #   #,  ,#        
             '#######'   ##     ##  '#######'  #'      '#     '####' # '####'        



                #########################################################
                #                        -***-                          #
                #          Department of theory and spectroscopy        #
                #                                                       #
                #                      Frank Neese                      #
                #                                                       #
                #     Directorship, Architecture, Infrastructure        #
                #                    SHARK, DRIVERS                     #
                #        Core code/Algorithms in most modules           #
                #                                                       #
                #        Max Planck Institute fuer Kohlenforschung      #
                #                Kaiser Wilhelm Platz 1                 #
                #                 D-45470 Muelheim/Ruhr                 #
                #                      Germany                          #
                #                                                       #
                #                  All rights reserved                  #
                #                        -***-                          #
                #########################################################


                         Program Version 6.0.0  -   RELEASE  -


 With contributions from (in alphabetic order):
   Daniel Aravena         : Magnetic Suceptibility
   Michael Atanasov       : Ab Initio Ligand Field Theory (pilot matlab implementation)
   Alexander A. Auer      : GIAO ZORA, VPT2 properties, NMR spectrum
   Ute Becker             : All parallelization in ORCA, NUMFREQ, NUMCALC
   Giovanni Bistoni       : ED, misc. LED, open-shell LED, HFLD
   Martin Brehm           : Molecular dynamics
   Dmytro Bykov           : pre 5.0 version of the SCF Hessian
   Marcos Casanova-Páez   : Triplet and SCS-CIS(D). UHF-(DLPNO)-IP/EA/STEOM-CCSD. UHF-CVS-IP/STEOM-CCSD
   Vijay G. Chilkuri      : MRCI spin determinant printing, contributions to CSF-ICE
   Pauline Colinet        : FMM embedding
   Dipayan Datta          : RHF DLPNO-CCSD density
   Achintya Kumar Dutta   : EOM-CC, STEOM-CC
   Nicolas Foglia         : Exact transition moments, OPA infrastructure, MCD improvements
   Dmitry Ganyushin       : Spin-Orbit,Spin-Spin,Magnetic field MRCI
   Miquel Garcia          : C-PCM and meta-GGA Hessian, CCSD/C-PCM, Gaussian charge scheme
   Tiago L. C. Gouveia    : GS-ROHF, GS-ROCIS
   Yang Guo               : DLPNO-NEVPT2, F12-NEVPT2, CIM, IAO-localization
   Andreas Hansen         : Spin unrestricted coupled pair/coupled cluster methods
   Ingolf Harden          : AUTO-CI MPn and infrastructure 
   Benjamin Helmich-Paris : MC-RPA, TRAH-(SCF,CASSCF), AVAS, COSX integrals, SCF dyn. polar.
   Lee Huntington         : MR-EOM, pCC
   Robert Izsak           : Overlap fitted RIJCOSX, COSX-SCS-MP3, EOM
   Riya Kayal             : Wick's Theorem for AUTO-CI, AUTO-CI UHF-CCSDT
   Emily Kempfer          : AUTO-CI, RHF CISDT and CCSDT
   Christian Kollmar      : KDIIS, OOCD, Brueckner-CCSD(T), CCSD density, CASPT2, CASPT2-K, improved NEVPT2
   Axel Koslowski         : Symmetry handling
   Simone Kossmann        : Meta GGA functionals, TD-DFT gradient, OOMP2, (MP2 Hessian; deprecated post 5.0)
   Lucas Lang             : DCDCAS
   Marvin Lechner         : AUTO-CI (C++ implementation), FIC-MRCC
   Spencer Leger          : CASSCF response
   Dagmar Lenk            : GEPOL surface, SMD, ORCA-2-JSON
   Dimitrios Liakos       : Extrapolation schemes; Compound Job, initial MDCI parallelization
   Dimitrios Manganas     : Further ROCIS development; embedding schemes. LFT, Crystal Embedding
   Dimitrios Pantazis     : SARC Basis sets
   Anastasios Papadopoulos: AUTO-CI, single reference methods and gradients
   Taras Petrenko         : pre 6.0 DFT Hessian and TD-DFT gradient, (ASA, deprecated), ECA, 1-Electron XAS/XES, NRVS
   Peter Pinski           : DLPNO-MP2, DLPNO-MP2 Gradient
   Christoph Reimann      : Effective Core Potentials
   Marius Retegan         : Local ZFS, SOC
   Christoph Riplinger    : Optimizer, TS searches, QM/MM, DLPNO-CCSD(T), (RO)-DLPNO pert. Triples
   Michael Roemelt        : Original ROCIS implementation
   Masaaki Saitow         : Open-shell DLPNO-CCSD energy and density
   Barbara Sandhoefer     : DKH picture change effects
   Kantharuban Sivalingam : CASSCF convergence/infrastructure, NEVPT2 and variants, FIC-MRCI
   Bernardo de Souza      : ESD, SOC TD-DFT
   Georgi Stoychev        : AutoAux, RI-MP2 NMR, DLPNO-MP2 response, X2C
   Van Anh Tran           : RI-MP2 g-tensors
   Willem Van den Heuvel  : Paramagnetic NMR
   Zikuan Wang            : NOTCH, Electric field optimization 
   Frank Wennmohs         : Technical directorship and infrastructure
   Hang Xu                : AUTO-CI-Response properties 


 We gratefully acknowledge several colleagues who have allowed us to
 interface, adapt or use parts of their codes:
   Stefan Grimme, W. Hujo, H. Kruse, P. Pracht,  : VdW corrections, initial TS optimization,
                  C. Bannwarth, S. Ehlert,         DFT functionals, gCP, sTDA/sTD-DF
                  L. Wittmann, M. Mueller
   Ed Valeev, F. Pavosevic, A. Kumar             : LibInt (2-el integral package), F12 methods
   Garnet Chan, S. Sharma, J. Yang, R. Olivares  : DMRG
   Ulf Ekstrom                                   : XCFun DFT Library
   Mihaly Kallay                                 : mrcc  (arbitrary order and MRCC methods)
   Frank Weinhold                                : gennbo (NPA and NBO analysis)
   Simon Mueller                                 : openCOSMO-RS
   Christopher J. Cramer and Donald G. Truhlar   : smd solvation model
   Lars Goerigk                                  : TD-DFT with DH, B97 family of functionals
   V. Asgeirsson, H. Jonsson                     : NEB implementation
   FAccTs GmbH                                   : IRC, NEB, NEB-TS, DLPNO-Multilevel, CI-OPT
                                                   MM, QMMM, 2- and 3-layer-ONIOM, Crystal-QMMM,
                                                   LR-CPCM, SF, NACMEs, symmetry and pop. for TD-DFT,
                                                   nearIR, NL-DFT gradient (VV10), updates on ESD,
                                                   ML-optimized integration grids, MBIS, APM,
                                                   GOAT, DOCKER, SOLVATOR, interface openCOSMO-RS
   S Lehtola, MJT Oliveira, MAL Marques          : LibXC Library
   Liviu Ungur et al                             : ANISO software


 Your calculation uses the libint2 library for the computation of 2-el integrals
 For citations please refer to: http://libint.valeyev.net

 Your ORCA version has been built with support for libXC version: 6.2.2
 For citations please refer to: https://libxc.gitlab.io

 This ORCA versions uses:
   CBLAS   interface :  Fast vector & matrix operations
   LAPACKE interface :  Fast linear algebra routines
   SCALAPACK package :  Parallel linear algebra routines
   Shared memory     :  Shared parallel matrices
   BLAS/LAPACK       :  OpenBLAS 0.3.27  USE64BITINT DYNAMIC_ARCH NO_AFFINITY SapphireRapids SINGLE_THREADED
        Core in use  :  SapphireRapids
   Copyright (c) 2011-2014, The OpenBLAS Project




***************************************
The coordinates will be read from file: xtb_opt.xyz
***************************************


Your calculation utilizes the geometrical counterpoise correction gCP
Please cite in your paper:
H.Kruse, S. Grimme J.Chem.Phys., 136, (2012), 154101 
   

Your calculation utilizes the atom-pairwise dispersion correction
based on EEQ partial charges (D4)


Your calculation utilizes the SMD solvation module
Please cite in your paper:
A.V. Marenich, C.J. Cramer, D.G. Truhlar J. Phys. Chem. B, 113, (2009), 6378 

================================================================================

----- Orbital basis set information -----
Your calculation utilizes the basis: def2-mTZVPP
   Stefan Grimme, Andreas Hansen, Sebastian Ehlert, and Jan-Michael Mewes 
   J. Chem. Phys. 154, 064103 (2021). DOI: 10.1063/5.0040021

----- AuxJ basis set information -----
Your calculation utilizes the auxiliary basis: def2/J
   F. Weigend, Phys. Chem. Chem. Phys. 8, 1057 (2006).

================================================================================
                                        WARNINGS
                       Please study these warnings very carefully!
================================================================================

WARNING: Old DensityContainer found on disk!
         Will remove this file - 
         If you want to keep old densities, please start your calculation with a different basename. 

Using LibXC functional ID 497 : Re-regularized SCAN exchange by Furness et al
[ 1]  J. W. Furness, A. D. Kaplan, J. Ning, J. P. Perdew, and J. Sun.,  J. Phys. Chem. Lett. 11, 8208-8215 (2020)
[ 2]  J. W. Furness, A. D. Kaplan, J. Ning, J. P. Perdew, and J. Sun.,  J. Phys. Chem. Lett. 11, 9248-9248 (2020)
Using LibXC functional ID 498 : Re-regularized SCAN correlation by Furness et al
[ 1]  J. W. Furness, A. D. Kaplan, J. Ning, J. P. Perdew, and J. Sun.,  J. Phys. Chem. Lett. 11, 8208-8215 (2020)
[ 2]  J. W. Furness, A. D. Kaplan, J. Ning, J. P. Perdew, and J. Sun.,  J. Phys. Chem. Lett. 11, 9248-9248 (2020)
Using LibXC functional ID 497 : Re-regularized SCAN exchange by Furness et al
[ 1]  J. W. Furness, A. D. Kaplan, J. Ning, J. P. Perdew, and J. Sun.,  J. Phys. Chem. Lett. 11, 8208-8215 (2020)
[ 2]  J. W. Furness, A. D. Kaplan, J. Ning, J. P. Perdew, and J. Sun.,  J. Phys. Chem. Lett. 11, 9248-9248 (2020)
Using LibXC functional ID 498 : Re-regularized SCAN correlation by Furness et al
[ 1]  J. W. Furness, A. D. Kaplan, J. Ning, J. P. Perdew, and J. Sun.,  J. Phys. Chem. Lett. 11, 8208-8215 (2020)
[ 2]  J. W. Furness, A. D. Kaplan, J. Ning, J. P. Perdew, and J. Sun.,  J. Phys. Chem. Lett. 11, 9248-9248 (2020)

================================================================================
                                       INPUT FILE
================================================================================
NAME = xtb_opt.inp
|  1> ! r2scan-3c def2/J RI DEFGRID2 scfconv7 ENGRAD tightSCF miniprint
|  2> %cpcm
|  3>     smd true
|  4>     smdsolvent "water"
|  5> end
|  6> * xyzfile 0 1 xtb_opt.xyz
|  7> 
|  8>                          ****END OF INPUT****
================================================================================

                     *******************************
                     * Energy+Gradient Calculation *
                     *******************************

---------------------------------
CARTESIAN COORDINATES (ANGSTROEM)
---------------------------------
  C      5.108235   -1.423828   -1.141683
  C      4.970318   -0.135368   -0.370507
  O      3.684817   -0.054333    0.337807
  P      2.305357    0.357766   -0.384045
  S      2.433152    1.519611   -1.940865
  O      1.456553    0.909371    0.865587
  C      1.678363    2.291828    1.329347
  C      0.903893    2.466969    2.609364
  S      1.435230   -1.547352   -0.682718
  C     -0.039600   -1.138715   -1.719186
  S     -1.639005   -1.623768   -0.965534
  P     -2.231755    0.152636    0.043928
  S     -1.932176    1.817453   -0.916055
  O     -1.556108    0.188808    1.491830
  C     -1.183751   -0.984213    2.300598
  C     -2.379876   -1.726389    2.841189
  O     -3.753945   -0.232477    0.400355
  C     -4.811323   -0.200328   -0.622553
  C     -6.118214    0.037208    0.087670
  H      4.958260   -2.289784   -0.490326
  H      4.399580   -1.474513   -1.973300
  H      6.121030   -1.475018   -1.554628
  H      5.062290    0.742544   -1.016584
  H      5.706908   -0.066220    0.432490
  H      2.752595    2.437321    1.484666
  H      1.329921    2.969818    0.544668
  H      1.068379    3.483553    2.979991
  H     -0.167761    2.330776    2.442165
  H      1.242727    1.762538    3.374140
  H      0.040705   -1.718300   -2.641699
  H     -0.046936   -0.071285   -1.967836
  H     -0.540143   -1.626065    1.691931
  H     -0.586451   -0.547313    3.103677
  H     -2.936044   -2.238419    2.051420
  H     -2.021056   -2.481795    3.548105
  H     -3.054581   -1.049993    3.373558
  H     -4.586164    0.599839   -1.334497
  H     -4.797313   -1.163050   -1.142012
  H     -6.115273    1.004527    0.597799
  H     -6.926007    0.037230   -0.650612
  H     -6.318208   -0.752503    0.817386

----------------------------
CARTESIAN COORDINATES (A.U.)
----------------------------
  NO LB      ZA    FRAG     MASS         X           Y           Z
   0 C     6.0000    0    12.011    9.653166   -2.690644   -2.157469
   1 C     6.0000    0    12.011    9.392540   -0.255808   -0.700156
   2 O     8.0000    0    15.999    6.963295   -0.102674    0.638362
   3 P    15.0000    0    30.974    4.356493    0.676080   -0.725741
   4 S    16.0000    0    32.060    4.597991    2.871648   -3.667703
   5 O     8.0000    0    15.999    2.752486    1.718463    1.635722
   6 C     6.0000    0    12.011    3.171647    4.330926    2.512102
   7 C     6.0000    0    12.011    1.708111    4.661896    4.930984
   8 S    16.0000    0    32.060    2.712192   -2.924072   -1.290150
   9 C     6.0000    0    12.011   -0.074834   -2.151859   -3.248791
  10 S    16.0000    0    32.060   -3.097271   -3.068476   -1.824594
  11 P    15.0000    0    30.974   -4.217406    0.288440    0.083012
  12 S    16.0000    0    32.060   -3.651283    3.434489   -1.731092
  13 O     8.0000    0    15.999   -2.940618    0.356795    2.819150
  14 C     6.0000    0    12.011   -2.236964   -1.859894    4.347500
  15 C     6.0000    0    12.011   -4.497315   -3.262403    5.369069
  16 O     8.0000    0    15.999   -7.093927   -0.439317    0.756561
  17 C     6.0000    0    12.011   -9.092083   -0.378566   -1.176454
  18 C     6.0000    0    12.011  -11.561748    0.070313    0.165673
  19 H     1.0000    0     1.008    9.369753   -4.327065   -0.926581
  20 H     1.0000    0     1.008    8.314002   -2.786426   -3.728996
  21 H     1.0000    0     1.008   11.567071   -2.787380   -2.937822
  22 H     1.0000    0     1.008    9.566342    1.403206   -1.921066
  23 H     1.0000    0     1.008   10.784493   -0.125137    0.817287
  24 H     1.0000    0     1.008    5.201651    4.605868    2.805612
  25 H     1.0000    0     1.008    2.513186    5.612143    1.029273
  26 H     1.0000    0     1.008    2.018944    6.582962    5.631366
  27 H     1.0000    0     1.008   -0.317022    4.404528    4.615024
  28 H     1.0000    0     1.008    2.348413    3.330715    6.376200
  29 H     1.0000    0     1.008    0.076921   -3.247116   -4.992088
  30 H     1.0000    0     1.008   -0.088696   -0.134708   -3.718672
  31 H     1.0000    0     1.008   -1.020723   -3.072818    3.197285
  32 H     1.0000    0     1.008   -1.108232   -1.034271    5.865099
  33 H     1.0000    0     1.008   -5.548320   -4.230000    3.876622
  34 H     1.0000    0     1.008   -3.819243   -4.689912    6.704946
  35 H     1.0000    0     1.008   -5.772322   -1.984199    6.375100
  36 H     1.0000    0     1.008   -8.666593    1.133532   -2.521834
  37 H     1.0000    0     1.008   -9.065608   -2.197847   -2.158090
  38 H     1.0000    0     1.008  -11.556190    1.898280    1.129676
  39 H     1.0000    0     1.008  -13.088256    0.070354   -1.229479
  40 H     1.0000    0     1.008  -11.939682   -1.422024    1.544635

------------------------------------------------------------------------------
                   ___                                                        
                  /   \      - P O W E R E D   B Y -                         
                 /     \                                                     
                 |  |  |   _    _      __       _____    __    __             
                 |  |  |  | |  | |    /  \     |  _  \  |  |  /  |          
                  \  \/   | |  | |   /    \    | | | |  |  | /  /          
                 / \  \   | |__| |  /  /\  \   | |_| |  |  |/  /          
                |  |  |   |  __  | /  /__\  \  |    /   |      \           
                |  |  |   | |  | | |   __   |  |    \   |  |\   \          
                \     /   | |  | | |  |  |  |  | |\  \  |  | \   \       
                 \___/    |_|  |_| |__|  |__|  |_| \__\ |__|  \__/        
                                                                              
                      - O R C A' S   B I G   F R I E N D -                    
                                      &                                       
                       - I N T E G R A L  F E E D E R -                       
                                                                              
 v1 FN, 2020, v2 2021, v3 2022-2024                                           
------------------------------------------------------------------------------


----------------------
SHARK INTEGRAL PACKAGE
----------------------

Number of atoms                             ...     41
Number of basis functions                   ...    539
Number of shells                            ...    253
Maximum angular momentum                    ...      2
Integral batch strategy                     ... SHARK/LIBINT Hybrid
RI-J (if used) integral strategy            ... SPLIT-RIJ (Revised 2003 algorithm where possible)
Printlevel                                  ...      1
Contraction scheme used                     ... SEGMENTED contraction
Prescreening option                         ... SCHWARTZ
   Thresh                                   ... 3.000e-11
   Tcut                                     ... 1.000e-12
   Tpresel                                  ... 1.000e-12 
Coulomb Range Separation                    ... NOT USED
Exchange Range Separation                   ... NOT USED
Multipole approximations                    ... NOT USED
Finite Nucleus Model                        ... NOT USED
CABS basis                                  ... NOT available
Auxiliary Coulomb fitting basis             ... AVAILABLE
   # of basis functions in Aux-J            ...   1185
   # of shells in Aux-J                     ...    407
   Maximum angular momentum in Aux-J        ...      4
Auxiliary J/K fitting basis                 ... NOT available
Auxiliary Correlation fitting basis         ... NOT available
Auxiliary 'external' fitting basis          ... NOT available

Checking pre-screening integrals            ... done (  0.0 sec) Dimension = 253
Check shell pair data                       ... done (  0.0 sec)
Shell pair information
Shell pair cut-off parameter TPreSel        ...   1.0e-12
Total number of shell pairs                 ...     32131
Shell pairs after pre-screening             ...     21558
Total number of primitive shell pairs       ...    124843
Primitive shell pairs kept                  ...     50695
          la=0 lb=0:   6093 shell pairs
          la=1 lb=0:   7835 shell pairs
          la=1 lb=1:   2571 shell pairs
          la=2 lb=0:   2857 shell pairs
          la=2 lb=1:   1844 shell pairs
          la=2 lb=2:    358 shell pairs

Calculating one electron integrals          ... done (  0.1 sec)
Calculating RI/J V-Matrix + Cholesky decomp.... done (  0.1 sec)
[...]
CPCM gradient                     ... done (  8.1 sec)
SMD gradient                      ... done (  0.0 sec)
Dispersion correction             ... done (  0.0 sec)

-------------------
DISPERSION GRADIENT
-------------------

   1   C   :    0.000114026   -0.000068208   -0.000022867
   2   C   :    0.000122670   -0.000015579   -0.000003095
   3   O   :    0.000117113   -0.000016810    0.000030566
   4   P   :    0.000251467    0.000049956   -0.000090639
   5   S   :    0.000143941    0.000200200   -0.000241391
   6   O   :    0.000095254    0.000086259    0.000077147
   7   C   :    0.000073497    0.000150519    0.000089278
   8   C   :    0.000035278    0.000138191    0.000151245
   9   S   :    0.000090692   -0.000273743   -0.000132187
  10   C   :   -0.000006669   -0.000099506   -0.000150399
  11   S   :   -0.000071812   -0.000226298   -0.000188022
  12   P   :   -0.000215190    0.000025935   -0.000061706
  13   S   :   -0.000218659    0.000293845   -0.000184690
  14   O   :   -0.000074346   -0.000003550    0.000117399
  15   C   :   -0.000050608   -0.000091293    0.000157361
  16   C   :   -0.000034544   -0.000093651    0.000150360
  17   O   :   -0.000104194    0.000006742   -0.000006933
  18   C   :   -0.000119527    0.000006945   -0.000054326
  19   C   :   -0.000145778    0.000011074   -0.000000152
  20   H   :    0.000047353   -0.000034620    0.000001318
  21   H   :    0.000053904   -0.000031251   -0.000019612
  22   H   :    0.000041550   -0.000020810   -0.000011334
  23   H   :    0.000048242    0.000004163   -0.000008565
  24   H   :    0.000053667   -0.000009803    0.000017475
  25   H   :    0.000014715    0.000044777    0.000041804
  26   H   :    0.000021820    0.000070943    0.000022618
  27   H   :    0.000004810    0.000035745    0.000034942
  28   H   :    0.000015153    0.000066876    0.000065123
  29   H   :    0.000018348    0.000040629    0.000060716
  30   H   :   -0.000008092   -0.000055801   -0.000055227
  31   H   :   -0.000005827   -0.000020353   -0.000065730
  32   H   :   -0.000018668   -0.000059082    0.000060790
  33   H   :   -0.000017350   -0.000027584    0.000086992
  34   H   :   -0.000008068   -0.000043007    0.000057505
  35   H   :   -0.000006292   -0.000031063    0.000047609
  36   H   :   -0.000008182   -0.000021743    0.000062982
  37   H   :   -0.000045900    0.000016468   -0.000019210
  38   H   :   -0.000055436   -0.000017757   -0.000022947
  39   H   :   -0.000055408    0.000011776    0.000006345
  40   H   :   -0.000037233    0.000001527   -0.000003598
  41   H   :   -0.000055715   -0.000001060    0.000003053

Difference to translation invariance:
           :    0.0000000000    0.0000000000    0.0000000000

Difference to rotation invariance:
           :    0.0000000000    0.0000000000   -0.0000000000

Norm of the Dispersion gradient    ...    0.0010107841
RMS gradient                       ...    0.0000911393
MAX gradient                       ...    0.0002938454
gCP correction                   ... done

------------------
CARTESIAN GRADIENT
------------------

   1   C   :    0.000004166    0.000007767    0.000011807
   2   C   :   -0.000055439    0.000012580    0.000031985
   3   O   :    0.000088677    0.000017965   -0.000033057
   4   P   :   -0.000023665    0.000089157   -0.000126814
   5   S   :   -0.000026132   -0.000035001    0.000158077
   6   O   :    0.000089747    0.000054950   -0.000070424
   7   C   :   -0.000022423   -0.000035281   -0.000001058
   8   C   :   -0.000011512   -0.000017182   -0.000004615
   9   S   :   -0.000299680   -0.000180865    0.000046386
  10   C   :   -0.000019680    0.000167877   -0.000180755
  11   S   :    0.000192767   -0.000205970    0.000317877
  12   P   :   -0.000082657    0.000075468   -0.000174702
  13   S   :    0.000025854    0.000096863    0.000159885
  14   O   :   -0.000007679    0.000010786   -0.000250428
  15   C   :   -0.000053518   -0.000050473   -0.000039976
  16   C   :    0.000050398    0.000012957    0.000010104
  17   O   :   -0.000074008   -0.000029783   -0.000021327
  18   C   :   -0.000002564    0.000051685   -0.000013463
  19   C   :    0.000004254    0.000008886    0.000070451
  20   H   :    0.000005886   -0.000004176   -0.000002697
  21   H   :   -0.000001117   -0.000015547    0.000006888
  22   H   :   -0.000008720   -0.000005691   -0.000002045
  23   H   :    0.000004567   -0.000006876    0.000009290
  24   H   :   -0.000014829   -0.000002500   -0.000005222
  25   H   :    0.000020125   -0.000038817    0.000033336
  26   H   :    0.000029676    0.000026958   -0.000005266
  27   H   :   -0.000005889   -0.000025674   -0.000006296
  28   H   :    0.000016470   -0.000000614    0.000022152
  29   H   :   -0.000023605    0.000022457    0.000014732
  30   H   :    0.000029225   -0.000030166    0.000019070
  31   H   :    0.000044604    0.000023333   -0.000038056
  32   H   :    0.000034024   -0.000013700   -0.000010068
  33   H   :    0.000023625   -0.000043402    0.000020619
  34   H   :    0.000035501   -0.000029825   -0.000027050
  35   H   :   -0.000000270    0.000014479    0.000023587
  36   H   :   -0.000013069    0.000003568   -0.000025439
  37   H   :    0.000037632   -0.000018875    0.000005303
  38   H   :    0.000009338    0.000004912    0.000048490
  39   H   :    0.000008677    0.000010824    0.000021215
  40   H   :    0.000032557    0.000038679    0.000009748
  41   H   :   -0.000041309    0.000038269   -0.000002245

Difference to translation invariance:
           :   -0.0000000000   -0.0000000001   -0.0000000000

Difference to rotation invariance:
           :    0.0006224407    0.0007217973   -0.0018376919

Norm of the Cartesian gradient     ...    0.0008062629
RMS gradient                       ...    0.0000726983
MAX gradient                       ...    0.0003178767

-------
TIMINGS
-------

Total SCF gradient time     ....       48.341 sec

Densities                   ....       0.007 sec  (  0.0%)
One electron gradient       ....       2.013 sec  (  4.2%)
RI-J Coulomb gradient       ....       9.457 sec  ( 19.6%)
XC gradient                 ....      22.683 sec  ( 46.9%)
CPCM gradient               ....       8.107 sec  ( 16.8%)
   A-Matrix (El+Nuc)        ....       0.279 sec  (  0.6%)
   Potential                ....       7.828 sec  ( 16.2%)
SMD gradient                ....       0.014 sec  (  0.0%)

Maximum memory used throughout the entire SCFGRAD-calculation: 84.6 MB

------------------------------------------------------------------------------
                              ORCA PROPERTY CALCULATIONS
------------------------------------------------------------------------------

GBWName                                 ... xtb_opt.gbw
Number of atoms                         ...     41
Number of basis functions               ...    539
Max core memory                         ...   1024 MB

Electric properties:
Dipole moment                           ... YES
Quadrupole moment                       ...  NO
Static polarizability (Dipole/Dipole)   ...  NO
Static polarizability (Dipole/Quad.)    ...  NO
Static polarizability (Quad./Quad.)     ...  NO
Static polarizability (Velocity)        ...  NO

Atomic electric properties:
Dipole moment                           ...  NO
Quadrupole moment                       ...  NO
Static polarizability                   ...  NO

Choice of electric origin               ... Center of mass
Position of electric origin             ...    -0.092563     0.111816    -0.136818

General magnetic properties:
Magnetizability                         ...  NO

EPR properties:
g-Tensor (aka g-matrix)                 ...  NO
Zero-Field splitting spin-orbit         ...  NO
Zero-field splitting spin-spin          ...  NO
Hyperfine couplings                     ...  NO (   0 nuclei)
Quadrupole couplings                    ...  NO (   0 nuclei)
Contact density                         ...  NO (   0 nuclei)

NMR properties:
Chemical shifts                         ...  NO (   0 nuclei)
Spin-rotation constants                 ...  NO (   0 nuclei)
Spin-spin couplings                     ...  NO (   0 nuclei,    0 pairs)

Choice of magnetic origin               ... GIAO
Position of magnetic origin             ...     0.000000     0.000000     0.000000

Properties with geometric perturbations:
SCF Hessian                             ...  NO
IR spectrum                             ...  NO
VCD spectrum                            ...  NO
X-ray spectroscopy properties:
SCF XES/XAS/RIXS spectra                ...  NO


-------------
DIPOLE MOMENT
-------------

Method             : SCF
Type of density    : Electron Density
Multiplicity       :   1
Irrep              :   0
Energy             : -2932.5066496026051936 Eh
Relativity type    : 
Basis              : AO
                                X                 Y                 Z
Electronic contribution:      4.363144684       1.352919640     -13.499404587
Nuclear contribution   :     -4.235038002      -3.049084167      14.666303500
                        -----------------------------------------
Total Dipole Moment    :      0.128106681      -1.696164527       1.166898912
                        -----------------------------------------
Magnitude (a.u.)       :      2.062774466
Magnitude (Debye)      :      5.243156012



--------------------
Rotational spectrum 
--------------------
 
Rotational constants in cm-1:             0.013217             0.004520             0.004395 
Rotational constants in MHz :           396.244070           135.501958           131.761941 

Dipole components along the rotational axes: 
x,y,z [a.u.] :    -0.082900    -0.516213    -1.995417 
x,y,z [Debye]:    -0.210714    -1.312109    -5.071948 

 

Dipole moment calculation done in   0.0 sec 

Maximum memory used throughout the entire PROP-calculation: 52.1 MB

--------------------------------
SUGGESTED CITATIONS FOR THIS RUN
--------------------------------

Below you find a list of papers that are relevant to this ORCA run
We neither can nor want to force you to cite these papers, but we appreciate if you do
You receive ORCA, which is the product of decades of hard work by many enthusiastic individuals, for free
The only thing we kindly ask in return is that you cite our papers,
We deeply appreciate it, if you show your appreciation for ORCA by not just citing the generic ORCA reference.

Please note that relegating all ORCA citations to the supporting information does *not* help us.
SI sections are not indexed - citations you put there will not count into any citation statistics
But we need these citations in order to attract the funding resources that allow us to do what we are doing

Therefore, if you are a happy ORCA user, please consider citing a few of the papers listed below in the main body of your paper

In addition to the list printed below, the program has created the file xtb_opt.bibtex that contains the list in bibtex format
You can import this file easily into all common literature databanks and citation aid programs


List of essential papers. We consider these as the minimum necessary citations

  1. Neese,F.
     Software update: the ORCA program system, version 5.0
     WIRES Comput. Molec. Sci., 2022 12(1)e1606
     doi.org/10.1002/wcms.1606
  2. Grimme,S.; Hansen,A.; Ehlert,S.; Mewes,J.
     r2SCAN-3c: A 'Swiss army knife' composite electronic-structure method
     J. Chem. Phys., 2021 154 064103
     doi.org/10.1063/5.0040021

List of papers to cite with high priority. The work reported in these papers was absolutely
necessary for this run to complete.
Our perspective: the developers of density functionals and basis sets usually get cited in chemistry papers
Good! But without the algorithms to do something with them, the functionals or basis sets would not do anything.
Hence, in our opinion, the algorithm design and method developments papers are equally worthy of getting cited

  1. Neese,F.
     An improvement of the resolution of the identity approximation for the formation of the Coulomb matrix
     J. Comp. Chem., 2003 24(14)1740-1747
     doi.org/10.1002/jcc.10318
  2. Garcia-Rates,M.; Neese,F.
     Effect of the Solute Cavity on the Solvation Energy and its Derivatives within the Framework of the Gaussian Charge Scheme
     J. Comput. Chem., 2020 41 922-939
     doi.org/10.1002/jcc.26139
  3. Neese,F.
     The SHARK Integral Generation and Digestion System
     J. Comp. Chem., 2022  1-16
     doi.org/10.1002/jcc.26942
  4. Lehtola,S.; Steigemann,C.; Oliveira,M.; Marques,M.
     Recent developments in Libxc - A comprehensive library of functionals for density functional theory
     Software X, 2018 7 
     doi.org/10.1016/j.softx.2017.11.002
  5. Caldeweyher,E.; Bannwarth,C.; Grimme,S.
     Extension of the D3 dispersion coefficient model
     J. Chem. Phys., 2017 147 034112-XXXX
     doi.org/10.1063/1.4993215
  6. Caldeweyher,E.; Ehlert,S.; Hansen,A.; Neugebauer,H.; Spicher,S.; Bannwarth,C.; Grimme,S.
     A generally applicable atomic-charge dependent London dispersion correction
     J. Chem. Phys., 2019 150 154122-XXXX
     doi.org/10.1063/1.5090222
  7. Caldeweyher,E.; Mewes,J.; Ehlert,S.; Grimme,S.
     Extension and evaluation of the D4 London-dispersion model for periodic systems
     Phys. Chem. Chem. Phys., 2020 22(16)8499-8512
     doi.org/10.1039/D0CP00502A

List of suggested additional citations. These are papers that are important in the 'surrounding' of 
of this run, or papers that preceded the highly important papers. If you like your results we are grateful for a citation.

  1. Neese,F.
     The ORCA program system
     WIRES Comput. Molec. Sci., 2012 2(1)73-78
     doi.org/10.1002/wcms.81
  2. Neese,F.
     Software update: the ORCA program system, version 4.0
     WIRES Comput. Molec. Sci., 2018 8(1)1-6
     doi.org/10.1002/wcms.1327
  3. Neese,F.; Wennmohs,F.; Becker,U.; Riplinger,C.
     The ORCA quantum chemistry program package
     J. Chem. Phys., 2020 152 Art. No. L224108
     doi.org/10.1063/5.0004608

List of optional additional citations

  1. Neese,F.
     Approximate second-order SCF convergence for spin unrestricted wavefunctions
     Chem. Phys. Lett., 2000 325(1-3)93-98
     doi.org/10.1016/s0009-2614(00)00662-x

Timings for individual modules:

Sum of individual times          ...       82.494 sec (=   1.375 min)
Startup calculation              ...        3.235 sec (=   0.054 min)   3.9 %
SCF iterations                   ...       30.573 sec (=   0.510 min)  37.1 %
Property calculations            ...        0.183 sec (=   0.003 min)   0.2 %
SCF Gradient evaluation          ...       48.502 sec (=   0.808 min)  58.8 %
                             ****ORCA TERMINATED NORMALLY****
TOTAL RUN TIME: 0 days 0 hours 1 minutes 23 seconds 416 msec
  ------------------------------------------------------------------------
          * successful ORCA run, taking over control again...

         :::::::::::::::::::::::::::::::::::::::::::::::::::::
         ::                  ORCA SUMMARY                   ::
         :::::::::::::::::::::::::::::::::::::::::::::::::::::
         :: total energy           -2932.482711372324 Eh    ::
         :: gradient norm              0.000806262854 Eh/a0 ::
         :: HOMO-LUMO gap              0.000000000000 eV    ::
         :::::::::::::::::::::::::::::::::::::::::::::::::::::

           -------------------------------------------------
          |                Property Printout                |
           -------------------------------------------------
           -------------------------------------------------
          |                Geometry Summary                 |
           -------------------------------------------------

      molecular mass/u    :      384.4756129
   center of mass at/Å    :       -0.0489745       0.0591715      -0.0724563
  moments of inertia/u·Å² :        0.1275480E+04   0.3729749E+04   0.3835599E+04
rotational constants/cm⁻¹ :        0.1321670E-01   0.4519777E-02   0.4395045E-02

 * 34 selected distances

     #   Z          #   Z                                           value/Å
     1   6 C        2   6 C                                       1.5079336
     3   8 O        4  15 P                                       1.6105299
     4  15 P        5  16 S                                       1.9467673
     4  15 P        6   8 O                                       1.6082034
     7   6 C        8   6 C                                       1.5062945
     4  15 P        9  16 S                                       2.1156092
    11  16 S       12  15 P                                       2.1274344 (max)
    12  15 P       13  16 S                                       1.9449759
    12  15 P       14   8 O                                       1.5981949
    15   6 C       16   6 C                                       1.5079063
    12  15 P       17   8 O                                       1.6100973
    18   6 C       19   6 C                                       1.5062550
     1   6 C       20   1 H                                       1.0939106
     1   6 C       21   1 H                                       1.0937766
     1   6 C       22   1 H                                       1.0949420
     2   6 C       23   1 H                                       1.0938945
     2   6 C       24   1 H                                       1.0918561 (min)
     7   6 C       25   1 H                                       1.0951102
     7   6 C       26   1 H                                       1.0939863
     8   6 C       27   1 H                                       1.0944692
     8   6 C       28   1 H                                       1.0931362
     8   6 C       29   1 H                                       1.0935775
    10   6 C       30   1 H                                       1.0924281
    10   6 C       31   1 H                                       1.0960328
    15   6 C       32   1 H                                       1.0939286
    15   6 C       33   1 H                                       1.0920554
    16   6 C       34   1 H                                       1.0932669
    16   6 C       35   1 H                                       1.0950431
    16   6 C       36   1 H                                       1.0936891
    18   6 C       37   1 H                                       1.0944540
    18   6 C       38   1 H                                       1.0940147
    19   6 C       39   1 H                                       1.0935931
    19   6 C       40   1 H                                       1.0943449
    19   6 C       41   1 H                                       1.0936750

 * 4 distinct bonds (by element types)

   Z      Z             #   av. dist./Å        max./Å        min./Å
   1 H    6 C          22     1.0938720     1.0960328     1.0918561
   6 C    6 C           4     1.5070974     1.5079336     1.5062550
   8 O   15 P           4     1.6067564     1.6105299     1.5981949
  15 P   16 S           4     2.0336967     2.1274344     1.9449759


optimized geometry written to: xtbopt.coord


           -------------------------------------------------
          | TOTAL ENERGY            -2932.482711372324 Eh   |
          | GRADIENT NORM               0.000806262854 Eh/α |
           -------------------------------------------------

------------------------------------------------------------------------
 * finished run on 2025/04/10 at 12:28:34.446     
------------------------------------------------------------------------
 total:
 * wall-time:     0 d,  0 h,  4 min, 38.285 sec
 *  cpu-time:     0 d,  0 h,  0 min,  4.044 sec
 * ratio c/w:     0.015 speedup
 SCF:
 * wall-time:     0 d,  0 h,  1 min, 23.688 sec
 *  cpu-time:     0 d,  0 h,  0 min,  1.522 sec
 * ratio c/w:     0.018 speedup
 ANC optimizer:
 * wall-time:     0 d,  0 h,  3 min, 14.442 sec
 *  cpu-time:     0 d,  0 h,  0 min,  2.072 sec
 * ratio c/w:     0.011 speedup

