 Entering Gaussian System
 *********************************************
 Gaussian 98:
 frequency output generated by the xtb code
 *********************************************
                         Standard orientation:
 --------------------------------------------------------------------
  Center     Atomic     Atomic              Coordinates (Angstroms)
  Number     Number      Type              X           Y           Z
 --------------------------------------------------------------------
    1          6             0        4.881524   -2.216085   -0.135824
    2          6             0        4.661828   -0.773994    0.273927
    3          8             0        4.002460   -0.060114   -0.808341
    4         15             0        2.594441    0.627832   -0.671859
    5         16             0        2.019651    1.441047   -2.352824
    6          8             0        2.856185    1.632027    0.537153
    7          6             0        1.870897    2.589393    0.969937
    8          6             0        1.218742    2.143928    2.264096
    9         16             0        1.285977   -0.845921    0.144606
   10          6             0        0.204302   -1.115845   -1.302719
   11         16             0       -1.378206   -1.806545   -0.802286
   12         15             0       -2.161205   -0.087093    0.203160
   13         16             0       -1.660637    1.635882   -0.577834
   14          8             0       -1.722911   -0.197733    1.708344
   15          6             0       -2.006370   -1.350366    2.545693
   16          6             0       -3.161847   -1.059445    3.481244
   17          8             0       -3.713984   -0.417924    0.266858
   18          6             0       -4.565615   -0.367834   -0.897128
   19          6             0       -6.004486   -0.316947   -0.421208
   20          1             0        5.459751   -2.258558   -1.054576
   21          1             0        5.422054   -2.730817    0.652237
   22          1             0        3.927869   -2.712670   -0.296225
   23          1             0        5.608116   -0.254620    0.433264
   24          1             0        4.049060   -0.703931    1.175403
   25          1             0        2.423041    3.521274    1.106018
   26          1             0        1.127100    2.727802    0.177752
   27          1             0        1.975838    1.970774    3.023514
   28          1             0        0.540655    2.922635    2.598496
   29          1             0        0.648309    1.229945    2.112202
   30          1             0        0.662413   -1.839504   -1.972576
   31          1             0        0.052059   -0.156156   -1.804852
   32          1             0       -2.220343   -2.209920    1.905392
   33          1             0       -1.080264   -1.522828    3.096812
   34          1             0       -2.948386   -0.176825    4.077703
   35          1             0       -4.074266   -0.889075    2.916169
   36          1             0       -3.302243   -1.910633    4.140585
   37          1             0       -4.306756    0.520761   -1.481794
   38          1             0       -4.376613   -1.260811   -1.498967
   39          1             0       -6.242261   -1.208590    0.151501
   40          1             0       -6.161231    0.557817    0.203822
   41          1             0       -6.661619   -0.260250   -1.283098
 --------------------------------------------------------------------
     1 basis functions        1 primitive gaussians
     1 alpha electrons        1 beta electrons
 
 Harmonic frequencies (cm**-1), IR intensities (km*mol⁻¹),
 Raman scattering activities (A**4/amu), Raman depolarization ratios,
 reduced masses (AMU), force constants (mDyne/A) and normal coordinates:
                      1                      2                      3
                        a                      a                      a 
 Frequencies --    49.7453                49.9260                53.6326
 Red. masses --    25.7593                24.3622                19.6874
 Frc consts  --     0.0000                 0.0000                 0.0000
 IR Inten    --     1.0512                 3.0131                 0.4254
 Raman Activ --     0.0000                 0.0000                 0.0000
 Depolar     --     0.0000                 0.0000                 0.0000
 Atom AN      X      Y      Z        X      Y      Z        X      Y      Z
   1   6     0.02  -0.11   0.06     0.01   0.05   0.15     0.10   0.08   0.15
   2   6     0.04  -0.10   0.07    -0.02   0.06   0.10     0.05   0.08   0.13
   3   8     0.12  -0.09   0.06     0.04   0.03   0.05     0.06   0.05   0.13
   4  15     0.23  -0.00  -0.03     0.02  -0.00  -0.14    -0.03  -0.12   0.05
   5  16     0.43  -0.00  -0.10     0.18  -0.24  -0.31     0.08  -0.09   0.03
   6   8     0.16   0.01  -0.02    -0.08   0.09  -0.15    -0.19  -0.11   0.10
   7   6     0.10  -0.02  -0.04    -0.12   0.03  -0.14    -0.19  -0.09   0.01
   8   6     0.11  -0.01  -0.03    -0.08   0.03  -0.12    -0.21  -0.06   0.01
   9  16    -0.01   0.20  -0.04    -0.00   0.02  -0.12     0.06  -0.36  -0.23
  10   6    -0.02   0.19  -0.03    -0.04   0.06  -0.05    -0.05   0.00  -0.12
  11  16     0.03   0.14  -0.07    -0.07   0.12  -0.04    -0.17   0.18  -0.23
  12  15    -0.21  -0.01   0.01     0.02   0.03   0.18     0.03   0.15  -0.05
  13  16    -0.56   0.09   0.01     0.22   0.13   0.54    -0.05   0.16  -0.10
  14   8    -0.09   0.02  -0.01    -0.05  -0.14   0.13     0.17   0.09  -0.08
  15   6     0.00   0.00   0.00    -0.13  -0.16   0.03     0.18   0.08  -0.05
  16   6     0.03  -0.04   0.05    -0.16  -0.16  -0.01     0.21   0.07  -0.01
  17   8    -0.11  -0.20   0.04    -0.00   0.08   0.03     0.03   0.11   0.12
  18   6    -0.12  -0.13   0.05     0.07   0.03  -0.03    -0.03  -0.04   0.14
  19   6    -0.11  -0.09   0.08     0.04  -0.06  -0.11    -0.02  -0.16   0.19
  20   1     0.01  -0.03   0.02     0.01   0.01   0.05     0.03   0.03   0.05
  21   1    -0.00  -0.04   0.02    -0.01   0.02   0.05     0.03   0.03   0.05
  22   1     0.00  -0.02   0.01     0.01   0.01   0.03     0.03   0.01   0.04
  23   1     0.02  -0.04   0.03    -0.01   0.02   0.04     0.01   0.03   0.04
  24   1     0.00  -0.03   0.01    -0.02   0.02   0.02     0.01   0.02   0.04
  25   1     0.02   0.00  -0.01    -0.05   0.02  -0.05    -0.06  -0.02  -0.00
  26   1     0.03  -0.01  -0.01    -0.04  -0.01  -0.04    -0.05  -0.04  -0.00
  27   1     0.03   0.00  -0.01    -0.02   0.02  -0.04    -0.07  -0.00   0.01
  28   1     0.03  -0.01  -0.01    -0.03   0.00  -0.04    -0.07  -0.02  -0.01
  29   1     0.04  -0.01  -0.00    -0.01  -0.00  -0.03    -0.05  -0.02   0.01
  30   1    -0.00   0.07  -0.02    -0.02   0.02  -0.02    -0.04   0.00  -0.05
  31   1    -0.02   0.06   0.01    -0.01   0.02  -0.01     0.01   0.02  -0.01
  32   1     0.00  -0.00   0.00    -0.04  -0.03  -0.01     0.05   0.02  -0.01
  33   1     0.01   0.01  -0.01    -0.05  -0.06   0.02     0.06   0.03  -0.02
  34   1     0.01  -0.01   0.01    -0.05  -0.05   0.01     0.06   0.02  -0.01
  35   1     0.00  -0.02   0.02    -0.04  -0.03  -0.01     0.05   0.01   0.01
  36   1     0.02  -0.01   0.01    -0.06  -0.05  -0.01     0.07   0.02  -0.00
  37   1    -0.03  -0.04   0.02     0.01   0.01  -0.00    -0.04  -0.01   0.02
  38   1    -0.04  -0.04   0.01     0.04   0.01  -0.01     0.01  -0.01   0.05
  39   1    -0.03  -0.02   0.03     0.01  -0.02  -0.04     0.02  -0.05   0.06
  40   1    -0.02  -0.02   0.02    -0.01  -0.02  -0.03    -0.02  -0.05   0.05
  41   1    -0.04  -0.02   0.03     0.02  -0.03  -0.04    -0.01  -0.07   0.06
                      4                      5                      6
                        a                      a                      a 
 Frequencies --    60.8842                63.5183                67.7178
 Red. masses --    23.2231                18.1975                16.3877
 Frc consts  --     0.0000                 0.0000                 0.0000
 IR Inten    --     1.3983                 9.7866                 4.0994
 Raman Activ --     0.0000                 0.0000                 0.0000
 Depolar     --     0.0000                 0.0000                 0.0000
 Atom AN      X      Y      Z        X      Y      Z        X      Y      Z
   1   6     0.08   0.07  -0.14    -0.29  -0.04   0.05    -0.18  -0.14   0.01
   2   6     0.16   0.07  -0.10    -0.09  -0.02   0.08    -0.07  -0.11  -0.06
   3   8     0.19   0.16  -0.07     0.08   0.15   0.10    -0.04  -0.10  -0.08
   4  15     0.14  -0.03  -0.05     0.05   0.12  -0.05     0.02  -0.00  -0.03
   5  16    -0.04   0.05   0.05     0.27   0.18  -0.09     0.04   0.42   0.17
   6   8    -0.01  -0.06   0.02    -0.12   0.06   0.03     0.06  -0.14   0.08
   7   6    -0.05  -0.09   0.01    -0.15   0.01  -0.01     0.13   0.01  -0.04
   8   6    -0.09  -0.15  -0.03    -0.16  -0.01  -0.01    -0.05   0.11  -0.10
   9  16     0.43  -0.37  -0.18     0.08  -0.01  -0.23    -0.04  -0.03  -0.18
  10   6    -0.01   0.02   0.05     0.00   0.00  -0.11    -0.04   0.01  -0.10
  11  16     0.08   0.01   0.35     0.12  -0.18  -0.03    -0.04   0.03  -0.05
  12  15    -0.13   0.07   0.08     0.07  -0.21   0.01     0.05   0.01   0.06
  13  16    -0.14   0.04   0.00     0.07  -0.26  -0.08     0.16   0.02   0.13
  14   8    -0.20   0.13   0.10     0.07  -0.14   0.00     0.02   0.01   0.05
  15   6    -0.16   0.10   0.07    -0.09  -0.03   0.07    -0.12   0.09   0.10
  16   6    -0.21   0.04   0.02    -0.07   0.17   0.04    -0.12   0.27   0.05
  17   8    -0.09   0.00  -0.04     0.04  -0.13   0.05     0.04   0.01   0.04
  18   6    -0.02   0.02  -0.07    -0.05   0.11   0.11     0.08  -0.24  -0.01
  19   6    -0.04   0.04  -0.14    -0.01   0.32   0.23     0.05  -0.41  -0.07
  20   1     0.02   0.02  -0.04    -0.09  -0.03   0.01    -0.06  -0.07   0.00
  21   1     0.02   0.01  -0.05    -0.10  -0.04   0.01    -0.06  -0.04   0.01
  22   1     0.02   0.03  -0.04    -0.10   0.03   0.01    -0.06  -0.03   0.02
  23   1     0.05   0.01  -0.03    -0.00  -0.05   0.03    -0.01  -0.05  -0.03
  24   1     0.05   0.02  -0.02    -0.03   0.01   0.02    -0.01  -0.01  -0.01
  25   1    -0.02  -0.02   0.02    -0.06   0.01   0.00     0.06  -0.01  -0.00
  26   1    -0.01  -0.03  -0.00    -0.04  -0.01  -0.01     0.06   0.02  -0.03
  27   1    -0.03  -0.04  -0.00    -0.04   0.00  -0.00    -0.04   0.02  -0.00
  28   1    -0.03  -0.05  -0.01    -0.05  -0.01  -0.00    -0.01   0.05  -0.06
  29   1    -0.02  -0.04  -0.02    -0.04  -0.01  -0.01    -0.03   0.04  -0.04
  30   1    -0.04   0.02  -0.03     0.00   0.02  -0.05    -0.02   0.00  -0.03
  31   1    -0.02   0.02   0.06    -0.02   0.00  -0.02    -0.01   0.00  -0.03
  32   1    -0.03   0.03   0.01    -0.05  -0.01   0.04    -0.05   0.02   0.04
  33   1    -0.05   0.04   0.03    -0.03  -0.03   0.03    -0.04   0.01   0.04
  34   1    -0.08   0.01   0.01     0.00   0.05  -0.01    -0.02   0.09  -0.00
  35   1    -0.05   0.00  -0.00    -0.01   0.06   0.01    -0.03   0.09   0.00
  36   1    -0.06   0.01  -0.00    -0.05   0.07   0.03    -0.06   0.10   0.03
  37   1     0.00   0.00  -0.02     0.01   0.03   0.04    -0.01  -0.08  -0.03
  38   1    -0.00   0.00  -0.02    -0.07   0.03   0.01     0.07  -0.08   0.03
  39   1    -0.02   0.01  -0.04    -0.03   0.10   0.07     0.04  -0.11  -0.01
  40   1    -0.02   0.01  -0.04     0.05   0.10   0.07    -0.03  -0.11  -0.04
  41   1    -0.00   0.01  -0.05    -0.02   0.12   0.08     0.02  -0.16  -0.03
                      7                      8                      9
                        a                      a                      a 
 Frequencies --    72.1493                67.8300                79.8658
 Red. masses --    17.0042                13.5984                16.7626
 Frc consts  --     0.0000                 0.0000                 0.0000
 IR Inten    --     6.9339                 2.3596                 5.2505
 Raman Activ --     0.0000                 0.0000                 0.0000
 Depolar     --     0.0000                 0.0000                 0.0000
 Atom AN      X      Y      Z        X      Y      Z        X      Y      Z
   1   6     0.24   0.08   0.11     0.29   0.20   0.30     0.40   0.05  -0.23
   2   6     0.12   0.09  -0.01     0.05   0.23   0.04     0.06  -0.07  -0.00
   3   8    -0.00  -0.08  -0.05    -0.05  -0.09  -0.12    -0.02  -0.07   0.05
   4  15     0.00  -0.11   0.06    -0.02  -0.01  -0.15     0.02  -0.02   0.06
   5  16    -0.20   0.03   0.20     0.02   0.14  -0.10     0.32   0.13   0.04
   6   8     0.07  -0.10   0.04     0.06  -0.11  -0.04    -0.01  -0.06   0.09
   7   6     0.19   0.13  -0.14     0.08  -0.15   0.15     0.03   0.06  -0.07
   8   6    -0.04   0.32  -0.19     0.28  -0.24   0.22    -0.16   0.18  -0.13
   9  16     0.05  -0.21  -0.01    -0.16   0.08  -0.20    -0.15   0.07  -0.02
  10   6     0.03   0.00  -0.03    -0.10  -0.01  -0.10    -0.10  -0.01   0.00
  11  16    -0.01   0.00  -0.26    -0.10  -0.09  -0.01    -0.11  -0.09   0.14
  12  15    -0.04  -0.14  -0.02    -0.04  -0.07   0.02    -0.06   0.00   0.02
  13  16    -0.19   0.01   0.23     0.08  -0.13  -0.05     0.26  -0.17  -0.17
  14   8     0.04  -0.18  -0.04    -0.04  -0.02   0.02    -0.10   0.01   0.03
  15   6    -0.08  -0.08   0.02    -0.11   0.04   0.07    -0.06  -0.04  -0.03
  16   6    -0.01   0.12   0.04    -0.09   0.16   0.06    -0.11  -0.16  -0.06
  17   8    -0.01  -0.16  -0.02    -0.04   0.01   0.02    -0.08   0.16   0.03
  18   6    -0.02   0.06  -0.00    -0.02   0.01   0.01    -0.13   0.09   0.08
  19   6    -0.01   0.28   0.00    -0.02   0.03  -0.00    -0.11  -0.05   0.17
  20   1     0.07   0.02   0.03     0.10   0.04   0.10     0.13   0.09  -0.06
  21   1     0.08   0.05   0.04     0.09   0.12   0.12     0.13   0.01  -0.08
  22   1     0.08  -0.00   0.04     0.11   0.01   0.09     0.15  -0.03  -0.11
  23   1     0.02   0.06  -0.02    -0.01   0.12  -0.00    -0.02   0.03   0.04
  24   1     0.04   0.03   0.00     0.00   0.08   0.00    -0.01  -0.10  -0.01
  25   1     0.10   0.01  -0.04     0.02  -0.04   0.03     0.03   0.00  -0.01
  26   1     0.09   0.06  -0.07    -0.01  -0.04   0.08     0.04   0.03  -0.05
  27   1    -0.05   0.08  -0.02     0.11  -0.06   0.04    -0.08   0.04  -0.01
  28   1     0.01   0.13  -0.09     0.08  -0.08   0.09    -0.04   0.07  -0.07
  29   1    -0.04   0.11  -0.06     0.09  -0.08   0.08    -0.07   0.06  -0.05
  30   1     0.01   0.01  -0.02    -0.03  -0.00  -0.03    -0.03  -0.00   0.00
  31   1     0.02   0.01   0.01    -0.04  -0.01  -0.03    -0.04  -0.01  -0.00
  32   1    -0.06  -0.02   0.02    -0.05   0.01   0.03     0.01  -0.01  -0.02
  33   1    -0.02  -0.05   0.00    -0.04   0.00   0.02    -0.02  -0.00   0.00
  34   1     0.03   0.04  -0.01    -0.01   0.05   0.00    -0.06  -0.05  -0.00
  35   1    -0.00   0.05   0.02    -0.02   0.05   0.01    -0.03  -0.05  -0.02
  36   1    -0.02   0.05   0.03    -0.04   0.06   0.03    -0.02  -0.06  -0.03
  37   1     0.04   0.01   0.01    -0.00   0.00   0.00    -0.07   0.04   0.02
  38   1    -0.05   0.01  -0.01    -0.01   0.00   0.00    -0.03   0.04   0.01
  39   1    -0.04   0.09   0.01    -0.01   0.01   0.00     0.00  -0.03   0.04
  40   1     0.04   0.09  -0.00    -0.01   0.01  -0.00    -0.04  -0.03   0.06
  41   1    -0.00   0.10   0.00    -0.00   0.01  -0.00    -0.05  -0.02   0.06
                     10                     11                     12
                        a                      a                      a 
 Frequencies --    77.8022                73.5283                92.5268
 Red. masses --    14.0294                11.8437                13.7907
 Frc consts  --     0.0000                 0.0000                 0.0000
 IR Inten    --     0.6798                 0.2873                 4.3907
 Raman Activ --     0.0000                 0.0000                 0.0000
 Depolar     --     0.0000                 0.0000                 0.0000
 Atom AN      X      Y      Z        X      Y      Z        X      Y      Z
   1   6     0.05   0.02  -0.15     0.23   0.02  -0.37     0.15  -0.01  -0.06
   2   6     0.07  -0.00  -0.05     0.01  -0.11  -0.04    -0.07  -0.06   0.00
   3   8     0.04   0.07   0.01    -0.03   0.04   0.08    -0.08  -0.10  -0.02
   4  15     0.03   0.01   0.06    -0.05   0.01   0.08    -0.05  -0.02  -0.03
   5  16    -0.10  -0.23  -0.01     0.14  -0.13  -0.06    -0.01   0.05  -0.01
   6   8     0.03   0.09  -0.03    -0.12   0.04   0.05    -0.03  -0.04  -0.00
   7   6    -0.02  -0.00   0.05    -0.18  -0.05   0.06    -0.06  -0.06  -0.01
   8   6     0.10  -0.06   0.09    -0.10  -0.09   0.09    -0.15  -0.13  -0.07
   9  16     0.09   0.02   0.18    -0.13   0.08   0.06    -0.13   0.10  -0.00
  10   6     0.13   0.01   0.05     0.01   0.01  -0.02    -0.01  -0.01  -0.03
  11  16     0.10   0.09  -0.22     0.00  -0.01  -0.12     0.02   0.01   0.06
  12  15     0.06   0.01  -0.11     0.00  -0.07   0.00     0.17   0.02   0.16
  13  16     0.05   0.08   0.04    -0.03   0.00   0.14    -0.29   0.06  -0.04
  14   8     0.04  -0.07  -0.08    -0.00  -0.03  -0.00     0.27   0.05   0.08
  15   6    -0.27   0.02  -0.06    -0.05   0.07   0.11     0.10   0.09   0.08
  16   6    -0.35   0.23  -0.22     0.16   0.36   0.29    -0.26  -0.01  -0.33
  17   8     0.06  -0.04  -0.01     0.01  -0.09  -0.05     0.14  -0.09   0.20
  18   6    -0.12  -0.04   0.12     0.09  -0.06  -0.11     0.24  -0.08   0.09
  19   6    -0.05  -0.18   0.35     0.06   0.03  -0.21     0.19   0.16  -0.08
  20   1     0.01   0.02  -0.05     0.08   0.09  -0.10     0.07   0.03  -0.00
  21   1     0.02  -0.01  -0.06     0.07  -0.03  -0.13     0.04   0.00  -0.01
  22   1     0.01   0.01  -0.04     0.09  -0.02  -0.15     0.06  -0.03  -0.05
  23   1     0.02  -0.00  -0.02    -0.02  -0.00   0.04    -0.04   0.01   0.04
  24   1     0.03  -0.02  -0.01    -0.02  -0.11  -0.02    -0.05  -0.05  -0.01
  25   1    -0.02   0.01   0.00    -0.07  -0.00   0.01    -0.02  -0.02   0.02
  26   1    -0.02  -0.02   0.03    -0.06  -0.04   0.02    -0.00  -0.01  -0.01
  27   1     0.05  -0.01   0.01    -0.01  -0.01   0.02    -0.06  -0.05  -0.01
  28   1     0.02  -0.03   0.04    -0.04  -0.04   0.03    -0.05  -0.04  -0.02
  29   1     0.04  -0.03   0.04    -0.01  -0.04   0.03    -0.04  -0.03  -0.04
  30   1     0.05  -0.00   0.03     0.01   0.00   0.00     0.00  -0.01   0.00
  31   1     0.06   0.00   0.01     0.00   0.00  -0.01    -0.01  -0.01  -0.02
  32   1    -0.09   0.01  -0.02    -0.09   0.02   0.06     0.12   0.00   0.02
  33   1    -0.11  -0.03   0.02     0.00  -0.02  -0.01    -0.02   0.08   0.12
  34   1    -0.09   0.07  -0.07     0.12   0.10   0.05    -0.17   0.02  -0.09
  35   1    -0.08   0.09  -0.10     0.03   0.14   0.12    -0.03  -0.05  -0.19
  36   1    -0.15   0.08  -0.05     0.03   0.12   0.11    -0.10   0.00  -0.09
  37   1    -0.08   0.00   0.04     0.05  -0.02  -0.03     0.12  -0.05   0.01
  38   1    -0.04   0.00   0.01     0.02  -0.02  -0.02     0.05  -0.05   0.06
  39   1     0.03  -0.07   0.10    -0.01   0.02  -0.06    -0.00   0.07  -0.01
  40   1    -0.01  -0.06   0.12     0.02   0.02  -0.07     0.07   0.07  -0.05
  41   1    -0.05  -0.05   0.13     0.03   0.01  -0.07     0.09   0.05  -0.05
                     13                     14                     15
                        a                      a                      a 
 Frequencies --    95.6530                93.4069               105.5504
 Red. masses --    12.1552                 9.3172                11.4979
 Frc consts  --     0.0000                 0.0000                 0.0000
 IR Inten    --     1.5186                 2.6618                 1.6844
 Raman Activ --     0.0000                 0.0000                 0.0000
 Depolar     --     0.0000                 0.0000                 0.0000
 Atom AN      X      Y      Z        X      Y      Z        X      Y      Z
   1   6     0.03  -0.01   0.15     0.06  -0.01   0.03     0.14  -0.01   0.02
   2   6     0.10   0.06  -0.06    -0.23  -0.09   0.15    -0.40  -0.16   0.24
   3   8    -0.00  -0.10  -0.12    -0.03  -0.05   0.05    -0.06  -0.09   0.08
   4  15     0.07  -0.01  -0.03    -0.01   0.03  -0.04    -0.02   0.06  -0.07
   5  16    -0.07   0.08   0.06    -0.10   0.02  -0.02    -0.18   0.10  -0.01
   6   8     0.13  -0.01  -0.04     0.04   0.05  -0.07     0.05   0.10  -0.12
   7   6    -0.02  -0.13  -0.04     0.07   0.05   0.00     0.05   0.05  -0.00
   8   6    -0.39  -0.43  -0.33     0.01  -0.04  -0.06     0.05  -0.10  -0.05
   9  16    -0.04   0.23   0.19     0.08  -0.06  -0.07     0.17  -0.09  -0.08
  10   6     0.08  -0.00   0.07     0.01   0.02  -0.01     0.06   0.02  -0.02
  11  16     0.09   0.02  -0.00     0.09  -0.07   0.07     0.13   0.03   0.05
  12  15     0.01   0.03  -0.06     0.06  -0.05   0.03    -0.01   0.05  -0.09
  13  16     0.06   0.06   0.05    -0.22  -0.00  -0.04     0.13   0.09   0.07
  14   8    -0.05  -0.01  -0.03     0.09  -0.07   0.01    -0.12   0.09  -0.02
  15   6    -0.04  -0.02  -0.04    -0.02  -0.03   0.01    -0.01   0.03  -0.05
  16   6     0.09   0.04   0.10     0.02   0.09   0.03     0.05  -0.04   0.04
  17   8     0.01   0.01  -0.07     0.04  -0.01  -0.01     0.01  -0.05  -0.10
  18   6    -0.06   0.05  -0.00     0.06   0.50  -0.01    -0.09  -0.27  -0.02
  19   6    -0.03   0.01   0.10     0.03  -0.25  -0.03    -0.03   0.11   0.13
  20   1    -0.01  -0.05   0.03     0.08   0.05   0.05     0.16   0.10   0.07
  21   1     0.02   0.03   0.05    -0.02  -0.01   0.03    -0.02  -0.01   0.04
  22   1     0.00  -0.00   0.08     0.05  -0.03  -0.08     0.10  -0.06  -0.14
  23   1     0.04   0.02  -0.07    -0.10   0.00   0.14    -0.17   0.01   0.24
  24   1     0.05   0.06  -0.00    -0.14  -0.08  -0.00    -0.25  -0.15  -0.01
  25   1    -0.01  -0.05   0.10     0.04   0.00   0.03     0.02   0.01   0.03
  26   1     0.06   0.02  -0.06     0.03   0.05  -0.00     0.02   0.04   0.00
  27   1    -0.17  -0.19  -0.05    -0.01  -0.05  -0.02     0.01  -0.06  -0.02
  28   1    -0.12  -0.14  -0.09     0.01  -0.01   0.00     0.02  -0.04   0.01
  29   1    -0.12  -0.10  -0.20    -0.01   0.00  -0.05     0.01  -0.02  -0.05
  30   1     0.04  -0.01   0.04    -0.00   0.02  -0.02     0.01   0.01  -0.02
  31   1     0.03  -0.01  -0.00    -0.01   0.01   0.01     0.01   0.01   0.01
  32   1    -0.05   0.01  -0.01    -0.03  -0.00   0.01    -0.01   0.02  -0.02
  33   1     0.00  -0.03  -0.04    -0.01  -0.03  -0.00     0.01   0.01  -0.03
  34   1     0.06   0.00   0.03     0.03   0.02   0.01     0.02  -0.02   0.02
  35   1     0.01   0.04   0.06     0.01   0.05   0.01     0.00  -0.01   0.03
  36   1     0.03   0.01   0.03    -0.01   0.03   0.01     0.03  -0.02   0.00
  37   1    -0.03   0.02   0.01    -0.05   0.27   0.17    -0.01  -0.14  -0.09
  38   1    -0.03   0.02  -0.01     0.10   0.27  -0.17    -0.08  -0.14   0.07
  39   1     0.01  -0.00   0.03     0.09  -0.19  -0.16    -0.04   0.09   0.11
  40   1    -0.00  -0.00   0.04    -0.08  -0.19   0.13     0.06   0.09  -0.03
  41   1    -0.03   0.01   0.04     0.01   0.01  -0.01    -0.03  -0.00   0.05
                     16                     17                     18
                        a                      a                      a 
 Frequencies --   137.2054               125.6039               137.8524
 Red. masses --    18.3885                12.6286                14.8339
 Frc consts  --     0.0000                 0.0000                 0.0000
 IR Inten    --    14.1688                 2.2257                 0.1761
 Raman Activ --     0.0000                 0.0000                 0.0000
 Depolar     --     0.0000                 0.0000                 0.0000
 Atom AN      X      Y      Z        X      Y      Z        X      Y      Z
   1   6    -0.05   0.03  -0.04    -0.06   0.05  -0.05     0.06  -0.10   0.03
   2   6     0.00   0.02   0.04     0.00   0.05  -0.02     0.05  -0.10   0.04
   3   8     0.05   0.10   0.08    -0.03   0.07   0.02     0.09  -0.08   0.03
   4  15     0.04   0.07   0.09    -0.06   0.05   0.05     0.14  -0.07   0.01
   5  16    -0.15  -0.26  -0.01     0.06  -0.17  -0.09    -0.26   0.04   0.20
   6   8     0.13   0.12  -0.02     0.04   0.01   0.05     0.02   0.05  -0.06
   7   6     0.23   0.15   0.14     0.22   0.12   0.19    -0.25  -0.15  -0.22
   8   6    -0.04  -0.11  -0.09    -0.07  -0.06  -0.01     0.06  -0.01  -0.03
   9  16     0.03  -0.02  -0.07    -0.05  -0.04  -0.08    -0.01   0.11   0.01
  10   6    -0.11   0.28  -0.01    -0.04   0.02  -0.05    -0.03   0.32  -0.02
  11  16    -0.10   0.20  -0.17     0.00  -0.12  -0.05     0.09   0.14  -0.20
  12  15    -0.04  -0.02   0.16    -0.09  -0.12  -0.11    -0.06  -0.09   0.04
  13  16     0.09  -0.27  -0.32     0.12  -0.01   0.29     0.19  -0.20  -0.03
  14   8     0.05  -0.08   0.09    -0.03   0.11  -0.09    -0.06   0.04   0.04
  15   6    -0.09  -0.09   0.03     0.30   0.25   0.22     0.15   0.12   0.21
  16   6    -0.03  -0.01   0.08    -0.02   0.04  -0.11    -0.05  -0.04   0.02
  17   8    -0.05   0.10   0.21    -0.07  -0.12  -0.13    -0.05  -0.05  -0.02
  18   6     0.08  -0.09   0.08    -0.12   0.03  -0.07    -0.04   0.09  -0.02
  19   6     0.02  -0.01  -0.12    -0.10  -0.03   0.01    -0.05  -0.01  -0.02
  20   1    -0.01   0.02  -0.01    -0.03   0.01  -0.02     0.03  -0.03   0.02
  21   1    -0.02  -0.01  -0.02    -0.01   0.00  -0.03     0.01  -0.03   0.02
  22   1    -0.02   0.02  -0.03    -0.02   0.02  -0.00     0.02  -0.03  -0.00
  23   1     0.00  -0.01   0.02     0.01   0.01  -0.02     0.01  -0.03   0.02
  24   1    -0.00  -0.00   0.01     0.01   0.01   0.00     0.00  -0.03   0.01
  25   1     0.11  -0.00   0.14     0.13  -0.02   0.15    -0.16   0.02  -0.16
  26   1     0.11   0.15   0.02     0.10   0.15   0.04    -0.11  -0.18  -0.05
  27   1    -0.05  -0.14  -0.01    -0.06  -0.14   0.01     0.06   0.14  -0.02
  28   1     0.02  -0.02   0.02     0.03   0.01   0.03    -0.06  -0.05  -0.05
  29   1    -0.06   0.02  -0.12    -0.08   0.04  -0.10     0.11  -0.08   0.08
  30   1    -0.04   0.13  -0.06    -0.01   0.02  -0.03     0.00   0.15  -0.06
  31   1    -0.05   0.11   0.06    -0.03   0.01   0.01    -0.04   0.12   0.06
  32   1    -0.06  -0.01  -0.00     0.23  -0.01   0.13     0.13  -0.01   0.10
  33   1    -0.03  -0.06  -0.00     0.08   0.24   0.13     0.04   0.14   0.10
  34   1     0.03  -0.02   0.04    -0.15   0.08  -0.09    -0.11   0.03  -0.03
  35   1    -0.01   0.04   0.03     0.01  -0.14  -0.10    -0.01  -0.11  -0.03
  36   1    -0.03  -0.01   0.01     0.05   0.05   0.03     0.03   0.01   0.04
  37   1     0.05  -0.05  -0.01    -0.04   0.03   0.01    -0.02   0.05   0.03
  38   1     0.04  -0.05   0.07    -0.04   0.03  -0.05    -0.01   0.05  -0.04
  39   1    -0.02   0.02  -0.02    -0.02  -0.03  -0.02    -0.01  -0.02  -0.04
  40   1    -0.01   0.02  -0.07    -0.02  -0.03   0.03    -0.02  -0.02   0.02
  41   1     0.04  -0.02  -0.06    -0.04   0.02   0.02    -0.01   0.02  -0.01
                     19                     20                     21
                        a                      a                      a 
 Frequencies --   169.2014               178.7418               183.4856
 Red. masses --    20.0129                20.7565                16.6312
 Frc consts  --     0.0000                 0.0000                 0.0000
 IR Inten    --     8.0441                 5.9972                24.8876
 Raman Activ --     0.0000                 0.0000                 0.0000
 Depolar     --     0.0000                 0.0000                 0.0000
 Atom AN      X      Y      Z        X      Y      Z        X      Y      Z
   1   6     0.00  -0.02   0.02     0.02  -0.03  -0.02     0.00  -0.01  -0.06
   2   6     0.07   0.01  -0.03     0.10  -0.05   0.08     0.09  -0.05   0.12
   3   8    -0.04  -0.05  -0.00     0.17   0.08   0.13     0.25   0.16   0.18
   4  15    -0.05  -0.07   0.05     0.18   0.02   0.05     0.23   0.07   0.02
   5  16    -0.14  -0.25  -0.00    -0.21  -0.10   0.14    -0.21  -0.06   0.12
   6   8    -0.08  -0.17   0.15     0.08   0.04   0.02     0.10   0.07   0.00
   7   6     0.03  -0.01   0.08    -0.01  -0.02  -0.04     0.05   0.02  -0.03
   8   6    -0.09   0.12   0.07     0.02  -0.02  -0.03     0.04  -0.04  -0.06
   9  16    -0.23   0.11  -0.27    -0.12   0.18  -0.21    -0.13   0.19  -0.24
  10   6    -0.04   0.22  -0.23    -0.22   0.12  -0.04     0.08  -0.46  -0.18
  11  16     0.32  -0.00   0.15    -0.02  -0.31   0.32    -0.22   0.01  -0.13
  12  15     0.19   0.06  -0.01    -0.05  -0.04  -0.12     0.04   0.04   0.05
  13  16    -0.02   0.11  -0.06    -0.00   0.09   0.19    -0.06   0.03  -0.04
  14   8    -0.19   0.16   0.10     0.23  -0.11  -0.18    -0.13   0.06   0.09
  15   6    -0.12   0.03  -0.03     0.05  -0.07  -0.21    -0.03   0.04   0.11
  16   6    -0.03  -0.10   0.12     0.11   0.16  -0.21    -0.06  -0.09   0.12
  17   8     0.19  -0.16  -0.18    -0.08   0.16   0.05     0.03  -0.01  -0.02
  18   6     0.07  -0.01  -0.06    -0.06  -0.05   0.02     0.03   0.02   0.00
  19   6     0.14  -0.01   0.17    -0.08  -0.01  -0.06     0.04   0.01   0.03
  20   1    -0.03  -0.02  -0.01     0.01  -0.00  -0.00     0.02   0.02  -0.01
  21   1     0.02   0.00  -0.00    -0.01  -0.04  -0.01    -0.03  -0.05  -0.03
  22   1    -0.01  -0.00   0.04    -0.00   0.01  -0.02    -0.01   0.02  -0.05
  23   1     0.03   0.00  -0.05     0.04  -0.03   0.03     0.04  -0.04   0.06
  24   1     0.05   0.02   0.01     0.03  -0.02   0.02     0.01  -0.03   0.03
  25   1     0.04  -0.02   0.02    -0.03   0.01  -0.02     0.00   0.01  -0.00
  26   1     0.02   0.02   0.01    -0.00  -0.03  -0.01     0.02  -0.00  -0.01
  27   1    -0.04   0.02   0.03     0.01   0.03  -0.00     0.01   0.01  -0.01
  28   1    -0.00   0.06   0.00    -0.02  -0.02  -0.02    -0.01  -0.03  -0.02
  29   1    -0.06   0.05   0.02     0.04  -0.03   0.00     0.04  -0.03  -0.02
  30   1    -0.00   0.11  -0.10    -0.05   0.08  -0.05     0.01  -0.26   0.08
  31   1    -0.06   0.08  -0.02    -0.13   0.05   0.03     0.10  -0.20  -0.20
  32   1    -0.06   0.03  -0.04    -0.03  -0.01  -0.06     0.02   0.00   0.03
  33   1    -0.02  -0.02  -0.04     0.01  -0.07  -0.07    -0.00   0.04   0.03
  34   1     0.01  -0.06   0.07     0.09   0.03  -0.06    -0.05  -0.02   0.03
  35   1    -0.02   0.00   0.07     0.04   0.10  -0.06    -0.03  -0.06   0.04
  36   1     0.01  -0.06  -0.00    -0.03   0.06  -0.06     0.02  -0.03   0.04
  37   1     0.01   0.01  -0.00    -0.02  -0.04  -0.03     0.01   0.01   0.01
  38   1    -0.01   0.01  -0.05    -0.01  -0.04   0.04     0.00   0.01  -0.01
  39   1     0.06  -0.01   0.04    -0.03   0.02   0.02     0.02  -0.00   0.01
  40   1     0.08  -0.02   0.08    -0.04   0.02  -0.06     0.01  -0.00   0.02
  41   1    -0.00   0.03   0.08    -0.01  -0.04  -0.03     0.00   0.01   0.01
                     22                     23                     24
                        a                      a                      a 
 Frequencies --   210.4103               221.2184               206.0739
 Red. masses --    15.6583                12.1782                 8.4279
 Frc consts  --     0.0000                 0.0000                 0.0000
 IR Inten    --     1.1276                 3.6459                 9.2270
 Raman Activ --     0.0000                 0.0000                 0.0000
 Depolar     --     0.0000                 0.0000                 0.0000
 Atom AN      X      Y      Z        X      Y      Z        X      Y      Z
   1   6    -0.05   0.08  -0.01    -0.06   0.09  -0.04     0.00  -0.00   0.02
   2   6    -0.17   0.06  -0.00     0.01   0.07   0.05    -0.09   0.01  -0.07
   3   8     0.18   0.12  -0.19     0.12   0.13   0.04    -0.18  -0.12  -0.12
   4  15     0.15  -0.05  -0.19     0.02  -0.12  -0.04    -0.03   0.20   0.13
   5  16    -0.11  -0.12  -0.14     0.03   0.06   0.05     0.03  -0.15  -0.05
   6   8    -0.06  -0.44   0.26    -0.01  -0.06  -0.06     0.17   0.06   0.15
   7   6     0.05  -0.20   0.09     0.02  -0.04  -0.08     0.08   0.02   0.09
   8   6    -0.16   0.16   0.12     0.06  -0.03  -0.06    -0.08   0.02   0.02
   9  16     0.12   0.28   0.08    -0.11  -0.02   0.11     0.09  -0.01  -0.14
  10   6     0.10  -0.01   0.06    -0.11   0.02   0.07     0.05  -0.08  -0.06
  11  16     0.07   0.10  -0.04    -0.22   0.12   0.06     0.02   0.09   0.04
  12  15    -0.07  -0.00   0.02    -0.08   0.03   0.02    -0.09   0.02   0.05
  13  16     0.03  -0.05  -0.01     0.20  -0.06   0.05     0.08  -0.05   0.02
  14   8     0.05  -0.06  -0.02     0.01   0.21   0.00     0.03   0.06  -0.00
  15   6     0.03  -0.03   0.01     0.00   0.08  -0.17     0.01   0.02  -0.08
  16   6     0.02   0.02  -0.02     0.05   0.04  -0.10     0.03   0.03  -0.06
  17   8    -0.07   0.06   0.07     0.04  -0.48   0.02    -0.05  -0.14   0.08
  18   6    -0.05   0.01   0.04     0.05  -0.08   0.02    -0.04  -0.01   0.06
  19   6    -0.09   0.00  -0.06     0.05   0.01   0.00    -0.07   0.02  -0.06
  20   1     0.14   0.03   0.10     0.05   0.03   0.03    -0.03  -0.01  -0.01
  21   1    -0.17  -0.01   0.08    -0.10  -0.02   0.01     0.04   0.04   0.00
  22   1    -0.00   0.06  -0.18    -0.02   0.07  -0.10     0.01  -0.03   0.05
  23   1    -0.06   0.01   0.10     0.01   0.01   0.04    -0.03   0.02  -0.03
  24   1    -0.13  -0.00  -0.05    -0.01   0.01   0.01    -0.02   0.00  -0.02
  25   1     0.05  -0.07  -0.00     0.01  -0.01  -0.03    -0.00   0.02   0.03
  26   1     0.03  -0.06   0.01     0.00  -0.01  -0.02     0.04  -0.01   0.01
  27   1    -0.08   0.04   0.07     0.03  -0.07  -0.05    -0.09   0.39   0.16
  28   1    -0.00   0.11  -0.03     0.07   0.02   0.03    -0.35  -0.17  -0.25
  29   1    -0.10   0.07   0.07    -0.04   0.03  -0.02     0.32  -0.22   0.06
  30   1     0.03  -0.03   0.05    -0.03   0.01   0.02    -0.00  -0.06   0.01
  31   1     0.04  -0.02  -0.02    -0.02   0.01   0.03     0.04  -0.04  -0.05
  32   1     0.01  -0.01   0.01    -0.03   0.06  -0.08    -0.01   0.02  -0.04
  33   1     0.01  -0.00   0.01     0.00  -0.03  -0.07     0.00  -0.02  -0.03
  34   1     0.00   0.02  -0.02     0.08  -0.08   0.08     0.04  -0.03   0.03
  35   1     0.01  -0.01  -0.01     0.04   0.16  -0.03     0.02   0.07  -0.02
  36   1     0.00   0.02   0.01    -0.08  -0.06  -0.14    -0.03  -0.02  -0.06
  37   1    -0.01  -0.00   0.01     0.05   0.01   0.06     0.01   0.01   0.04
  38   1    -0.01  -0.00   0.02    -0.01   0.01  -0.05    -0.01   0.01  -0.00
  39   1    -0.03   0.01  -0.01    -0.09  -0.11  -0.23    -0.07  -0.04  -0.10
  40   1    -0.05   0.01  -0.03     0.11  -0.14   0.22    -0.01  -0.04   0.06
  41   1    -0.01  -0.02  -0.03     0.03   0.30   0.01     0.01   0.11  -0.03
                     25                     26                     27
                        a                      a                      a 
 Frequencies --   224.9022               208.6546               226.2870
 Red. masses --    12.1030                 3.6534                 4.9056
 Frc consts  --     0.0000                 0.0000                 0.0000
 IR Inten    --     1.8584                 1.9140                 3.3078
 Raman Activ --     0.0000                 0.0000                 0.0000
 Depolar     --     0.0000                 0.0000                 0.0000
 Atom AN      X      Y      Z        X      Y      Z        X      Y      Z
   1   6    -0.15   0.23  -0.10    -0.01   0.02  -0.01    -0.08   0.16  -0.09
   2   6    -0.11   0.18   0.03     0.00   0.02  -0.01    -0.17   0.05   0.20
   3   8     0.06   0.19  -0.05    -0.00   0.01  -0.01     0.09   0.11   0.11
   4  15    -0.03  -0.10   0.06    -0.01  -0.02   0.02     0.02  -0.11  -0.11
   5  16     0.14  -0.02   0.07     0.02  -0.00   0.02    -0.03   0.04  -0.04
   6   8     0.16  -0.07  -0.00     0.01   0.00  -0.01     0.02  -0.21   0.02
   7   6     0.12  -0.07  -0.10    -0.00  -0.00  -0.02     0.10  -0.11  -0.05
   8   6     0.09  -0.08  -0.13     0.01  -0.01  -0.02     0.04  -0.02  -0.06
   9  16    -0.16  -0.14   0.16    -0.03  -0.02   0.01    -0.00   0.05   0.07
  10   6    -0.15   0.10   0.07     0.05  -0.01  -0.04     0.00   0.03   0.05
  11  16    -0.14  -0.16  -0.05     0.08  -0.07  -0.12    -0.00   0.03  -0.01
  12  15     0.14  -0.02  -0.06    -0.01  -0.09   0.02    -0.00  -0.00   0.00
  13  16    -0.10   0.08  -0.02    -0.04  -0.08   0.08     0.01  -0.01  -0.00
  14   8    -0.06  -0.04   0.01    -0.01   0.15   0.04     0.01  -0.01  -0.00
  15   6    -0.03  -0.01   0.07     0.08   0.14   0.07     0.01  -0.00   0.01
  16   6    -0.04  -0.04   0.07    -0.02  -0.02  -0.00    -0.00   0.01  -0.01
  17   8     0.10   0.10  -0.13    -0.03   0.03  -0.00     0.00  -0.02  -0.02
  18   6     0.08   0.01  -0.09    -0.04   0.10   0.00     0.00   0.01  -0.02
  19   6     0.15  -0.00   0.11    -0.05  -0.01  -0.02     0.01   0.00   0.00
  20   1     0.10   0.08   0.06     0.03   0.00   0.02    -0.42   0.16  -0.28
  21   1    -0.20  -0.02   0.03    -0.04  -0.01   0.01     0.41   0.12  -0.28
  22   1    -0.05   0.14  -0.21    -0.01   0.02  -0.04    -0.02  -0.10   0.38
  23   1    -0.03   0.04   0.06     0.00   0.00  -0.00    -0.06   0.02   0.12
  24   1    -0.07   0.04  -0.02     0.00   0.01  -0.00    -0.10  -0.02   0.03
  25   1     0.02  -0.01  -0.03    -0.00   0.00  -0.01     0.04  -0.04  -0.02
  26   1     0.04  -0.04  -0.04    -0.00  -0.00  -0.01     0.03  -0.03  -0.02
  27   1    -0.00   0.18   0.04     0.01  -0.01  -0.01    -0.00   0.04   0.01
  28   1    -0.15  -0.12  -0.16     0.01  -0.00   0.00    -0.02  -0.02  -0.06
  29   1     0.21  -0.14  -0.00    -0.00   0.00  -0.01     0.04  -0.03   0.00
  30   1    -0.02   0.09  -0.03     0.02  -0.00  -0.01     0.01   0.01   0.01
  31   1    -0.07   0.06   0.08     0.01  -0.00  -0.01    -0.00   0.01   0.02
  32   1     0.00  -0.01   0.03     0.05   0.04   0.01     0.00  -0.00   0.00
  33   1    -0.01   0.02   0.02     0.02   0.06   0.03     0.00   0.00   0.00
  34   1    -0.04   0.02  -0.02     0.13  -0.28   0.35     0.01  -0.01   0.01
  35   1    -0.03  -0.08   0.03     0.11   0.42  -0.06     0.01   0.02  -0.01
  36   1     0.04   0.01   0.06    -0.30  -0.22  -0.34    -0.02  -0.01  -0.01
  37   1     0.01  -0.00  -0.04    -0.02   0.04   0.02     0.00   0.01   0.00
  38   1     0.02  -0.01  -0.01    -0.00   0.04  -0.02    -0.00   0.01  -0.01
  39   1     0.10   0.04   0.11     0.08   0.09   0.19     0.02   0.01   0.03
  40   1     0.05   0.04  -0.03    -0.11   0.11  -0.19    -0.01   0.02  -0.02
  41   1    -0.00  -0.09   0.06    -0.02  -0.26  -0.02    -0.00  -0.04   0.00
                     28                     29                     30
                        a                      a                      a 
 Frequencies --   275.0384               249.4723               293.9821
 Red. masses --    18.7967                 9.6426                16.4257
 Frc consts  --     0.0000                 0.0000                 0.0000
 IR Inten    --     6.6181                 5.1731                16.4663
 Raman Activ --     0.0000                 0.0000                 0.0000
 Depolar     --     0.0000                 0.0000                 0.0000
 Atom AN      X      Y      Z        X      Y      Z        X      Y      Z
   1   6     0.11  -0.18   0.08     0.01  -0.01   0.01    -0.03   0.05  -0.02
   2   6     0.05  -0.14  -0.03    -0.01  -0.01   0.00    -0.04   0.04  -0.01
   3   8     0.06  -0.06  -0.02     0.01  -0.01  -0.02    -0.06  -0.02  -0.04
   4  15     0.16   0.17  -0.15     0.03   0.03  -0.03    -0.03   0.01   0.09
   5  16    -0.12   0.04  -0.17    -0.01   0.00  -0.03     0.04  -0.06   0.07
   6   8    -0.05   0.03   0.04     0.00  -0.01   0.01     0.05   0.01   0.04
   7   6    -0.02   0.04   0.16    -0.00  -0.01   0.01    -0.02  -0.02  -0.05
   8   6    -0.14   0.08   0.13    -0.02   0.02   0.01     0.03  -0.01  -0.03
   9  16     0.24   0.08   0.05     0.06   0.01   0.04    -0.03   0.00  -0.09
  10   6    -0.22   0.06   0.23    -0.00   0.02   0.02    -0.00  -0.03  -0.04
  11  16    -0.47  -0.05  -0.03     0.05  -0.26  -0.17    -0.04   0.32   0.27
  12  15     0.06  -0.04  -0.05     0.11  -0.05  -0.09    -0.00   0.11   0.12
  13  16    -0.02   0.00  -0.01    -0.13   0.09   0.01    -0.00   0.03  -0.16
  14   8    -0.02  -0.02  -0.01    -0.04  -0.03  -0.01     0.19  -0.40   0.01
  15   6     0.02   0.01   0.04     0.01   0.06   0.15     0.15  -0.20   0.25
  16   6    -0.01  -0.01   0.01    -0.07  -0.06   0.11     0.00   0.07  -0.02
  17   8     0.09  -0.11  -0.19    -0.01   0.45   0.03    -0.00  -0.01  -0.35
  18   6     0.11   0.01  -0.16    -0.01  -0.15   0.01    -0.13  -0.07  -0.24
  19   6     0.22  -0.01   0.14    -0.01   0.00   0.00    -0.04  -0.00   0.07
  20   1     0.00  -0.07   0.01    -0.02  -0.00  -0.01    -0.00   0.02  -0.00
  21   1     0.07  -0.00   0.03     0.03   0.01  -0.01    -0.01   0.01  -0.00
  22   1     0.04  -0.09   0.08     0.01  -0.02   0.03    -0.01   0.02  -0.01
  23   1     0.02  -0.04  -0.01    -0.01  -0.00   0.01    -0.01   0.02  -0.00
  24   1     0.01  -0.04  -0.01    -0.01  -0.00  -0.00    -0.01   0.01  -0.00
  25   1     0.01  -0.00   0.06    -0.00  -0.00   0.00    -0.03   0.01  -0.03
  26   1     0.00   0.04   0.05    -0.00  -0.00   0.00    -0.01  -0.04  -0.02
  27   1    -0.07   0.08   0.08    -0.01   0.01   0.01     0.03  -0.05  -0.04
  28   1    -0.08   0.02  -0.02    -0.01   0.01  -0.01     0.05   0.01   0.03
  29   1    -0.00   0.00   0.04    -0.00   0.00   0.01    -0.03   0.02  -0.01
  30   1    -0.06   0.06   0.03     0.02   0.04  -0.02    -0.03  -0.05   0.02
  31   1    -0.08   0.03   0.11    -0.03   0.02   0.04     0.03  -0.02  -0.05
  32   1     0.01  -0.01   0.02     0.03  -0.01   0.06     0.08  -0.10   0.12
  33   1     0.00   0.02   0.02     0.00   0.06   0.06     0.03   0.01   0.11
  34   1     0.01  -0.04   0.05     0.01  -0.12   0.17     0.05  -0.03   0.06
  35   1     0.01   0.05  -0.01     0.02   0.12   0.01     0.07   0.15  -0.08
  36   1    -0.04  -0.03  -0.04    -0.11  -0.10  -0.10    -0.16   0.01  -0.06
  37   1     0.02   0.01  -0.03    -0.02  -0.10  -0.09    -0.06  -0.03  -0.10
  38   1     0.01   0.01  -0.06     0.01  -0.10   0.10    -0.07  -0.04  -0.05
  39   1     0.13   0.02   0.11    -0.16  -0.15  -0.29    -0.00  -0.02  -0.01
  40   1     0.10   0.02   0.01     0.13  -0.18   0.28     0.06  -0.03   0.07
  41   1    -0.01  -0.06   0.09     0.02   0.40   0.01    -0.07   0.07   0.07
                     31                     32                     33
                        a                      a                      a 
 Frequencies --   290.7906               347.0293               369.8294
 Red. masses --    15.8849                17.5720                16.9540
 Frc consts  --     0.0000                 0.0000                 0.0000
 IR Inten    --     4.2385                11.5929                18.6775
 Raman Activ --     0.0000                 0.0000                 0.0000
 Depolar     --     0.0000                 0.0000                 0.0000
 Atom AN      X      Y      Z        X      Y      Z        X      Y      Z
   1   6    -0.06   0.11  -0.00     0.01  -0.01   0.01    -0.05   0.08  -0.10
   2   6    -0.22   0.09  -0.09    -0.02  -0.01  -0.02     0.20   0.03   0.20
   3   8    -0.13  -0.10  -0.28     0.04   0.01  -0.05    -0.30  -0.20   0.39
   4  15     0.13   0.25   0.26     0.05   0.01  -0.01    -0.21   0.19   0.01
   5  16     0.10  -0.22   0.14     0.01  -0.00   0.00    -0.10   0.05  -0.22
   6   8     0.29   0.08   0.22     0.02   0.04  -0.01     0.04  -0.24   0.22
   7   6    -0.13  -0.13  -0.14    -0.01   0.00   0.02     0.06  -0.11  -0.15
   8   6     0.00   0.01  -0.03    -0.02   0.02   0.02     0.11  -0.06  -0.13
   9  16     0.13   0.02  -0.12    -0.01  -0.02   0.03     0.27   0.13  -0.08
  10   6    -0.07  -0.03  -0.00    -0.09   0.02   0.04     0.00   0.01   0.08
  11  16    -0.16  -0.10  -0.05    -0.07  -0.16   0.02    -0.03   0.00   0.00
  12  15     0.00  -0.04  -0.04     0.18   0.16  -0.18    -0.05  -0.00  -0.10
  13  16    -0.01  -0.01   0.04     0.15   0.39  -0.18     0.02   0.05  -0.01
  14   8    -0.05   0.09  -0.01     0.15  -0.18  -0.10     0.00  -0.05  -0.08
  15   6    -0.03   0.05  -0.06    -0.08   0.02   0.18    -0.02   0.02   0.03
  16   6    -0.00  -0.02   0.00    -0.12  -0.12   0.22    -0.03  -0.03   0.05
  17   8     0.02  -0.02   0.04     0.14  -0.33   0.08    -0.01  -0.03   0.06
  18   6     0.07   0.02   0.01    -0.11   0.00   0.22     0.05   0.01   0.03
  19   6     0.08   0.00   0.02    -0.27   0.01  -0.16     0.05   0.00   0.00
  20   1    -0.06   0.04  -0.03    -0.00  -0.01  -0.00     0.02   0.06  -0.01
  21   1     0.05   0.07  -0.02     0.02   0.01   0.00    -0.10  -0.10  -0.05
  22   1    -0.00  -0.02   0.06     0.01  -0.02   0.02    -0.05   0.12  -0.12
  23   1    -0.08   0.05   0.02    -0.01  -0.00   0.01     0.08   0.02  -0.08
  24   1    -0.11   0.02  -0.06    -0.02  -0.00  -0.02     0.17   0.01   0.13
  25   1    -0.14   0.03  -0.12    -0.01   0.00   0.00    -0.01  -0.01  -0.08
  26   1    -0.05  -0.18  -0.06    -0.00  -0.00   0.00     0.02  -0.08  -0.06
  27   1     0.05  -0.18  -0.10    -0.01   0.00   0.01     0.05  -0.03  -0.06
  28   1     0.18   0.11   0.11     0.00   0.01   0.00     0.05  -0.02  -0.01
  29   1    -0.18   0.12  -0.00    -0.01   0.01   0.01     0.02  -0.01  -0.03
  30   1    -0.02  -0.00  -0.01    -0.01   0.05  -0.02    -0.00   0.01   0.02
  31   1    -0.03  -0.01   0.00    -0.05   0.02   0.05    -0.01   0.00   0.02
  32   1    -0.02   0.02  -0.03    -0.00  -0.02   0.09     0.00  -0.01   0.02
  33   1    -0.01   0.00  -0.03    -0.03   0.04   0.07    -0.01   0.03   0.01
  34   1    -0.01   0.00  -0.01    -0.06  -0.07   0.12    -0.02  -0.02   0.03
  35   1    -0.01  -0.03   0.02    -0.04  -0.04   0.08    -0.01  -0.00   0.02
  36   1     0.03  -0.01   0.01    -0.01  -0.08   0.01    -0.00  -0.03  -0.00
  37   1     0.02   0.01   0.01    -0.02   0.02   0.11     0.02   0.01   0.02
  38   1     0.02   0.01  -0.00    -0.05   0.03   0.01     0.02   0.01   0.00
  39   1     0.03   0.00   0.01    -0.14   0.02  -0.04     0.02   0.00   0.00
  40   1     0.02   0.00  -0.00    -0.17   0.03  -0.11     0.01   0.00  -0.00
  41   1     0.02  -0.01   0.01     0.03  -0.04  -0.13     0.01  -0.00   0.00
                     34                     35                     36
                        a                      a                      a 
 Frequencies --   381.6428               398.2332               415.9452
 Red. masses --    18.7689                13.6919                24.2126
 Frc consts  --     0.0000                 0.0000                 0.0000
 IR Inten    --     7.5339                 3.4103                25.8469
 Raman Activ --     0.0000                 0.0000                 0.0000
 Depolar     --     0.0000                 0.0000                 0.0000
 Atom AN      X      Y      Z        X      Y      Z        X      Y      Z
   1   6    -0.00   0.01  -0.01    -0.15   0.25  -0.15    -0.03   0.05  -0.01
   2   6     0.05  -0.00   0.05     0.08   0.14   0.21    -0.06   0.05  -0.05
   3   8    -0.04  -0.04   0.08    -0.09  -0.47  -0.01    -0.05  -0.08  -0.11
   4  15     0.02   0.11  -0.02     0.20  -0.21  -0.12    -0.11  -0.29   0.07
   5  16    -0.04   0.03  -0.10    -0.00   0.02   0.11     0.12  -0.12   0.34
   6   8     0.06  -0.04   0.07     0.12   0.21  -0.30    -0.38  -0.08  -0.05
   7   6     0.01  -0.04  -0.02    -0.03  -0.07   0.17    -0.03   0.22  -0.03
   8   6     0.01  -0.00  -0.01    -0.20   0.12   0.21     0.11  -0.08  -0.08
   9  16     0.01  -0.04   0.04     0.05   0.02  -0.04     0.38   0.41  -0.17
  10   6    -0.04   0.01   0.04    -0.00  -0.01  -0.01    -0.05  -0.00   0.04
  11  16    -0.10  -0.06  -0.12    -0.02   0.01   0.01    -0.12  -0.03  -0.04
  12  15     0.44  -0.06   0.31     0.01  -0.01  -0.01     0.08  -0.04   0.02
  13  16    -0.11  -0.09   0.02    -0.00  -0.01   0.01    -0.02  -0.03   0.02
  14   8     0.08   0.23   0.30     0.01   0.00  -0.00     0.10   0.06   0.01
  15   6     0.02  -0.03  -0.09    -0.00   0.01  -0.00    -0.04   0.05  -0.02
  16   6     0.06   0.04  -0.10    -0.00   0.00   0.00    -0.02  -0.03   0.03
  17   8     0.17   0.03  -0.27     0.00   0.00  -0.00     0.03   0.00  -0.06
  18   6    -0.27  -0.03  -0.03     0.00  -0.00  -0.00    -0.04  -0.00  -0.02
  19   6    -0.35   0.00  -0.09     0.00   0.00  -0.00    -0.04   0.00  -0.01
  20   1     0.00   0.01  -0.00    -0.06   0.16  -0.06    -0.01   0.02  -0.00
  21   1    -0.01  -0.02  -0.01    -0.08  -0.08  -0.12    -0.01   0.02  -0.00
  22   1    -0.01   0.02  -0.02    -0.09   0.17  -0.10    -0.00   0.01  -0.00
  23   1     0.02   0.00  -0.01     0.02   0.06   0.01    -0.02   0.02  -0.01
  24   1     0.03  -0.00   0.02     0.04   0.06   0.07    -0.03   0.02  -0.02
  25   1    -0.01  -0.00  -0.02    -0.02  -0.02   0.07     0.07   0.01   0.03
  26   1     0.00  -0.03  -0.01    -0.02   0.00   0.07    -0.01   0.15   0.01
  27   1     0.00  -0.01  -0.01    -0.11   0.05   0.11     0.07  -0.00  -0.05
  28   1     0.02   0.01  -0.00    -0.03   0.10  -0.03    -0.03  -0.11   0.04
  29   1    -0.01   0.01  -0.00    -0.10   0.06   0.09     0.11  -0.07  -0.07
  30   1    -0.00   0.03  -0.01    -0.00  -0.01   0.00    -0.01  -0.01   0.03
  31   1    -0.02   0.02   0.04     0.00  -0.01  -0.01    -0.02  -0.01  -0.01
  32   1    -0.04   0.05  -0.09    -0.00   0.00  -0.00    -0.02   0.03  -0.02
  33   1    -0.00  -0.10  -0.04    -0.00  -0.00  -0.00    -0.02  -0.01  -0.01
  34   1     0.02   0.05  -0.09    -0.00   0.00   0.00    -0.02  -0.01   0.02
  35   1     0.01  -0.02  -0.03    -0.00  -0.00   0.00    -0.02  -0.03   0.03
  36   1     0.03   0.05   0.03     0.00  -0.00   0.00     0.03  -0.02   0.00
  37   1    -0.11  -0.02  -0.04    -0.00  -0.00  -0.00    -0.02  -0.00  -0.01
  38   1    -0.11  -0.02  -0.00    -0.00  -0.00   0.00    -0.02  -0.00  -0.01
  39   1    -0.14   0.00  -0.04     0.00   0.00   0.00    -0.02   0.00  -0.00
  40   1    -0.13   0.00  -0.04     0.00   0.00  -0.00    -0.01   0.00  -0.00
  41   1    -0.05   0.01  -0.07    -0.00  -0.00   0.00    -0.01   0.00  -0.01
                     37                     38                     39
                        a                      a                      a 
 Frequencies --   426.0514               433.5862               455.4638
 Red. masses --    23.6734                17.9696                19.8610
 Frc consts  --     0.0000                 0.0000                 0.0000
 IR Inten    --    58.8754               124.9502               166.0442
 Raman Activ --     0.0000                 0.0000                 0.0000
 Depolar     --     0.0000                 0.0000                 0.0000
 Atom AN      X      Y      Z        X      Y      Z        X      Y      Z
   1   6    -0.01   0.01  -0.01     0.01  -0.02   0.01    -0.06   0.10  -0.04
   2   6     0.00   0.01   0.01     0.01  -0.01  -0.00     0.02   0.05   0.08
   3   8    -0.01  -0.03   0.00     0.01   0.04   0.03     0.03  -0.32  -0.15
   4  15    -0.01  -0.02   0.01    -0.05   0.00   0.01     0.47   0.25  -0.08
   5  16     0.01  -0.01   0.03    -0.01   0.02  -0.04    -0.06  -0.01  -0.05
   6   8    -0.03  -0.01   0.00     0.08   0.02  -0.02    -0.35  -0.10   0.26
   7   6    -0.01   0.02  -0.00     0.01  -0.06   0.01    -0.10   0.30  -0.04
   8   6     0.01  -0.01  -0.00    -0.03   0.02   0.02     0.12  -0.08  -0.09
   9  16     0.09   0.07  -0.01    -0.01  -0.01   0.01    -0.23  -0.20   0.10
  10   6    -0.03  -0.03   0.00     0.01  -0.03  -0.02     0.04   0.00   0.03
  11  16     0.09  -0.42  -0.25     0.11  -0.23  -0.15     0.05  -0.01   0.00
  12  15    -0.21   0.33   0.31    -0.30   0.22   0.27    -0.06   0.04   0.02
  13  16     0.11   0.24  -0.16     0.03  -0.02  -0.00     0.01  -0.00  -0.00
  14   8    -0.30  -0.05   0.20     0.59   0.09  -0.01     0.07  -0.01  -0.01
  15   6     0.14  -0.23   0.06    -0.13   0.18  -0.03    -0.01   0.02   0.00
  16   6     0.10   0.12  -0.16    -0.10  -0.12   0.15    -0.01  -0.01   0.02
  17   8    -0.07  -0.14   0.03    -0.15  -0.03  -0.12    -0.03  -0.01   0.00
  18   6     0.03  -0.00  -0.01    -0.06  -0.01  -0.24     0.00  -0.00  -0.03
  19   6     0.04  -0.00   0.02     0.05  -0.00   0.05     0.02  -0.00   0.01
  20   1    -0.00   0.01  -0.00     0.00  -0.01   0.00    -0.04   0.06  -0.03
  21   1    -0.00  -0.00  -0.01     0.00   0.00   0.01    -0.02  -0.03  -0.05
  22   1    -0.00   0.01  -0.01     0.00  -0.01   0.00    -0.04   0.07  -0.03
  23   1     0.00   0.00  -0.00     0.00  -0.01  -0.00    -0.00   0.03   0.02
  24   1     0.00   0.00   0.00     0.01  -0.01   0.00    -0.02   0.03   0.00
  25   1     0.00   0.00   0.00    -0.01  -0.01  -0.00     0.03   0.05   0.01
  26   1    -0.00   0.01  -0.00     0.00  -0.03  -0.00    -0.02   0.12  -0.01
  27   1     0.01  -0.00  -0.01    -0.02   0.00   0.01     0.09  -0.04  -0.09
  28   1     0.00  -0.01   0.01     0.01   0.03  -0.01    -0.02  -0.12   0.10
  29   1     0.01  -0.00  -0.00    -0.03   0.02   0.02     0.12  -0.06  -0.10
  30   1     0.04   0.05  -0.03     0.03   0.02  -0.02     0.01   0.01  -0.01
  31   1    -0.05   0.01   0.04    -0.01  -0.00   0.01     0.01   0.01   0.02
  32   1     0.06  -0.07   0.02    -0.08   0.10  -0.06    -0.01   0.01  -0.00
  33   1     0.05  -0.02   0.01    -0.06  -0.05  -0.00    -0.01  -0.00   0.00
  34   1     0.08   0.06  -0.10    -0.08  -0.05   0.08    -0.01  -0.01   0.01
  35   1     0.08   0.09  -0.12    -0.08  -0.11   0.11    -0.01  -0.01   0.01
  36   1    -0.10   0.10   0.01     0.11  -0.08   0.01     0.01  -0.01  -0.00
  37   1     0.02   0.01   0.02    -0.01  -0.00  -0.07     0.00  -0.00  -0.01
  38   1     0.01   0.01  -0.02    -0.02  -0.01  -0.06     0.00  -0.00  -0.01
  39   1     0.02   0.00   0.01     0.07  -0.00   0.03     0.01   0.00   0.01
  40   1     0.02   0.00   0.01     0.07  -0.00   0.03     0.01  -0.00   0.00
  41   1    -0.00  -0.00   0.02    -0.06   0.00   0.07    -0.01  -0.00   0.01
                     40                     41                     42
                        a                      a                      a 
 Frequencies --   639.8765               645.1779               691.4184
 Red. masses --    23.9655                25.4633                18.3019
 Frc consts  --     0.0000                 0.0000                 0.0000
 IR Inten    --   159.1180               185.2500                31.9714
 Raman Activ --     0.0000                 0.0000                 0.0000
 Depolar     --     0.0000                 0.0000                 0.0000
 Atom AN      X      Y      Z        X      Y      Z        X      Y      Z
   1   6     0.01  -0.01  -0.01    -0.00   0.00  -0.00    -0.00   0.00   0.00
   2   6    -0.05   0.01  -0.07    -0.00   0.00  -0.00     0.02  -0.00   0.02
   3   8    -0.20   0.09   0.17    -0.00   0.00   0.00     0.05   0.00  -0.06
   4  15     0.09   0.44  -0.32     0.01  -0.00  -0.00    -0.04  -0.18   0.12
   5  16     0.14  -0.22   0.44    -0.00  -0.00   0.00    -0.03   0.06  -0.11
   6   8    -0.17  -0.15  -0.30    -0.01   0.00  -0.00     0.08   0.06   0.08
   7   6     0.09  -0.21  -0.03     0.00  -0.00   0.00    -0.03   0.07   0.01
   8   6     0.01   0.00  -0.01     0.00  -0.00  -0.00    -0.01   0.01   0.01
   9  16    -0.11  -0.06  -0.11    -0.02  -0.01  -0.02    -0.22  -0.01  -0.46
  10   6     0.09   0.01   0.24     0.09   0.05  -0.00     0.16   0.01   0.73
  11  16     0.04   0.01  -0.03    -0.04   0.05   0.03     0.11   0.02  -0.09
  12  15    -0.01   0.02   0.00     0.02  -0.60  -0.00    -0.01  -0.01   0.02
  13  16    -0.00  -0.00   0.00     0.14   0.49  -0.20    -0.00   0.01  -0.00
  14   8     0.00  -0.00  -0.00     0.11   0.16   0.24    -0.01   0.00  -0.02
  15   6    -0.00  -0.00   0.00     0.02  -0.07   0.05    -0.00   0.00  -0.01
  16   6    -0.00  -0.00  -0.00    -0.00  -0.01  -0.00     0.00   0.00  -0.00
  17   8     0.00  -0.00  -0.00    -0.33  -0.02   0.16     0.04   0.01  -0.02
  18   6    -0.00  -0.00   0.00    -0.05  -0.00  -0.18     0.01   0.00   0.02
  19   6    -0.00  -0.00  -0.00     0.02   0.00  -0.01     0.00   0.00   0.00
  20   1     0.02  -0.03   0.01     0.00  -0.00   0.00    -0.01   0.00  -0.00
  21   1     0.00   0.04   0.03     0.00   0.00   0.00    -0.00  -0.01  -0.01
  22   1     0.02  -0.03   0.00     0.00  -0.00   0.00    -0.01   0.01   0.00
  23   1    -0.00  -0.00  -0.08    -0.00   0.00  -0.00     0.00   0.00   0.02
  24   1     0.04  -0.00   0.02     0.00   0.00   0.00    -0.02  -0.00  -0.01
  25   1     0.08  -0.09   0.02     0.00   0.00  -0.00    -0.03   0.03  -0.01
  26   1     0.01   0.02   0.02    -0.00   0.00   0.00    -0.00  -0.01  -0.01
  27   1    -0.03   0.03   0.04    -0.00   0.00   0.00     0.01  -0.01  -0.01
  28   1     0.03   0.06  -0.09    -0.00  -0.00  -0.00    -0.01  -0.02   0.03
  29   1    -0.04   0.02   0.05    -0.00   0.00  -0.00     0.01  -0.00  -0.02
  30   1     0.01   0.01   0.04     0.00  -0.02   0.02     0.01  -0.01   0.18
  31   1     0.00  -0.00   0.06     0.03   0.00  -0.02     0.04  -0.03   0.14
  32   1     0.00  -0.00  -0.00    -0.04   0.03  -0.04     0.00  -0.00  -0.00
  33   1     0.00   0.00  -0.00    -0.00  -0.10   0.00     0.00   0.01  -0.00
  34   1     0.00  -0.00   0.00    -0.00   0.02  -0.03     0.00  -0.00   0.00
  35   1     0.00  -0.00  -0.00     0.02  -0.00  -0.03    -0.00   0.00   0.00
  36   1     0.00  -0.00  -0.00    -0.03   0.02   0.02     0.00  -0.00  -0.00
  37   1     0.00   0.00   0.00     0.02   0.01  -0.02    -0.00  -0.00   0.00
  38   1     0.00   0.00   0.00     0.01   0.01  -0.05    -0.00  -0.00   0.01
  39   1    -0.00  -0.00  -0.00     0.06   0.00   0.03    -0.01  -0.00  -0.00
  40   1    -0.00   0.00  -0.00     0.07  -0.00   0.02    -0.01   0.00  -0.00
  41   1     0.00   0.00  -0.00    -0.08   0.00   0.07     0.01  -0.00  -0.01
                     43                     44                     45
                        a                      a                      a 
 Frequencies --   726.4220               749.0492               757.5934
 Red. masses --    16.7783                18.4141                18.1736
 Frc consts  --     0.0000                 0.0000                 0.0000
 IR Inten    --    36.7486               230.9112               135.5819
 Raman Activ --     0.0000                 0.0000                 0.0000
 Depolar     --     0.0000                 0.0000                 0.0000
 Atom AN      X      Y      Z        X      Y      Z        X      Y      Z
   1   6    -0.00   0.00   0.00     0.03  -0.05   0.03    -0.00   0.00  -0.00
   2   6    -0.00   0.00  -0.00     0.19  -0.03   0.18    -0.01   0.00  -0.01
   3   8     0.00   0.00  -0.01     0.24  -0.11  -0.30    -0.01   0.00   0.01
   4  15     0.00  -0.02   0.09    -0.16   0.31   0.48     0.02  -0.00   0.02
   5  16    -0.02   0.02  -0.04    -0.02   0.04  -0.11    -0.00   0.00  -0.01
   6   8    -0.03  -0.02  -0.05    -0.22  -0.12  -0.33    -0.01  -0.01  -0.01
   7   6     0.00  -0.03  -0.01     0.04  -0.21  -0.05     0.01  -0.01   0.00
   8   6     0.00  -0.00  -0.00     0.04  -0.02  -0.04     0.00   0.00   0.00
   9  16    -0.04   0.00  -0.07     0.01   0.01  -0.02     0.00  -0.00   0.01
  10   6     0.74   0.29  -0.13    -0.07  -0.02   0.02    -0.01  -0.01  -0.02
  11  16    -0.43  -0.20   0.15     0.03   0.01  -0.01    -0.00   0.02   0.00
  12  15     0.02   0.10   0.00    -0.00  -0.01   0.00     0.16  -0.19   0.53
  13  16    -0.01  -0.05   0.02     0.00   0.01  -0.00     0.03   0.15  -0.08
  14   8    -0.01  -0.03  -0.01     0.00   0.00  -0.00    -0.21  -0.31  -0.33
  15   6    -0.00   0.01  -0.01     0.00  -0.00   0.00    -0.10   0.32  -0.26
  16   6     0.00   0.00  -0.00    -0.00  -0.00   0.00     0.06   0.05  -0.10
  17   8    -0.02  -0.02  -0.00     0.00   0.00  -0.00    -0.07  -0.00   0.01
  18   6     0.00  -0.01   0.00     0.00  -0.00   0.00    -0.01  -0.00  -0.03
  19   6     0.00  -0.00   0.00     0.00  -0.00   0.00    -0.02   0.00  -0.00
  20   1    -0.00  -0.00   0.00    -0.06   0.01  -0.03     0.00   0.00   0.00
  21   1    -0.00   0.00   0.00    -0.01  -0.15  -0.07     0.00   0.01   0.00
  22   1    -0.00   0.00   0.00    -0.06   0.11   0.01     0.00  -0.01  -0.00
  23   1    -0.00   0.00   0.00     0.01   0.02   0.18    -0.00  -0.00  -0.01
  24   1    -0.00  -0.00  -0.00    -0.09  -0.04  -0.04     0.00   0.00   0.00
  25   1     0.02  -0.02   0.01     0.11  -0.13   0.07     0.00  -0.00  -0.00
  26   1     0.00   0.01   0.00     0.02   0.09   0.01    -0.00  -0.00   0.00
  27   1    -0.00   0.01   0.00    -0.00   0.06   0.02    -0.00  -0.00   0.00
  28   1     0.01   0.01  -0.01     0.05   0.08  -0.11     0.00   0.00  -0.01
  29   1    -0.00   0.00   0.01    -0.04   0.01   0.09    -0.00   0.00  -0.01
  30   1     0.18   0.11  -0.08    -0.02  -0.01   0.02    -0.00  -0.00  -0.01
  31   1     0.11   0.09   0.01     0.00  -0.01  -0.01    -0.00  -0.00   0.00
  32   1     0.01  -0.01   0.01    -0.00   0.00  -0.00     0.09  -0.04   0.05
  33   1    -0.00   0.01   0.00     0.00  -0.00  -0.00    -0.04   0.26   0.01
  34   1     0.00  -0.00   0.00    -0.00   0.00   0.00     0.03  -0.05   0.06
  35   1    -0.00   0.00   0.01     0.00  -0.00  -0.00    -0.08  -0.01   0.13
  36   1     0.00  -0.00  -0.00    -0.00   0.00   0.00     0.20  -0.08  -0.11
  37   1     0.00  -0.00   0.00    -0.00   0.00   0.00     0.01  -0.00  -0.00
  38   1    -0.00   0.00  -0.01     0.00   0.00  -0.00     0.00   0.00  -0.01
  39   1     0.00   0.00   0.00    -0.00   0.00  -0.00     0.01   0.00   0.01
  40   1     0.00   0.00   0.00    -0.00   0.00  -0.00     0.01  -0.00   0.00
  41   1    -0.00  -0.00   0.00     0.00   0.00  -0.00    -0.02   0.00   0.02
                     46                     47                     48
                        a                      a                      a 
 Frequencies --   765.8505               784.7298               800.4340
 Red. masses --    20.8772                20.0072                 5.2952
 Frc consts  --     0.0000                 0.0000                 0.0000
 IR Inten    --   203.3924               266.2482                 4.9542
 Raman Activ --     0.0000                 0.0000                 0.0000
 Depolar     --     0.0000                 0.0000                 0.0000
 Atom AN      X      Y      Z        X      Y      Z        X      Y      Z
   1   6     0.05  -0.09   0.04     0.00  -0.00   0.00    -0.00   0.00  -0.00
   2   6     0.23  -0.05   0.25     0.01  -0.00   0.01    -0.01   0.00  -0.01
   3   8     0.23  -0.05  -0.27     0.01  -0.00  -0.01     0.00  -0.00   0.01
   4  15    -0.46   0.16  -0.43    -0.02  -0.00  -0.01     0.02  -0.02   0.04
   5  16     0.09  -0.12   0.24     0.00  -0.00   0.00    -0.00   0.01  -0.02
   6   8     0.17   0.04   0.19     0.02   0.00   0.01     0.00   0.01  -0.01
   7   6    -0.04   0.15   0.04    -0.01   0.01  -0.00    -0.01  -0.01  -0.01
   8   6    -0.03   0.02   0.03    -0.01   0.00   0.00    -0.00  -0.00  -0.00
   9  16    -0.02  -0.02   0.02    -0.00  -0.00  -0.02    -0.04   0.10  -0.02
  10   6     0.08  -0.00  -0.02    -0.05   0.01   0.05     0.14  -0.50  -0.01
  11  16    -0.03   0.00   0.01     0.04  -0.02  -0.02     0.01   0.16   0.01
  12  15    -0.01  -0.02   0.02     0.50   0.33  -0.13     0.01  -0.02  -0.02
  13  16     0.00   0.01  -0.01    -0.05  -0.17   0.07    -0.00  -0.01   0.00
  14   8    -0.01  -0.01  -0.01    -0.06  -0.03  -0.03     0.00   0.01  -0.01
  15   6    -0.00   0.02  -0.01    -0.00  -0.02   0.01     0.00  -0.01   0.01
  16   6     0.00   0.00  -0.01    -0.00  -0.00   0.01    -0.00   0.00   0.00
  17   8     0.01   0.00  -0.01    -0.45  -0.13   0.36    -0.02   0.01   0.04
  18   6     0.00   0.00   0.00    -0.10  -0.04  -0.28    -0.01  -0.00  -0.03
  19   6     0.00  -0.00   0.00    -0.06  -0.00  -0.07    -0.01  -0.00  -0.01
  20   1    -0.06   0.02  -0.04    -0.00   0.00  -0.00     0.00  -0.00   0.00
  21   1    -0.01  -0.19  -0.09    -0.00  -0.01  -0.00    -0.00   0.01   0.00
  22   1    -0.06   0.11  -0.00    -0.00   0.00  -0.00     0.00  -0.00   0.00
  23   1     0.02   0.02   0.17     0.00   0.00   0.01    -0.00   0.00  -0.00
  24   1    -0.06  -0.02  -0.01    -0.00  -0.00  -0.00    -0.00  -0.00  -0.00
  25   1    -0.08   0.09  -0.06    -0.00  -0.00   0.01     0.01  -0.01   0.02
  26   1    -0.02  -0.07   0.00     0.01   0.01  -0.01     0.01   0.02  -0.01
  27   1    -0.00  -0.04  -0.01     0.01   0.00  -0.01     0.01   0.01  -0.01
  28   1    -0.04  -0.05   0.07     0.00  -0.00   0.01     0.01   0.01   0.00
  29   1     0.03  -0.01  -0.07     0.00  -0.00   0.01    -0.00  -0.00   0.02
  30   1     0.02   0.03  -0.04    -0.01  -0.01   0.03     0.03   0.32  -0.48
  31   1    -0.02   0.01   0.03     0.01  -0.01  -0.02    -0.26   0.10   0.52
  32   1     0.00  -0.00   0.00     0.01  -0.02   0.02    -0.00  -0.00   0.00
  33   1    -0.00   0.01   0.00     0.00   0.03   0.00     0.00  -0.00  -0.00
  34   1     0.00  -0.00   0.00     0.00   0.00  -0.00    -0.00   0.00  -0.00
  35   1    -0.00  -0.00   0.01     0.00   0.00  -0.00     0.00  -0.00  -0.00
  36   1     0.01  -0.00  -0.01    -0.01   0.00   0.01    -0.00   0.00   0.00
  37   1    -0.00  -0.00  -0.00     0.02   0.04   0.01     0.00   0.00  -0.00
  38   1    -0.00  -0.00   0.00     0.05   0.03  -0.11     0.00   0.00  -0.00
  39   1    -0.00  -0.00  -0.00     0.10   0.02   0.06     0.01   0.00   0.00
  40   1    -0.00   0.00  -0.00     0.16   0.00   0.03     0.01  -0.00   0.00
  41   1     0.00  -0.00  -0.00    -0.21   0.02   0.14    -0.02   0.00   0.01
                     49                     50                     51
                        a                      a                      a 
 Frequencies --   816.7353               822.2147               825.3553
 Red. masses --     3.0126                 3.0245                 2.2224
 Frc consts  --     0.0000                 0.0000                 0.0000
 IR Inten    --     5.0662                 1.7508                 2.6175
 Raman Activ --     0.0000                 0.0000                 0.0000
 Depolar     --     0.0000                 0.0000                 0.0000
 Atom AN      X      Y      Z        X      Y      Z        X      Y      Z
   1   6     0.06   0.06  -0.07     0.00   0.00  -0.00     0.00   0.00   0.00
   2   6     0.17   0.10  -0.22     0.00  -0.00  -0.00    -0.00   0.00  -0.00
   3   8    -0.10  -0.05   0.19    -0.00  -0.00  -0.00    -0.00   0.00   0.00
   4  15     0.06  -0.04  -0.03     0.00   0.00   0.00    -0.00  -0.00  -0.01
   5  16    -0.01   0.01  -0.01    -0.00   0.00  -0.00     0.00  -0.00   0.00
   6   8    -0.01   0.01   0.01    -0.01  -0.00  -0.00     0.01   0.00   0.01
   7   6     0.03   0.01   0.01     0.01   0.00   0.01    -0.02  -0.01  -0.01
   8   6     0.01   0.00   0.00     0.00  -0.00   0.00    -0.01  -0.00  -0.00
   9  16     0.01   0.00   0.00    -0.00   0.00   0.00    -0.00  -0.00   0.00
  10   6    -0.00   0.00  -0.00    -0.00  -0.00   0.00     0.00  -0.00  -0.00
  11  16    -0.00  -0.00   0.00    -0.00  -0.00  -0.00     0.00  -0.00  -0.00
  12  15     0.00   0.00   0.00    -0.02   0.00  -0.08    -0.05  -0.02  -0.00
  13  16    -0.00  -0.00  -0.00    -0.00  -0.01   0.01     0.00   0.00  -0.00
  14   8    -0.00  -0.00  -0.00     0.12   0.17   0.08     0.03   0.03   0.02
  15   6     0.00   0.00   0.00    -0.16  -0.20  -0.12    -0.03  -0.04  -0.02
  16   6     0.00  -0.00   0.00    -0.09  -0.07  -0.03    -0.02  -0.02  -0.01
  17   8    -0.00   0.00   0.00     0.02  -0.02   0.02     0.03   0.10  -0.05
  18   6     0.00  -0.00  -0.00    -0.01   0.05  -0.02     0.00  -0.25   0.03
  19   6     0.00  -0.00   0.00    -0.01   0.02  -0.01     0.01  -0.11   0.01
  20   1    -0.09  -0.43  -0.06    -0.00  -0.00  -0.00    -0.00  -0.00   0.00
  21   1    -0.13   0.05   0.10    -0.00   0.00   0.00     0.00   0.00   0.00
  22   1    -0.17   0.28   0.22    -0.00   0.00   0.00     0.00   0.00   0.00
  23   1    -0.15   0.26   0.34    -0.00   0.00   0.00    -0.00   0.00  -0.00
  24   1    -0.21  -0.40  -0.19    -0.00  -0.00  -0.00     0.00  -0.00   0.00
  25   1    -0.02   0.02  -0.04    -0.00   0.01  -0.02     0.01  -0.01   0.04
  26   1    -0.02  -0.04   0.02    -0.01  -0.01   0.01     0.02   0.03  -0.02
  27   1    -0.03  -0.02   0.02    -0.01  -0.01   0.01     0.02   0.02  -0.02
  28   1    -0.01  -0.01  -0.01    -0.00  -0.00  -0.01     0.01   0.00   0.01
  29   1     0.00   0.01  -0.04     0.00   0.00  -0.02    -0.00  -0.01   0.03
  30   1     0.00  -0.00   0.00    -0.00  -0.00   0.00    -0.00  -0.00   0.00
  31   1     0.00   0.00  -0.00    -0.00  -0.00  -0.00     0.00  -0.00  -0.00
  32   1    -0.01   0.00   0.00     0.45  -0.17  -0.03     0.09  -0.03  -0.01
  33   1     0.00  -0.00  -0.00    -0.16   0.30   0.29    -0.03   0.06   0.06
  34   1    -0.01   0.00   0.00     0.41  -0.03  -0.14     0.09  -0.01  -0.03
  35   1     0.00  -0.00  -0.00    -0.17   0.19   0.31    -0.04   0.04   0.06
  36   1    -0.00  -0.00  -0.00     0.03   0.09   0.14     0.01   0.02   0.03
  37   1    -0.00   0.00   0.00     0.06  -0.05  -0.07    -0.31   0.23   0.31
  38   1     0.00   0.00  -0.00    -0.06  -0.04   0.06     0.31   0.21  -0.30
  39   1    -0.00   0.00   0.00     0.08  -0.04  -0.03    -0.37   0.18   0.16
  40   1     0.00   0.00  -0.00    -0.07  -0.03   0.03     0.34   0.16  -0.16
  41   1     0.00   0.00   0.00    -0.02  -0.03   0.01     0.05   0.15  -0.02
                     52                     53                     54
                        a                      a                      a 
 Frequencies --   828.4101               916.7625               919.0261
 Red. masses --     3.0941                14.3102                14.5225
 Frc consts  --     0.0000                 0.0000                 0.0000
 IR Inten    --     3.1632               513.5644               292.5343
 Raman Activ --     0.0000                 0.0000                 0.0000
 Depolar     --     0.0000                 0.0000                 0.0000
 Atom AN      X      Y      Z        X      Y      Z        X      Y      Z
   1   6    -0.01  -0.00   0.01    -0.09   0.15  -0.05    -0.03   0.04  -0.02
   2   6    -0.01  -0.01   0.02    -0.13   0.07  -0.27    -0.04   0.02  -0.08
   3   8     0.01  -0.00  -0.04     0.44  -0.34   0.27     0.13  -0.10   0.08
   4  15     0.03   0.03   0.11    -0.20   0.17   0.06    -0.06   0.06   0.02
   5  16    -0.01   0.01  -0.02    -0.00  -0.00   0.01    -0.00  -0.00   0.01
   6   8    -0.16  -0.05  -0.12     0.18  -0.25  -0.19     0.07  -0.10  -0.07
   7   6     0.22   0.06   0.13    -0.11   0.17  -0.01    -0.05   0.06  -0.01
   8   6     0.11   0.03   0.03    -0.09   0.04   0.10    -0.04   0.02   0.04
   9  16     0.00   0.01  -0.00    -0.00  -0.00  -0.00    -0.00  -0.00   0.00
  10   6     0.00  -0.02   0.00     0.00   0.00   0.01     0.00   0.00  -0.01
  11  16     0.00   0.00   0.00     0.00  -0.00  -0.00    -0.00   0.01   0.01
  12  15     0.01   0.01  -0.00    -0.04   0.01  -0.08     0.14  -0.04   0.25
  13  16    -0.00  -0.01   0.00    -0.00  -0.00  -0.00     0.00   0.01   0.00
  14   8    -0.00   0.01  -0.01    -0.01  -0.11   0.19     0.03   0.35  -0.56
  15   6     0.00  -0.01   0.01    -0.00   0.10  -0.04     0.01  -0.30   0.11
  16   6    -0.00  -0.00   0.01     0.04   0.02  -0.05    -0.11  -0.08   0.16
  17   8    -0.01   0.01   0.01     0.07   0.00   0.04    -0.24  -0.01  -0.16
  18   6    -0.00  -0.02  -0.00    -0.02   0.00  -0.04     0.06  -0.01   0.14
  19   6    -0.00  -0.01  -0.00    -0.02   0.00  -0.01     0.08  -0.00   0.04
  20   1     0.01   0.04   0.00     0.04  -0.01   0.03     0.01  -0.00   0.01
  21   1     0.01  -0.01  -0.01     0.00   0.22   0.09     0.00   0.07   0.03
  22   1     0.02  -0.02  -0.02     0.04  -0.09   0.01     0.01  -0.03   0.00
  23   1     0.01  -0.02  -0.03     0.04  -0.11  -0.00     0.01  -0.03  -0.00
  24   1     0.01   0.04   0.01     0.01   0.01  -0.03     0.01   0.00  -0.01
  25   1    -0.09   0.16  -0.43     0.03   0.01  -0.06     0.01   0.00  -0.01
  26   1    -0.22  -0.35   0.22    -0.02   0.01  -0.02    -0.00   0.01  -0.01
  27   1    -0.29  -0.21   0.27     0.02  -0.03  -0.02     0.01  -0.01  -0.02
  28   1    -0.10  -0.05  -0.12    -0.07  -0.08   0.15    -0.03  -0.03   0.06
  29   1     0.01   0.08  -0.40     0.04  -0.02  -0.04     0.02  -0.01  -0.01
  30   1     0.00   0.01  -0.02    -0.00  -0.00   0.00     0.00   0.00   0.00
  31   1    -0.01   0.00   0.02    -0.00  -0.00   0.00     0.00   0.00  -0.00
  32   1    -0.01   0.00   0.00     0.00   0.01   0.00    -0.00  -0.04  -0.01
  33   1     0.01  -0.01  -0.01    -0.03  -0.01   0.03     0.08   0.02  -0.09
  34   1    -0.01   0.00   0.00     0.00  -0.01   0.01    -0.01   0.03  -0.04
  35   1     0.01  -0.00  -0.01    -0.02  -0.01   0.03     0.05   0.02  -0.07
  36   1    -0.01   0.00   0.00     0.07  -0.03  -0.04    -0.22   0.08   0.13
  37   1    -0.03   0.02   0.03     0.00   0.00  -0.00    -0.01  -0.01   0.01
  38   1     0.03   0.02  -0.03     0.01  -0.00  -0.00    -0.04   0.00   0.01
  39   1    -0.03   0.02   0.02     0.01   0.00   0.00    -0.03  -0.01  -0.02
  40   1     0.04   0.01  -0.01     0.01  -0.00   0.00    -0.05   0.00  -0.01
  41   1    -0.00   0.01   0.00    -0.03   0.00   0.02     0.11  -0.01  -0.06
                     55                     56                     57
                        a                      a                      a 
 Frequencies --   939.0263               940.3438              1026.5359
 Red. masses --    12.5902                12.2529                 7.9811
 Frc consts  --     0.0000                 0.0000                 0.0000
 IR Inten    --   244.1511               104.4133               113.9586
 Raman Activ --     0.0000                 0.0000                 0.0000
 Depolar     --     0.0000                 0.0000                 0.0000
 Atom AN      X      Y      Z        X      Y      Z        X      Y      Z
   1   6     0.02  -0.03   0.01    -0.06   0.10  -0.03     0.17  -0.43   0.09
   2   6     0.02  -0.01   0.04    -0.06   0.03  -0.15    -0.23   0.47  -0.20
   3   8    -0.08   0.07  -0.03     0.30  -0.25   0.11     0.11  -0.07   0.21
   4  15     0.04  -0.00   0.03    -0.16  -0.01  -0.11     0.01  -0.00   0.01
   5  16     0.00   0.00  -0.00    -0.00  -0.01   0.01    -0.01   0.01  -0.01
   6   8     0.06  -0.09  -0.07    -0.26   0.38   0.31     0.02  -0.02  -0.00
   7   6    -0.03   0.06  -0.01     0.13  -0.24   0.07    -0.05   0.02   0.05
   8   6    -0.04   0.02   0.05     0.20  -0.08  -0.21     0.04  -0.01  -0.04
   9  16     0.00   0.01  -0.00    -0.01  -0.01  -0.01    -0.00  -0.00  -0.00
  10   6    -0.02  -0.02   0.01     0.01   0.00   0.02     0.00   0.00   0.01
  11  16     0.02   0.00  -0.01     0.00  -0.00  -0.00    -0.00  -0.00  -0.00
  12  15     0.15   0.07  -0.12     0.05   0.02  -0.02     0.00  -0.00   0.00
  13  16    -0.00  -0.01   0.00    -0.00  -0.01   0.00    -0.00   0.00  -0.00
  14   8     0.04  -0.13   0.27     0.01  -0.02   0.04    -0.00   0.00  -0.00
  15   6    -0.02   0.11  -0.03    -0.00   0.02  -0.00    -0.00  -0.00   0.01
  16   6     0.05   0.04  -0.08     0.01   0.00  -0.01     0.00   0.00  -0.00
  17   8    -0.56  -0.03  -0.32    -0.14  -0.01  -0.08    -0.00   0.00  -0.00
  18   6     0.06  -0.02   0.31     0.02  -0.00   0.08     0.00  -0.00   0.00
  19   6     0.25  -0.00   0.11     0.06  -0.00   0.03    -0.00   0.00  -0.00
  20   1    -0.01  -0.00  -0.01     0.03   0.00   0.02    -0.09   0.06  -0.07
  21   1    -0.00  -0.04  -0.01     0.00   0.14   0.05     0.03  -0.45  -0.20
  22   1    -0.01   0.01  -0.00     0.03  -0.06   0.00    -0.04   0.08  -0.10
  23   1    -0.01   0.02  -0.00     0.03  -0.08   0.02    -0.10   0.20  -0.04
  24   1     0.00  -0.00   0.01    -0.00   0.01  -0.03    -0.06   0.21  -0.05
  25   1     0.02   0.00  -0.03    -0.07  -0.01   0.10    -0.01   0.00   0.02
  26   1     0.00   0.00  -0.01    -0.01  -0.02   0.06    -0.02   0.00   0.02
  27   1     0.01  -0.01  -0.01    -0.05   0.06   0.06    -0.01   0.01   0.01
  28   1    -0.03  -0.04   0.07     0.14   0.16  -0.31     0.02   0.03  -0.05
  29   1     0.02  -0.01  -0.02    -0.08   0.04   0.06    -0.01   0.01   0.01
  30   1    -0.02   0.01  -0.02    -0.00   0.00   0.00    -0.01  -0.00  -0.00
  31   1    -0.00   0.00   0.02    -0.01  -0.00   0.01    -0.00  -0.00   0.00
  32   1     0.01   0.02   0.00     0.00   0.00  -0.00    -0.00  -0.00   0.00
  33   1    -0.05  -0.02   0.07    -0.01  -0.00   0.01    -0.00  -0.00   0.00
  34   1     0.02  -0.02   0.02     0.00  -0.00   0.00     0.00  -0.00   0.00
  35   1    -0.03  -0.01   0.05    -0.00  -0.00   0.01    -0.00  -0.00   0.00
  36   1     0.12  -0.04  -0.06     0.02  -0.01  -0.01     0.00  -0.00  -0.00
  37   1    -0.06  -0.01   0.03    -0.02  -0.00   0.01     0.00  -0.00   0.00
  38   1    -0.11   0.01   0.01    -0.03   0.00   0.00    -0.00  -0.00   0.00
  39   1    -0.08  -0.01  -0.06    -0.02  -0.00  -0.01     0.00   0.00   0.00
  40   1    -0.11   0.01  -0.04    -0.03   0.00  -0.01    -0.00  -0.00   0.00
  41   1     0.32  -0.02  -0.17     0.08  -0.00  -0.04    -0.00  -0.00   0.00
                     58                     59                     60
                        a                      a                      a 
 Frequencies --  1028.7803              1046.3616              1050.0698
 Red. masses --     8.0664                 9.3998                 9.5627
 Frc consts  --     0.0000                 0.0000                 0.0000
 IR Inten    --   152.0686               113.3117               110.9460
 Raman Activ --     0.0000                 0.0000                 0.0000
 Depolar     --     0.0000                 0.0000                 0.0000
 Atom AN      X      Y      Z        X      Y      Z        X      Y      Z
   1   6     0.00  -0.01  -0.00     0.00  -0.00   0.00    -0.01   0.04  -0.02
   2   6    -0.00   0.01  -0.00    -0.00   0.00  -0.00     0.02  -0.07   0.05
   3   8    -0.00   0.00   0.00     0.00  -0.00   0.00    -0.06   0.06  -0.02
   4  15     0.00  -0.00   0.00     0.00   0.00   0.00     0.02  -0.01   0.00
   5  16    -0.00   0.00  -0.00    -0.00   0.00  -0.00     0.00  -0.00   0.01
   6   8    -0.00   0.00   0.00    -0.00   0.01   0.00     0.23  -0.29  -0.09
   7   6     0.00   0.00  -0.00     0.01  -0.01  -0.01    -0.43   0.23   0.39
   8   6    -0.00  -0.00   0.00    -0.01   0.00   0.01     0.25  -0.05  -0.33
   9  16    -0.00   0.00  -0.00     0.00  -0.00  -0.00     0.00   0.00   0.00
  10   6    -0.00  -0.00   0.00    -0.00   0.00  -0.00    -0.00  -0.00  -0.00
  11  16     0.00  -0.00  -0.00    -0.00   0.00   0.00     0.00  -0.00   0.00
  12  15     0.01  -0.00  -0.00     0.01   0.01   0.02    -0.00   0.00  -0.00
  13  16     0.00   0.01  -0.01    -0.00  -0.01   0.00     0.00   0.00  -0.00
  14   8    -0.00  -0.23   0.13    -0.02   0.05  -0.07    -0.00  -0.00   0.00
  15   6     0.28   0.26  -0.41    -0.07  -0.06   0.08     0.00  -0.00  -0.00
  16   6    -0.27  -0.14   0.34     0.06   0.02  -0.05     0.00   0.00   0.00
  17   8     0.00  -0.00   0.04     0.17  -0.01   0.29     0.01  -0.00   0.01
  18   6    -0.10   0.00  -0.04    -0.57   0.03  -0.23    -0.02   0.00  -0.01
  19   6     0.09  -0.00   0.02     0.45  -0.02   0.03     0.01   0.00  -0.00
  20   1    -0.00   0.00  -0.00    -0.00   0.00  -0.00     0.01  -0.02   0.00
  21   1     0.00  -0.01  -0.00     0.00  -0.00  -0.00    -0.01   0.04   0.02
  22   1    -0.00  -0.00  -0.00    -0.00   0.00  -0.00    -0.00   0.00   0.02
  23   1    -0.00   0.00   0.00    -0.00   0.00  -0.00     0.00  -0.00  -0.01
  24   1    -0.00   0.00   0.00    -0.00   0.00  -0.00     0.02  -0.03   0.02
  25   1     0.00   0.00  -0.00     0.00  -0.00  -0.00    -0.12   0.04   0.16
  26   1     0.00  -0.00  -0.00     0.00   0.00  -0.00    -0.16   0.03   0.16
  27   1    -0.00  -0.00   0.00     0.00  -0.00  -0.00    -0.04   0.09   0.03
  28   1     0.00   0.00   0.00    -0.00  -0.01   0.01     0.14   0.17  -0.33
  29   1    -0.00  -0.00   0.00     0.00  -0.00  -0.00    -0.08   0.07   0.01
[...]
  33   1     0.00   0.00   0.00    -0.00   0.00  -0.00    -0.04   0.01  -0.02
  34   1     0.00   0.00   0.00     0.00   0.00   0.00     0.00   0.00   0.00
  35   1     0.00  -0.00   0.00    -0.00   0.00  -0.00     0.00  -0.00   0.00
  36   1    -0.00  -0.00  -0.00     0.00   0.00  -0.00    -0.00  -0.00   0.00
  37   1    -0.05  -0.23   0.11    -0.00  -0.01   0.00     0.00   0.00  -0.00
  38   1    -0.15   0.78   0.50    -0.00   0.02   0.01     0.00  -0.00  -0.00
  39   1    -0.00   0.00   0.00     0.00   0.00  -0.00     0.00   0.00  -0.00
  40   1     0.01  -0.04  -0.03     0.00  -0.00  -0.00    -0.00   0.00   0.00
  41   1    -0.01   0.00  -0.01    -0.00   0.00  -0.00    -0.00  -0.00  -0.00
                    103                    104                    105
                        a                      a                      a 
 Frequencies --  2970.2734              2971.7266              3013.2060
 Red. masses --     1.7342                 1.7003                 1.7852
 Frc consts  --     0.0000                 0.0000                 0.0000
 IR Inten    --     9.7439                17.3697                 1.8569
 Raman Activ --     0.0000                 0.0000                 0.0000
 Depolar     --     0.0000                 0.0000                 0.0000
 Atom AN      X      Y      Z        X      Y      Z        X      Y      Z
   1   6     0.00   0.00   0.00     0.00   0.00   0.00     0.00   0.00   0.00
   2   6    -0.01  -0.01  -0.00    -0.00  -0.00  -0.00     0.00   0.00  -0.00
   3   8    -0.00   0.00  -0.00    -0.00   0.00  -0.00    -0.00   0.00   0.00
   4  15     0.00   0.00  -0.00    -0.00  -0.00  -0.00     0.00  -0.00   0.00
   5  16     0.00  -0.00   0.00     0.00  -0.00  -0.00    -0.00   0.00  -0.00
   6   8    -0.00   0.00   0.00    -0.00   0.01   0.00    -0.00   0.00  -0.00
   7   6     0.00   0.01   0.00     0.13   0.21   0.02    -0.00   0.00  -0.00
   8   6    -0.00  -0.00  -0.00    -0.01  -0.02  -0.01     0.00   0.00   0.00
   9  16    -0.00  -0.00   0.00     0.00  -0.00   0.00     0.00   0.00   0.00
  10   6    -0.00   0.00   0.00    -0.00  -0.00   0.00    -0.11   0.19   0.15
  11  16     0.00  -0.00  -0.00    -0.00  -0.00   0.00    -0.00   0.00   0.00
  12  15     0.00  -0.00  -0.00    -0.00   0.00   0.00    -0.00   0.00   0.00
  13  16    -0.00  -0.00   0.00     0.00   0.00  -0.00     0.00  -0.00  -0.00
  14   8     0.00  -0.01   0.01     0.00   0.00  -0.00     0.00  -0.00  -0.00
  15   6     0.22  -0.04   0.13    -0.01   0.00  -0.01     0.00  -0.00  -0.00
  16   6    -0.01   0.00  -0.01     0.00   0.00   0.00     0.00  -0.00   0.00
  17   8    -0.00   0.00   0.00     0.00  -0.00   0.00    -0.00   0.00   0.00
  18   6     0.00   0.00  -0.00    -0.00  -0.00   0.00     0.00   0.00  -0.00
  19   6     0.00  -0.00   0.00     0.00   0.00  -0.00     0.00   0.00   0.00
  20   1    -0.00   0.00   0.00     0.00   0.00  -0.00     0.00   0.00  -0.00
  21   1    -0.00   0.00  -0.00    -0.00   0.00  -0.00     0.00  -0.00   0.00
  22   1    -0.00  -0.00  -0.00    -0.00  -0.00  -0.00    -0.00  -0.00  -0.00
  23   1     0.04   0.02   0.01     0.02   0.01   0.00    -0.00  -0.00  -0.00
  24   1    -0.00  -0.00  -0.00    -0.01   0.00   0.01    -0.00   0.00   0.00
  25   1    -0.02  -0.03  -0.01    -0.49  -0.81  -0.13     0.00   0.00   0.00
  26   1     0.00   0.00   0.00     0.06   0.02   0.05     0.00  -0.00   0.00
  27   1    -0.00  -0.00  -0.00     0.01  -0.01   0.01    -0.00   0.00  -0.00
  28   1    -0.00   0.00   0.00    -0.01   0.01   0.00     0.00   0.00   0.00
  29   1     0.01   0.01   0.00     0.05   0.07   0.01    -0.00  -0.00  -0.00
  30   1    -0.00   0.00   0.00     0.00  -0.00  -0.00     0.41  -0.65  -0.58
  31   1     0.00  -0.00   0.00    -0.00   0.00  -0.00    -0.01  -0.01   0.03
  32   1     0.03   0.01   0.02    -0.00   0.00  -0.00     0.00   0.00   0.00
  33   1    -0.81   0.14  -0.49     0.04  -0.01   0.02    -0.00   0.00  -0.00
  34   1    -0.00   0.01   0.01    -0.00  -0.00  -0.00     0.00  -0.00   0.00
  35   1     0.06  -0.01   0.04    -0.00   0.00  -0.00    -0.00   0.00  -0.00
  36   1    -0.00  -0.01   0.01     0.00   0.00  -0.00     0.00   0.00  -0.00
  37   1    -0.00  -0.00   0.00     0.00   0.00  -0.00    -0.00  -0.00   0.00
  38   1    -0.00   0.00   0.00    -0.00   0.00   0.00    -0.00   0.00   0.00
  39   1     0.00   0.00  -0.00    -0.00  -0.00   0.00    -0.00  -0.00   0.00
  40   1     0.00  -0.00  -0.00     0.00  -0.00  -0.00     0.00  -0.00  -0.00
  41   1    -0.00   0.00  -0.00    -0.00   0.00  -0.00    -0.00   0.00  -0.00
                    106                    107                    108
                        a                      a                      a 
 Frequencies --  3037.8146              3044.2352              3049.9933
 Red. masses --     1.7611                 1.7689                 1.8603
 Frc consts  --     0.0000                 0.0000                 0.0000
 IR Inten    --    35.3795                32.1794                18.1896
 Raman Activ --     0.0000                 0.0000                 0.0000
 Depolar     --     0.0000                 0.0000                 0.0000
 Atom AN      X      Y      Z        X      Y      Z        X      Y      Z
   1   6     0.01   0.00   0.00     0.23   0.12  -0.00    -0.00  -0.00  -0.00
   2   6    -0.00   0.00   0.00     0.02   0.01  -0.00    -0.00  -0.00   0.00
   3   8     0.00  -0.00  -0.00     0.00  -0.00   0.00     0.00   0.00  -0.00
   4  15     0.00  -0.00  -0.00     0.00   0.00   0.00    -0.00  -0.00   0.00
   5  16    -0.00   0.00  -0.00    -0.00   0.00  -0.00     0.00  -0.00  -0.00
   6   8    -0.00   0.00   0.00    -0.00   0.00   0.00    -0.00   0.00  -0.00
   7   6     0.02   0.02   0.00    -0.00  -0.00   0.00    -0.00  -0.00  -0.00
   8   6     0.13   0.22   0.05    -0.00  -0.00   0.00    -0.01  -0.00  -0.01
   9  16    -0.00   0.00   0.00     0.00  -0.00  -0.00     0.00   0.00   0.00
  10   6     0.00  -0.00  -0.00     0.00  -0.00  -0.00    -0.00   0.00   0.00
  11  16     0.00  -0.00  -0.00    -0.00   0.00   0.00     0.00  -0.00  -0.00
  12  15     0.00  -0.00   0.00     0.00  -0.00  -0.00     0.00   0.00  -0.00
  13  16     0.00   0.00   0.00     0.00   0.00  -0.00     0.00   0.00  -0.00
  14   8     0.00   0.00  -0.00     0.00   0.00   0.00    -0.00  -0.00   0.00
  15   6     0.00  -0.00   0.00     0.00   0.00   0.00     0.02   0.01   0.02
  16   6     0.00   0.00  -0.00     0.00  -0.00   0.00     0.21   0.08   0.15
  17   8    -0.00   0.00  -0.00    -0.00   0.00  -0.00     0.00  -0.00   0.00
  18   6    -0.00  -0.00   0.00     0.00  -0.00  -0.00     0.00  -0.00  -0.00
  19   6     0.00   0.00   0.00     0.00  -0.01  -0.00     0.01  -0.05  -0.04
  20   1    -0.00   0.00   0.00    -0.04   0.02   0.11    -0.00  -0.00   0.00
  21   1    -0.00   0.00  -0.00     0.05  -0.01   0.03    -0.00   0.00  -0.00
  22   1    -0.02  -0.01  -0.00    -0.84  -0.43  -0.14     0.02   0.01   0.00
  23   1    -0.00   0.00   0.00    -0.06  -0.03  -0.01     0.00   0.00   0.00
  24   1     0.00  -0.00  -0.00    -0.01   0.00   0.02     0.00  -0.00  -0.00
  25   1    -0.04  -0.07  -0.01     0.00   0.00   0.00     0.00   0.00   0.00
  26   1    -0.00   0.00  -0.01    -0.00   0.00  -0.00     0.00  -0.00   0.00
  27   1    -0.02   0.04  -0.02    -0.01   0.00  -0.01     0.04  -0.01   0.04
  28   1     0.04  -0.00  -0.00     0.00  -0.00  -0.00    -0.01   0.01   0.00
  29   1    -0.50  -0.81  -0.14     0.01   0.02   0.00    -0.00   0.00  -0.00
  30   1    -0.00   0.00   0.00    -0.00   0.00   0.00     0.00  -0.00  -0.00
  31   1     0.00  -0.00   0.00     0.00   0.00  -0.00    -0.00  -0.00   0.00
  32   1     0.00   0.00   0.00     0.00  -0.00  -0.00    -0.01  -0.02  -0.02
  33   1    -0.01   0.00  -0.00     0.00  -0.00   0.00    -0.05   0.01  -0.03
  34   1    -0.00  -0.00  -0.00    -0.00  -0.00  -0.00    -0.06  -0.33  -0.20
  35   1    -0.00   0.00  -0.00    -0.01   0.00  -0.01    -0.68   0.14  -0.43
  36   1    -0.00  -0.01   0.01     0.00   0.00  -0.00     0.01  -0.10   0.10
  37   1     0.00   0.00  -0.00     0.00  -0.00   0.00    -0.00  -0.00   0.00
  38   1     0.00  -0.00  -0.00     0.00   0.00   0.00    -0.00   0.01   0.01
  39   1    -0.00  -0.00   0.00     0.00   0.00  -0.00    -0.00  -0.03   0.01
  40   1     0.00  -0.00  -0.00    -0.00   0.02   0.01    -0.04   0.22   0.15
  41   1    -0.00   0.00  -0.00    -0.00  -0.00  -0.00    -0.01  -0.01  -0.02
                    109                    110                    111
                        a                      a                      a 
 Frequencies --  3050.9980              3050.9168              3052.9120
 Red. masses --     1.8594                 1.6356                 1.3606
 Frc consts  --     0.0000                 0.0000                 0.0000
 IR Inten    --    33.7335                14.8697                14.8959
 Raman Activ --     0.0000                 0.0000                 0.0000
 Depolar     --     0.0000                 0.0000                 0.0000
 Atom AN      X      Y      Z        X      Y      Z        X      Y      Z
   1   6     0.00   0.00  -0.00    -0.00  -0.00   0.00     0.01  -0.00  -0.02
   2   6     0.00   0.00  -0.00    -0.00  -0.00  -0.00     0.00  -0.00  -0.00
   3   8    -0.00  -0.00   0.00    -0.00  -0.00   0.00     0.00   0.00  -0.00
   4  15    -0.00  -0.00  -0.00    -0.00  -0.00  -0.00    -0.00  -0.00   0.00
   5  16     0.00   0.00   0.00     0.00   0.00   0.00     0.00   0.00  -0.00
   6   8     0.00   0.00   0.00     0.00   0.00   0.00     0.00  -0.00  -0.00
   7   6     0.00  -0.00   0.00     0.01   0.00   0.01     0.00  -0.00   0.00
   8   6     0.03  -0.01   0.04     0.14  -0.02   0.18     0.00  -0.00   0.00
   9  16     0.00   0.00   0.00     0.00  -0.00   0.00    -0.00   0.00  -0.00
  10   6     0.00  -0.00  -0.00     0.00  -0.00  -0.00    -0.00  -0.00   0.00
  11  16     0.00   0.00  -0.00    -0.00  -0.00  -0.00     0.00  -0.00  -0.00
  12  15     0.00   0.00  -0.00    -0.00  -0.00  -0.00     0.00  -0.00   0.00
  13  16     0.00   0.00   0.00     0.00   0.00   0.00     0.00   0.00  -0.00
  14   8     0.00  -0.00   0.00    -0.00  -0.00   0.00    -0.00  -0.00  -0.00
  15   6     0.01   0.00   0.00     0.00  -0.00   0.00     0.00  -0.01  -0.01
  16   6     0.05   0.04   0.05     0.00  -0.01   0.00     0.04  -0.10  -0.13
  17   8     0.00  -0.00  -0.00     0.00   0.00   0.00    -0.00   0.00   0.00
  18   6    -0.00   0.02   0.01     0.00  -0.00  -0.00     0.00   0.00  -0.00
  19   6    -0.02   0.24   0.09     0.01  -0.05  -0.02     0.01   0.05  -0.02
  20   1    -0.00   0.00   0.01     0.00  -0.00  -0.01    -0.05   0.00   0.08
  21   1     0.00  -0.00   0.00    -0.00   0.00  -0.00    -0.00   0.00  -0.01
  22   1    -0.01  -0.01  -0.00     0.01   0.01   0.00     0.01   0.01  -0.00
  23   1    -0.00  -0.00  -0.00     0.00   0.00   0.00    -0.00  -0.00  -0.00
  24   1    -0.00   0.00   0.00    -0.00   0.00   0.00    -0.00   0.00   0.00
  25   1     0.00  -0.00   0.00    -0.00  -0.01  -0.00    -0.00  -0.00   0.00
  26   1    -0.01   0.00  -0.01    -0.03   0.00  -0.03    -0.00   0.00  -0.00
  27   1    -0.14   0.03  -0.13    -0.66   0.15  -0.65    -0.01   0.00  -0.01
  28   1     0.02  -0.01  -0.00     0.11  -0.10  -0.02    -0.00   0.00   0.00
  29   1     0.01   0.01   0.01     0.05   0.04   0.03     0.00   0.00   0.00
  30   1    -0.00   0.00   0.00    -0.00   0.00   0.00     0.00  -0.00  -0.00
  31   1    -0.00   0.00  -0.00    -0.00   0.00  -0.00    -0.00   0.00  -0.00
  32   1    -0.00  -0.01  -0.01    -0.00  -0.00  -0.00     0.01   0.02   0.02
  33   1    -0.01   0.00  -0.01    -0.00   0.00  -0.00    -0.01  -0.00  -0.00
  34   1    -0.04  -0.16  -0.11     0.00   0.01   0.01     0.17   0.65   0.43
  35   1    -0.15   0.04  -0.09    -0.02   0.00  -0.01    -0.28   0.04  -0.20
  36   1     0.00  -0.01   0.02     0.00   0.01  -0.01    -0.05  -0.34   0.24
  37   1    -0.00  -0.01   0.01     0.00   0.00  -0.00    -0.00  -0.01   0.00
  38   1     0.01  -0.04  -0.02    -0.00   0.01   0.01     0.00  -0.00  -0.00
  39   1    -0.06  -0.20   0.16     0.01   0.03  -0.03    -0.04  -0.15   0.10
  40   1     0.12  -0.69  -0.50    -0.03   0.16   0.11     0.01  -0.03  -0.03
  41   1     0.00   0.03   0.02    -0.01  -0.01  -0.01    -0.01   0.01  -0.01
                    112                    113                    114
                        a                      a                      a 
 Frequencies --  3053.8175              3054.9642              3056.2994
 Red. masses --     1.5863                 1.5282                 1.9403
 Frc consts  --     0.0000                 0.0000                 0.0000
 IR Inten    --    12.7283                12.8655                12.1834
 Raman Activ --     0.0000                 0.0000                 0.0000
 Depolar     --     0.0000                 0.0000                 0.0000
 Atom AN      X      Y      Z        X      Y      Z        X      Y      Z
   1   6     0.12  -0.04  -0.19    -0.01   0.00   0.00    -0.01   0.00   0.00
   2   6     0.01  -0.00  -0.01    -0.00   0.00   0.00    -0.00   0.00   0.00
   3   8     0.00   0.00  -0.00     0.00  -0.00   0.00     0.00   0.00   0.00
   4  15    -0.00   0.00  -0.00     0.00   0.00  -0.00     0.00   0.00   0.00
   5  16     0.00  -0.00   0.00    -0.00  -0.00   0.00    -0.00   0.00   0.00
   6   8     0.00  -0.00   0.00    -0.00   0.00  -0.00    -0.00  -0.00   0.00
   7   6    -0.00   0.00  -0.00     0.00   0.00   0.00    -0.00   0.00  -0.00
   8   6     0.00  -0.00  -0.00     0.00  -0.00   0.00    -0.00   0.00  -0.00
   9  16    -0.00   0.00  -0.00    -0.00  -0.00   0.00    -0.00  -0.00   0.00
  10   6    -0.00   0.00   0.00     0.00   0.00  -0.00     0.00  -0.00  -0.00
  11  16    -0.00  -0.00  -0.00    -0.00  -0.00   0.00    -0.00   0.00   0.00
  12  15    -0.00   0.00   0.00     0.00  -0.00   0.00     0.00  -0.00  -0.00
  13  16    -0.00  -0.00   0.00    -0.00  -0.00   0.00     0.00   0.00   0.00
  14   8     0.00   0.00  -0.00    -0.00  -0.00   0.00    -0.00   0.00   0.00
  15   6    -0.00   0.00   0.00     0.00  -0.00  -0.00     0.01  -0.01   0.00
  16   6    -0.01  -0.00   0.02     0.03  -0.02   0.00     0.02  -0.26   0.13
  17   8     0.00  -0.00  -0.00    -0.00  -0.00  -0.00    -0.00   0.00   0.00
  18   6    -0.00  -0.00   0.00    -0.01  -0.01   0.01     0.00   0.00  -0.00
  19   6    -0.00  -0.01   0.01    -0.07  -0.14   0.15     0.00   0.02  -0.00
  20   1    -0.50   0.02   0.80     0.01  -0.00  -0.02     0.02  -0.00  -0.03
  21   1    -0.05   0.06  -0.13     0.01  -0.01   0.01     0.01  -0.01   0.02
  22   1     0.13   0.05  -0.01    -0.00   0.00   0.00    -0.00   0.00   0.00
  23   1    -0.00  -0.00  -0.00     0.00   0.00   0.00     0.00   0.00   0.00
  24   1    -0.03   0.00   0.04     0.00   0.00  -0.00     0.00  -0.00  -0.00
  25   1    -0.00  -0.00  -0.00    -0.00  -0.00  -0.00    -0.00  -0.00   0.00
  26   1     0.00  -0.00   0.00    -0.00   0.00  -0.00     0.00  -0.00   0.00
  27   1    -0.00   0.00  -0.00    -0.01   0.00  -0.01     0.01  -0.00   0.01
  28   1    -0.01   0.01   0.00     0.00   0.00   0.00    -0.00   0.00  -0.00
  29   1    -0.00  -0.00  -0.00    -0.00  -0.00   0.00    -0.00  -0.01  -0.00
  30   1     0.00  -0.00  -0.00    -0.00   0.00   0.00    -0.00   0.00   0.00
  31   1    -0.00   0.00  -0.00     0.00  -0.00   0.00     0.00  -0.00  -0.00
  32   1    -0.00  -0.00  -0.00     0.00   0.00   0.00     0.01   0.02   0.01
  33   1     0.00  -0.00   0.00    -0.01   0.00  -0.00    -0.03   0.00  -0.02
  34   1    -0.01  -0.05  -0.03     0.03   0.09   0.06     0.07   0.23   0.19
  35   1     0.02  -0.00   0.02    -0.14   0.02  -0.09    -0.25   0.01  -0.14
  36   1     0.01   0.06  -0.05    -0.00  -0.04   0.03     0.11   0.67  -0.52
  37   1     0.00   0.00  -0.00     0.01   0.03  -0.02    -0.00  -0.00   0.00
  38   1    -0.00   0.00   0.00     0.00  -0.00  -0.00     0.00  -0.00  -0.00
  39   1     0.01   0.04  -0.02     0.19   0.75  -0.47    -0.01  -0.04   0.03
  40   1    -0.00  -0.00   0.00     0.03  -0.24  -0.14     0.00  -0.02  -0.01
  41   1    -0.00  -0.00  -0.00     0.05  -0.02   0.09    -0.01   0.00  -0.01
                    115                    116                    117
                        a                      a                      a 
 Frequencies --  3059.8433              3061.1386              3061.2323
 Red. masses --     1.8108                 1.7790                 1.7750
 Frc consts  --     0.0000                 0.0000                 0.0000
 IR Inten    --     9.8846                12.7545                 9.4589
 Raman Activ --     0.0000                 0.0000                 0.0000
 Depolar     --     0.0000                 0.0000                 0.0000
 Atom AN      X      Y      Z        X      Y      Z        X      Y      Z
   1   6    -0.12   0.11  -0.21    -0.00  -0.00   0.01    -0.00   0.00  -0.01
   2   6    -0.00   0.00  -0.01    -0.00  -0.00   0.00    -0.00  -0.00  -0.00
   3   8     0.00   0.00   0.00     0.00  -0.00  -0.00    -0.00   0.00   0.00
   4  15     0.00  -0.00  -0.00     0.00   0.00   0.00    -0.00  -0.00  -0.00
   5  16    -0.00   0.00   0.00    -0.00  -0.00   0.00     0.00  -0.00   0.00
   6   8    -0.00   0.00   0.00    -0.00   0.00  -0.00     0.00  -0.00   0.00
   7   6     0.00  -0.00   0.00     0.00  -0.00   0.00    -0.01   0.01  -0.00
   8   6     0.00  -0.00  -0.00     0.04  -0.04  -0.01    -0.18   0.17   0.05
   9  16    -0.00  -0.00  -0.00     0.00  -0.00   0.00    -0.00  -0.00  -0.00
  10   6     0.00  -0.00   0.00     0.00  -0.00  -0.00     0.00   0.00   0.00
  11  16    -0.00   0.00  -0.00     0.00   0.00  -0.00    -0.00   0.00   0.00
  12  15    -0.00   0.00   0.00    -0.00  -0.00   0.00    -0.00   0.00   0.00
  13  16    -0.00   0.00  -0.00     0.00   0.00  -0.00    -0.00   0.00  -0.00
  14   8     0.00  -0.00  -0.00     0.00  -0.00   0.00     0.00  -0.00  -0.00
  15   6    -0.00   0.00   0.00    -0.00  -0.00  -0.00     0.00   0.00   0.00
  16   6    -0.00   0.01  -0.00    -0.00   0.00  -0.00     0.00   0.00   0.00
  17   8    -0.00   0.00  -0.00     0.00   0.00  -0.00     0.00  -0.00  -0.00
  18   6     0.00  -0.00  -0.00     0.00  -0.00   0.01     0.00   0.00   0.00
  19   6     0.00  -0.00  -0.00     0.14  -0.02   0.21     0.03  -0.00   0.05
  20   1    -0.09   0.02   0.09     0.01  -0.00  -0.01    -0.01   0.00   0.01
  21   1     0.48  -0.45   0.69    -0.01   0.01  -0.01     0.01  -0.01   0.01
  22   1     0.04   0.04  -0.02    -0.00  -0.00   0.00     0.00   0.00  -0.00
  23   1     0.02   0.01   0.00     0.00   0.00  -0.00     0.00   0.00   0.00
  24   1    -0.01   0.00   0.01     0.00  -0.00  -0.00    -0.00  -0.00   0.00
  25   1     0.00   0.00  -0.00     0.00   0.00   0.00    -0.01  -0.01  -0.00
  26   1    -0.00   0.00  -0.00    -0.00   0.00  -0.00     0.01  -0.00   0.01
  27   1    -0.00   0.00  -0.00    -0.01  -0.00  -0.02     0.08   0.00   0.10
  28   1    -0.01   0.01   0.01    -0.14   0.16   0.07     0.57  -0.67  -0.29
  29   1    -0.00  -0.00  -0.00     0.00  -0.01  -0.00    -0.00   0.05   0.01
  30   1    -0.00   0.00   0.00    -0.00   0.00   0.00     0.00  -0.00   0.00
  31   1    -0.00   0.00  -0.00     0.00  -0.00   0.00    -0.00   0.00   0.00
  32   1    -0.00  -0.00  -0.00     0.00   0.00   0.00    -0.00  -0.00  -0.00
  33   1     0.00  -0.00   0.00     0.00  -0.00   0.00    -0.00   0.00  -0.00
  34   1    -0.00  -0.01  -0.01     0.00   0.00   0.00    -0.00  -0.00  -0.00
  35   1     0.01  -0.00   0.01     0.01  -0.00   0.00    -0.00   0.00  -0.00
  36   1    -0.00  -0.02   0.01    -0.00  -0.00   0.00    -0.00  -0.00   0.00
  37   1    -0.00  -0.00   0.00     0.00   0.01  -0.01     0.00   0.00  -0.00
  38   1    -0.00   0.00   0.00     0.00  -0.01  -0.01     0.00  -0.00  -0.00
  39   1    -0.00  -0.01   0.01     0.03   0.07  -0.02     0.01   0.01  -0.00
  40   1    -0.00   0.01   0.01     0.02  -0.03   0.01     0.01  -0.01  -0.00
  41   1    -0.01   0.00  -0.01    -0.56   0.05  -0.74    -0.13   0.01  -0.18
