
                                 *****************
                                 * O   R   C   A *
                                 *****************

                                            #,                                       
                                            ###                                      
                                            ####                                     
                                            #####                                    
                                            ######                                   
                                           ########,                                 
                                     ,,################,,,,,                         
                               ,,#################################,,                 
                          ,,##########################################,,             
                       ,#########################################, ''#####,          
                    ,#############################################,,   '####,        
                  ,##################################################,,,,####,       
                ,###########''''           ''''###############################       
              ,#####''   ,,,,##########,,,,          '''####'''          '####       
            ,##' ,,,,###########################,,,                        '##       
           ' ,,###''''                  '''############,,,                           
         ,,##''                                '''############,,,,        ,,,,,,###''
      ,#''                                            '''#######################'''  
     '                                                          ''''####''''         
             ,#######,   #######,   ,#######,      ##                                
            ,#'     '#,  ##    ##  ,#'     '#,    #''#        ,####,   ,####,        
            ##       ##  ##   ,#'  ##            #'  '#       #'       #'  '#        
            ##       ##  #######   ##           ,######,      #####,   #    #        
            '#,     ,#'  ##    ##  '#,     ,#' ,#      #,     #,   #   #,  ,#        
             '#######'   ##     ##  '#######'  #'      '#     '####' # '####'        



                #########################################################
                #                        -***-                          #
                #          Department of theory and spectroscopy        #
                #                                                       #
                #                      Frank Neese                      #
                #                                                       #
                #     Directorship, Architecture, Infrastructure        #
                #                    SHARK, DRIVERS                     #
                #        Core code/Algorithms in most modules           #
                #                                                       #
                #        Max Planck Institute fuer Kohlenforschung      #
                #                Kaiser Wilhelm Platz 1                 #
                #                 D-45470 Muelheim/Ruhr                 #
                #                      Germany                          #
                #                                                       #
                #                  All rights reserved                  #
                #                        -***-                          #
                #########################################################


                         Program Version 6.0.0  -   RELEASE  -


 With contributions from (in alphabetic order):
   Daniel Aravena         : Magnetic Suceptibility
   Michael Atanasov       : Ab Initio Ligand Field Theory (pilot matlab implementation)
   Alexander A. Auer      : GIAO ZORA, VPT2 properties, NMR spectrum
   Ute Becker             : All parallelization in ORCA, NUMFREQ, NUMCALC
   Giovanni Bistoni       : ED, misc. LED, open-shell LED, HFLD
   Martin Brehm           : Molecular dynamics
   Dmytro Bykov           : pre 5.0 version of the SCF Hessian
   Marcos Casanova-Páez   : Triplet and SCS-CIS(D). UHF-(DLPNO)-IP/EA/STEOM-CCSD. UHF-CVS-IP/STEOM-CCSD
   Vijay G. Chilkuri      : MRCI spin determinant printing, contributions to CSF-ICE
   Pauline Colinet        : FMM embedding
   Dipayan Datta          : RHF DLPNO-CCSD density
   Achintya Kumar Dutta   : EOM-CC, STEOM-CC
   Nicolas Foglia         : Exact transition moments, OPA infrastructure, MCD improvements
   Dmitry Ganyushin       : Spin-Orbit,Spin-Spin,Magnetic field MRCI
   Miquel Garcia          : C-PCM and meta-GGA Hessian, CCSD/C-PCM, Gaussian charge scheme
   Tiago L. C. Gouveia    : GS-ROHF, GS-ROCIS
   Yang Guo               : DLPNO-NEVPT2, F12-NEVPT2, CIM, IAO-localization
   Andreas Hansen         : Spin unrestricted coupled pair/coupled cluster methods
   Ingolf Harden          : AUTO-CI MPn and infrastructure 
   Benjamin Helmich-Paris : MC-RPA, TRAH-(SCF,CASSCF), AVAS, COSX integrals, SCF dyn. polar.
   Lee Huntington         : MR-EOM, pCC
   Robert Izsak           : Overlap fitted RIJCOSX, COSX-SCS-MP3, EOM
   Riya Kayal             : Wick's Theorem for AUTO-CI, AUTO-CI UHF-CCSDT
   Emily Kempfer          : AUTO-CI, RHF CISDT and CCSDT
   Christian Kollmar      : KDIIS, OOCD, Brueckner-CCSD(T), CCSD density, CASPT2, CASPT2-K, improved NEVPT2
   Axel Koslowski         : Symmetry handling
   Simone Kossmann        : Meta GGA functionals, TD-DFT gradient, OOMP2, (MP2 Hessian; deprecated post 5.0)
   Lucas Lang             : DCDCAS
   Marvin Lechner         : AUTO-CI (C++ implementation), FIC-MRCC
   Spencer Leger          : CASSCF response
   Dagmar Lenk            : GEPOL surface, SMD, ORCA-2-JSON
   Dimitrios Liakos       : Extrapolation schemes; Compound Job, initial MDCI parallelization
   Dimitrios Manganas     : Further ROCIS development; embedding schemes. LFT, Crystal Embedding
   Dimitrios Pantazis     : SARC Basis sets
   Anastasios Papadopoulos: AUTO-CI, single reference methods and gradients
   Taras Petrenko         : pre 6.0 DFT Hessian and TD-DFT gradient, (ASA, deprecated), ECA, 1-Electron XAS/XES, NRVS
   Peter Pinski           : DLPNO-MP2, DLPNO-MP2 Gradient
   Christoph Reimann      : Effective Core Potentials
   Marius Retegan         : Local ZFS, SOC
   Christoph Riplinger    : Optimizer, TS searches, QM/MM, DLPNO-CCSD(T), (RO)-DLPNO pert. Triples
   Michael Roemelt        : Original ROCIS implementation
   Masaaki Saitow         : Open-shell DLPNO-CCSD energy and density
   Barbara Sandhoefer     : DKH picture change effects
   Kantharuban Sivalingam : CASSCF convergence/infrastructure, NEVPT2 and variants, FIC-MRCI
   Bernardo de Souza      : ESD, SOC TD-DFT
   Georgi Stoychev        : AutoAux, RI-MP2 NMR, DLPNO-MP2 response, X2C
   Van Anh Tran           : RI-MP2 g-tensors
   Willem Van den Heuvel  : Paramagnetic NMR
   Zikuan Wang            : NOTCH, Electric field optimization 
   Frank Wennmohs         : Technical directorship and infrastructure
   Hang Xu                : AUTO-CI-Response properties 


 We gratefully acknowledge several colleagues who have allowed us to
 interface, adapt or use parts of their codes:
   Stefan Grimme, W. Hujo, H. Kruse, P. Pracht,  : VdW corrections, initial TS optimization,
                  C. Bannwarth, S. Ehlert,         DFT functionals, gCP, sTDA/sTD-DF
                  L. Wittmann, M. Mueller
   Ed Valeev, F. Pavosevic, A. Kumar             : LibInt (2-el integral package), F12 methods
   Garnet Chan, S. Sharma, J. Yang, R. Olivares  : DMRG
   Ulf Ekstrom                                   : XCFun DFT Library
   Mihaly Kallay                                 : mrcc  (arbitrary order and MRCC methods)
   Frank Weinhold                                : gennbo (NPA and NBO analysis)
   Simon Mueller                                 : openCOSMO-RS
   Christopher J. Cramer and Donald G. Truhlar   : smd solvation model
   Lars Goerigk                                  : TD-DFT with DH, B97 family of functionals
   V. Asgeirsson, H. Jonsson                     : NEB implementation
   FAccTs GmbH                                   : IRC, NEB, NEB-TS, DLPNO-Multilevel, CI-OPT
                                                   MM, QMMM, 2- and 3-layer-ONIOM, Crystal-QMMM,
                                                   LR-CPCM, SF, NACMEs, symmetry and pop. for TD-DFT,
                                                   nearIR, NL-DFT gradient (VV10), updates on ESD,
                                                   ML-optimized integration grids, MBIS, APM,
                                                   GOAT, DOCKER, SOLVATOR, interface openCOSMO-RS
   S Lehtola, MJT Oliveira, MAL Marques          : LibXC Library
   Liviu Ungur et al                             : ANISO software


 Your calculation uses the libint2 library for the computation of 2-el integrals
 For citations please refer to: http://libint.valeyev.net

 Your ORCA version has been built with support for libXC version: 6.2.2
 For citations please refer to: https://libxc.gitlab.io

 This ORCA versions uses:
   CBLAS   interface :  Fast vector & matrix operations
   LAPACKE interface :  Fast linear algebra routines
   SCALAPACK package :  Parallel linear algebra routines
   Shared memory     :  Shared parallel matrices
   BLAS/LAPACK       :  OpenBLAS 0.3.27  USE64BITINT DYNAMIC_ARCH NO_AFFINITY SapphireRapids SINGLE_THREADED
        Core in use  :  SapphireRapids
   Copyright (c) 2011-2014, The OpenBLAS Project


Your calculation utilizes the geometrical counterpoise correction gCP
Please cite in your paper:
H.Kruse, S. Grimme J.Chem.Phys., 136, (2012), 154101 
   

Your calculation utilizes the atom-pairwise dispersion correction
based on EEQ partial charges (D4)


================================================================================

----- Orbital basis set information -----
Your calculation utilizes the basis: def2-mTZVPP
   Stefan Grimme, Andreas Hansen, Sebastian Ehlert, and Jan-Michael Mewes 
   J. Chem. Phys. 154, 064103 (2021). DOI: 10.1063/5.0040021

----- AuxJ basis set information -----
Your calculation utilizes the auxiliary basis: def2/J
   F. Weigend, Phys. Chem. Chem. Phys. 8, 1057 (2006).

================================================================================
                                        WARNINGS
                       Please study these warnings very carefully!
================================================================================

Using LibXC functional ID 497 : Re-regularized SCAN exchange by Furness et al
[ 1]  J. W. Furness, A. D. Kaplan, J. Ning, J. P. Perdew, and J. Sun.,  J. Phys. Chem. Lett. 11, 8208-8215 (2020)
[ 2]  J. W. Furness, A. D. Kaplan, J. Ning, J. P. Perdew, and J. Sun.,  J. Phys. Chem. Lett. 11, 9248-9248 (2020)
Using LibXC functional ID 498 : Re-regularized SCAN correlation by Furness et al
[ 1]  J. W. Furness, A. D. Kaplan, J. Ning, J. P. Perdew, and J. Sun.,  J. Phys. Chem. Lett. 11, 8208-8215 (2020)
[ 2]  J. W. Furness, A. D. Kaplan, J. Ning, J. P. Perdew, and J. Sun.,  J. Phys. Chem. Lett. 11, 9248-9248 (2020)
Using LibXC functional ID 497 : Re-regularized SCAN exchange by Furness et al
[ 1]  J. W. Furness, A. D. Kaplan, J. Ning, J. P. Perdew, and J. Sun.,  J. Phys. Chem. Lett. 11, 8208-8215 (2020)
[ 2]  J. W. Furness, A. D. Kaplan, J. Ning, J. P. Perdew, and J. Sun.,  J. Phys. Chem. Lett. 11, 9248-9248 (2020)
Using LibXC functional ID 498 : Re-regularized SCAN correlation by Furness et al
[ 1]  J. W. Furness, A. D. Kaplan, J. Ning, J. P. Perdew, and J. Sun.,  J. Phys. Chem. Lett. 11, 8208-8215 (2020)
[ 2]  J. W. Furness, A. D. Kaplan, J. Ning, J. P. Perdew, and J. Sun.,  J. Phys. Chem. Lett. 11, 9248-9248 (2020)

================================================================================
                                       INPUT FILE
================================================================================
NAME = sp_gas.inp
|  1> ! r2scan-3c def2/J RI DEFGRID2 scfconv6 printgap
|  2> %output
|  3>     printlevel normal
|  4> end
|  5> * xyz 0 1
|  6> C 3.8487453169 -0.2678989757 -2.8033522904
|  7> C 4.3701069385 -0.8591809571 -1.5083313469
|  8> O 3.3164854467 -1.0608625146 -0.5504246989
|  9> P 2.6588811109 0.1581515696 0.2193445374
| 10> S 3.8288071168 1.6753584082 0.6178402242
| 11> O 2.1040982925 -0.7019824937 1.4308345421
| 12> C 1.4307169536 -0.0719394533 2.5381549062
| 13> C 2.3946520537 0.1750969335 3.681589221
| 14> S 0.9112180026 0.6774191074 -0.8927456674
| 15> C 0.1925025929 -0.9934304506 -0.9942913474
| 16> S -1.0397689771 -1.3129494625 0.2878917686
| 17> P -2.4992818484 0.0616892222 -0.4499335059
| 18> S -2.5781848212 0.2747897225 -2.3904119022
| 19> O -2.1801528545 1.4237621957 0.2807110578
| 20> C -2.1216301801 1.5751175987 1.7195482629
| 21> C -3.4468028025 2.0589921253 2.2715950055
| 22> O -3.845804626 -0.4068149988 0.2540680194
| 23> C -4.7226701791 -1.3870670807 -0.331877312
| 24> C -4.0791391194 -2.754686977 -0.4302807872
| 25> H 3.057377368 -0.888419248 -3.2164769527
| 26> H 3.4543360668 0.7320227841 -2.6232503739
| 27> H 4.6609605767 -0.2002343801 -3.519979514
| 28> H 5.1260596449 -0.2036150755 -1.0641581744
| 29> H 4.7858898128 -1.856557925 -1.6580582945
| 30> H 0.9787731505 0.8676653202 2.2013843808
| 31> H 0.6451212519 -0.7759661607 2.8215112153
| 32> H 2.8642152218 -0.7580791267 3.9784072589
| 33> H 3.169055235 0.874876504 3.3744996763
| 34> H 1.8528037717 0.5917352311 4.5244164911
| 35> H 0.97817205 -1.7362430022 -0.8778958923
| 36> H -0.2894343046 -1.0612226515 -1.9696450609
| 37> H -1.8348776052 0.6182003794 2.1654857674
| 38> H -1.3327027185 2.3129420813 1.8813308975
| 39> H -4.2190200512 1.3122375716 2.1093497652
| 40> H -3.3402375769 2.2404588686 3.3365676939
| 41> H -3.7405186903 2.981402214 1.7781805508
| 42> H -5.5854293064 -1.3953711033 0.335629541
| 43> H -5.0214614057 -1.0310602916 -1.3223662369
| 44> H -3.677028686 -3.056316857 0.5336212908
| 45> H -4.8228371338 -3.4761965594 -0.7530406199
| 46> H -3.2709681956 -2.734070815 -1.1597561791
| 47> *
| 48> 
| 49>                          ****END OF INPUT****
================================================================================

                       ****************************
                       * Single Point Calculation *
                       ****************************

---------------------------------
CARTESIAN COORDINATES (ANGSTROEM)
---------------------------------
  C      3.848745   -0.267899   -2.803352
  C      4.370107   -0.859181   -1.508331
  O      3.316485   -1.060863   -0.550425
  P      2.658881    0.158152    0.219345
  S      3.828807    1.675358    0.617840
  O      2.104098   -0.701982    1.430835
  C      1.430717   -0.071939    2.538155
  C      2.394652    0.175097    3.681589
  S      0.911218    0.677419   -0.892746
  C      0.192503   -0.993430   -0.994291
  S     -1.039769   -1.312949    0.287892
  P     -2.499282    0.061689   -0.449934
  S     -2.578185    0.274790   -2.390412
  O     -2.180153    1.423762    0.280711
  C     -2.121630    1.575118    1.719548
  C     -3.446803    2.058992    2.271595
  O     -3.845805   -0.406815    0.254068
  C     -4.722670   -1.387067   -0.331877
  C     -4.079139   -2.754687   -0.430281
  H      3.057377   -0.888419   -3.216477
  H      3.454336    0.732023   -2.623250
  H      4.660961   -0.200234   -3.519980
  H      5.126060   -0.203615   -1.064158
  H      4.785890   -1.856558   -1.658058
  H      0.978773    0.867665    2.201384
  H      0.645121   -0.775966    2.821511
  H      2.864215   -0.758079    3.978407
  H      3.169055    0.874877    3.374500
  H      1.852804    0.591735    4.524416
  H      0.978172   -1.736243   -0.877896
  H     -0.289434   -1.061223   -1.969645
  H     -1.834878    0.618200    2.165486
  H     -1.332703    2.312942    1.881331
  H     -4.219020    1.312238    2.109350
  H     -3.340238    2.240459    3.336568
  H     -3.740519    2.981402    1.778181
  H     -5.585429   -1.395371    0.335630
  H     -5.021461   -1.031060   -1.322366
  H     -3.677029   -3.056317    0.533621
  H     -4.822837   -3.476197   -0.753041
  H     -3.270968   -2.734071   -1.159756

----------------------------
CARTESIAN COORDINATES (A.U.)
----------------------------
  NO LB      ZA    FRAG     MASS         X           Y           Z
   0 C     6.0000    0    12.011    7.273075   -0.506256   -5.297568
   1 C     6.0000    0    12.011    8.258305   -1.623617   -2.850333
   2 O     8.0000    0    15.999    6.267249   -2.004740   -1.040152
   3 P    15.0000    0    30.974    5.024557    0.298863    0.414501
   4 S    16.0000    0    32.060    7.235397    3.165969    1.167549
   5 O     8.0000    0    15.999    3.976170   -1.326555    2.703885
   6 C     6.0000    0    12.011    2.703663   -0.135946    4.796418
   7 C     6.0000    0    12.011    4.525237    0.330885    6.957195
   8 S    16.0000    0    32.060    1.721952    1.280137   -1.687045
   9 C     6.0000    0    12.011    0.363777   -1.877311   -1.878938
  10 S    16.0000    0    32.060   -1.964879   -2.481115    0.544037
  11 P    15.0000    0    30.974   -4.722958    0.116576   -0.850251
  12 S    16.0000    0    32.060   -4.872063    0.519277   -4.517224
  13 O     8.0000    0    15.999   -4.119892    2.690521    0.530467
  14 C     6.0000    0    12.011   -4.009300    2.976541    3.249475
  15 C     6.0000    0    12.011   -6.513513    3.890931    4.292692
  16 O     8.0000    0    15.999   -7.267518   -0.768769    0.480119
  17 C     6.0000    0    12.011   -8.924553   -2.621177   -0.627157
  18 C     6.0000    0    12.011   -7.708456   -5.205604   -0.813113
  19 H     1.0000    0     1.008    5.777606   -1.678869   -6.078261
  20 H     1.0000    0     1.008    6.527749    1.383323   -4.957225
  21 H     1.0000    0     1.008    8.807939   -0.378388   -6.651797
  22 H     1.0000    0     1.008    9.686849   -0.384777   -2.010968
  23 H     1.0000    0     1.008    9.044021   -3.508386   -3.133276
  24 H     1.0000    0     1.008    1.849613    1.639650    4.160014
  25 H     1.0000    0     1.008    1.219102   -1.466364    5.331883
  26 H     1.0000    0     1.008    5.412582   -1.432562    7.518100
  27 H     1.0000    0     1.008    5.988646    1.653277    6.376880
  28 H     1.0000    0     1.008    3.501292    1.118218    8.549908
  29 H     1.0000    0     1.008    1.848477   -3.281024   -1.658983
  30 H     1.0000    0     1.008   -0.546952   -2.005420   -3.722090
  31 H     1.0000    0     1.008   -3.467416    1.168229    4.092175
  32 H     1.0000    0     1.008   -2.518443    4.370827    3.555200
  33 H     1.0000    0     1.008   -7.972792    2.479770    3.986093
  34 H     1.0000    0     1.008   -6.312134    4.233854    6.305199
  35 H     1.0000    0     1.008   -7.068556    5.634034    3.360274
  36 H     1.0000    0     1.008  -10.554932   -2.636869    0.634248
  37 H     1.0000    0     1.008   -9.489187   -1.948422   -2.498910
  38 H     1.0000    0     1.008   -6.948577   -5.775602    1.008398
  39 H     1.0000    0     1.008   -9.113841   -6.569059   -1.423041
  40 H     1.0000    0     1.008   -6.181234   -5.166645   -2.191622

--------------------------------
INTERNAL COORDINATES (ANGSTROEM)
--------------------------------
 C      0   0   0     0.000000000000     0.00000000     0.00000000
 C      1   0   0     1.516084287271     0.00000000     0.00000000
 O      2   1   0     1.438185956301   111.82002385     0.00000000
 P      3   2   1     1.584608303997   121.31225463   286.17599100
 S      4   3   2     1.956896078685   116.56767502   327.36805113
 O      4   3   2     1.585976864248    95.68336973   201.74788282
 C      6   4   3     1.441025693416   120.88545503   176.89042639
 C      7   6   4     1.515796782511   110.71682275   264.00748716
 S      4   3   2     2.135581826936   105.88447030    95.33118927
 C      9   4   3     1.821702942506    97.40470179    50.69305869
 S     10   9   4     1.806814645765   113.06122919    95.98323710
 P     11  10   9     2.136397779126    96.14595914    67.95788580
 S     12  11  10     1.953738444330   116.15413168    33.55183093
 O     12  11  10     1.578267270886   104.90870819   269.37657691
 C     14  12  11     1.447959206682   123.94579593   303.90800034
 C     15  14  12     1.514916711462   111.10905004   265.08031268
 O     12  11  10     1.590043377809   103.65282281   161.94650519
 C     17  12  11     1.439833071461   122.42208490   270.55981361
 C     18  17  12     1.514661562688   112.48300075    65.16836597
 H      1   2   3     1.087189323661   110.62827204   304.42348107
 H      1   2   3     1.089880214800   109.94439071    64.67347989
 H      1   2   3     1.085277247230   109.32875179   184.08817075
 H      2   1   3     1.094769805302   110.51668258   238.84037369
 H      2   1   3     1.090896133230   111.74042621   116.15438251
 H      7   6   4     1.095684588886   109.35986637    26.31745928
 H      7   6   4     1.092293462934   104.69186180   143.70988290
 H      8   7   6     1.086005559741   109.94336774   303.74169523
 H      8   7   6     1.087977813634   110.15406734    63.61812822
 H      8   7   6     1.085147381215   109.32528341   183.52665921
 H     10   9   4     1.087471785658   109.60274175   336.43810894
 H     10   9   4     1.090033862829   106.34101205   215.32538027
 H     15  14  12     1.093973428253   108.91849998    27.79111227
 H     15  14  12     1.092229429950   104.29973449   145.14949499
 H     16  15  14     1.086409389071   110.35290831    64.66762646
 H     16  15  14     1.085565821712   108.96662243   184.73433335
 H     16  15  14     1.086539101270   110.00727701   304.51195179
 H     18  17  12     1.090865558780   103.75813165   185.99086867
 H     18  17  12     1.094113952625   108.25213595   302.72284730
 H     19  18  17     1.087097328269   110.49213217    52.15045774
 H     19  18  17     1.085281863721   109.17477039   172.54859011
 H     19  18  17     1.088898349525   109.98420933   291.83371623

---------------------------
INTERNAL COORDINATES (A.U.)
---------------------------
 C      0   0   0     0.000000000000     0.00000000     0.00000000
 C      1   0   0     2.864984098883     0.00000000     0.00000000
 O      2   1   0     2.717777587060   111.82002385     0.00000000
 P      3   2   1     2.994475724091   121.31225463   286.17599100
 S      4   3   2     3.697997661260   116.56767502   327.36805113
 O      4   3   2     2.997061928163    95.68336973   201.74788282
 C      6   4   3     2.723143912501   120.88545503   176.89042639
 C      7   6   4     2.864440793624   110.71682275   264.00748716
 S      4   3   2     4.035664789488   105.88447030    95.33118927
 C      9   4   3     3.442519658695    97.40470179    50.69305869
 S     10   9   4     3.414384855254   113.06122919    95.98323710
 P     11  10   9     4.037206715666    96.14595914    67.95788580
 S     12  11  10     3.692030597096   116.15413168    33.55183093
 O     12  11  10     2.982492908107   104.90870819   269.37657691
 C     14  12  11     2.736246353720   123.94579593   303.90800034
 C     15  14  12     2.862777700363   111.10905004   265.08031268
 O     12  11  10     3.004746525115   103.65282281   161.94650519
 C     17  12  11     2.720890183623   122.42208490   270.55981361
 C     18  17  12     2.862295539058   112.48300075    65.16836597
 H      1   2   3     2.054490077442   110.62827204   304.42348107
 H      1   2   3     2.059575124752   109.94439071    64.67347989
 H      1   2   3     2.050876776640   109.32875179   184.08817075
 H      2   1   3     2.068815111706   110.51668258   238.84037369
 H      2   1   3     2.061494932358   111.74042621   116.15438251
 H      7   6   4     2.070543802153   109.35986637    26.31745928
 H      7   6   4     2.064135502818   104.69186180   143.70988290
 H      8   7   6     2.052253087827   109.94336774   303.74169523
 H      8   7   6     2.055980107552   110.15406734    63.61812822
 H      8   7   6     2.050631365438   109.32528341   183.52665921
 H     10   9   4     2.055023853260   109.60274175   336.43810894
 H     10   9   4     2.059865477446   106.34101205   215.32538027
 H     15  14  12     2.067310177186   108.91849998    27.79111227
 H     15  14  12     2.064014498014   104.29973449   145.14949499
 H     16  15  14     2.053016214665   110.35290831    64.66762646
 H     16  15  14     2.051422103381   108.96662243   184.73433335
 H     16  15  14     2.053261335197   110.00727701   304.51195179
 H     18  17  12     2.061437155021   103.75813165   185.99086867
 H     18  17  12     2.067575729763   108.25213595   302.72284730
 H     19  18  17     2.054316231347   110.49213217    52.15045774
 H     19  18  17     2.050885500545   109.17477039   172.54859011
 H     19  18  17     2.057719668282   109.98420933   291.83371623

---------------------
BASIS SET INFORMATION
---------------------
There are 5 groups of distinct atoms

 Group   1 Type C   : 11s6p1d contracted to 5s3p1d pattern {62111/411/1}
 Group   2 Type O   : 11s6p2d contracted to 5s3p2d pattern {62111/411/11}
 Group   3 Type P   : 14s9p2d contracted to 5s4p2d pattern {73211/6111/11}
 Group   4 Type S   : 14s9p2d contracted to 5s4p2d pattern {73211/6111/11}
 Group   5 Type H   : 4s1p contracted to 2s1p pattern {31/1}

Atom   0C    basis set group =>   1
Atom   1C    basis set group =>   1
Atom   2O    basis set group =>   2
Atom   3P    basis set group =>   3
Atom   4S    basis set group =>   4
Atom   5O    basis set group =>   2
Atom   6C    basis set group =>   1
Atom   7C    basis set group =>   1
Atom   8S    basis set group =>   4
Atom   9C    basis set group =>   1
Atom  10S    basis set group =>   4
Atom  11P    basis set group =>   3
Atom  12S    basis set group =>   4
Atom  13O    basis set group =>   2
Atom  14C    basis set group =>   1
Atom  15C    basis set group =>   1
Atom  16O    basis set group =>   2
Atom  17C    basis set group =>   1
Atom  18C    basis set group =>   1
Atom  19H    basis set group =>   5
Atom  20H    basis set group =>   5
Atom  21H    basis set group =>   5
Atom  22H    basis set group =>   5
Atom  23H    basis set group =>   5
Atom  24H    basis set group =>   5
Atom  25H    basis set group =>   5
Atom  26H    basis set group =>   5
Atom  27H    basis set group =>   5
Atom  28H    basis set group =>   5
Atom  29H    basis set group =>   5
Atom  30H    basis set group =>   5
Atom  31H    basis set group =>   5
Atom  32H    basis set group =>   5
Atom  33H    basis set group =>   5
Atom  34H    basis set group =>   5
Atom  35H    basis set group =>   5
Atom  36H    basis set group =>   5
Atom  37H    basis set group =>   5
Atom  38H    basis set group =>   5
Atom  39H    basis set group =>   5
Atom  40H    basis set group =>   5
---------------------------------
AUXILIARY/J BASIS SET INFORMATION
---------------------------------
There are 5 groups of distinct atoms

 Group   1 Type C   : 12s5p4d2f1g contracted to 6s4p3d1f1g pattern {711111/2111/211/2/1}
 Group   2 Type O   : 12s5p4d2f1g contracted to 6s4p3d1f1g pattern {711111/2111/211/2/1}
 Group   3 Type P   : 14s5p5d2f1g contracted to 8s4p3d1f1g pattern {71111111/2111/311/2/1}
 Group   4 Type S   : 14s5p5d2f1g contracted to 8s4p3d1f1g pattern {71111111/2111/311/2/1}
 Group   5 Type H   : 5s2p1d contracted to 3s1p1d pattern {311/2/1}

Atom   0C    basis set group =>   1
Atom   1C    basis set group =>   1
Atom   2O    basis set group =>   2
Atom   3P    basis set group =>   3
Atom   4S    basis set group =>   4
Atom   5O    basis set group =>   2
Atom   6C    basis set group =>   1
Atom   7C    basis set group =>   1
Atom   8S    basis set group =>   4
Atom   9C    basis set group =>   1
Atom  10S    basis set group =>   4
Atom  11P    basis set group =>   3
Atom  12S    basis set group =>   4
Atom  13O    basis set group =>   2
Atom  14C    basis set group =>   1
Atom  15C    basis set group =>   1
Atom  16O    basis set group =>   2
Atom  17C    basis set group =>   1
Atom  18C    basis set group =>   1
Atom  19H    basis set group =>   5
Atom  20H    basis set group =>   5
Atom  21H    basis set group =>   5
Atom  22H    basis set group =>   5
Atom  23H    basis set group =>   5
Atom  24H    basis set group =>   5
Atom  25H    basis set group =>   5
Atom  26H    basis set group =>   5
Atom  27H    basis set group =>   5
Atom  28H    basis set group =>   5
Atom  29H    basis set group =>   5
Atom  30H    basis set group =>   5
Atom  31H    basis set group =>   5
Atom  32H    basis set group =>   5
Atom  33H    basis set group =>   5
Atom  34H    basis set group =>   5
Atom  35H    basis set group =>   5
Atom  36H    basis set group =>   5
Atom  37H    basis set group =>   5
Atom  38H    basis set group =>   5
Atom  39H    basis set group =>   5
Atom  40H    basis set group =>   5

Checking for AutoStart:
The File: sp_gas.gbw exists
Trying to determine its content:
     ... Fine, the file contains calculation information
     ... Fine, the calculation information was read
     ... Fine, the file contains a basis set
     ... Fine, the basis set was read
     ... Fine, the file contains a geometry
     ... Fine, the geometry was read
     ... Fine, the file contains a set of orbitals
     ... Fine, the orbitals can be read
     => possible old guess file was deleted
     => GBW file was renamed to GES file
     => GES file is set as startup file
     => Guess is set to MORead
     ... now leaving AutoStart

------------------------------------------------------------------------------
                             ORCA STARTUP CALCULATIONS
                           -- RI-GTO INTEGRALS CHOSEN --
------------------------------------------------------------------------------
------------------------------------------------------------------------------
                   ___                                                        
                  /   \      - P O W E R E D   B Y -                         
                 /     \                                                     
                 |  |  |   _    _      __       _____    __    __             
                 |  |  |  | |  | |    /  \     |  _  \  |  |  /  |          
                  \  \/   | |  | |   /    \    | | | |  |  | /  /          
                 / \  \   | |__| |  /  /\  \   | |_| |  |  |/  /          
                |  |  |   |  __  | /  /__\  \  |    /   |      \           
                |  |  |   | |  | | |   __   |  |    \   |  |\   \          
                \     /   | |  | | |  |  |  |  | |\  \  |  | \   \       
                 \___/    |_|  |_| |__|  |__|  |_| \__\ |__|  \__/        
                                                                              
                      - O R C A' S   B I G   F R I E N D -                    
                                      &                                       
                       - I N T E G R A L  F E E D E R -                       
                                                                              
 v1 FN, 2020, v2 2021, v3 2022-2024                                           
------------------------------------------------------------------------------


----------------------
SHARK INTEGRAL PACKAGE
----------------------

Number of atoms                             ...     41
Number of basis functions                   ...    539
Number of shells                            ...    253
Maximum angular momentum                    ...      2
Integral batch strategy                     ... SHARK/LIBINT Hybrid
RI-J (if used) integral strategy            ... SPLIT-RIJ (Revised 2003 algorithm where possible)
Printlevel                                  ...      1
Contraction scheme used                     ... SEGMENTED contraction
Prescreening option                         ... SCHWARTZ
   Thresh                                   ... 1.000e-10
   Tcut                                     ... 1.000e-11
   Tpresel                                  ... 1.000e-11 
Coulomb Range Separation                    ... NOT USED
Exchange Range Separation                   ... NOT USED
Multipole approximations                    ... NOT USED
Finite Nucleus Model                        ... NOT USED
CABS basis                                  ... NOT available
Auxiliary Coulomb fitting basis             ... AVAILABLE
   # of basis functions in Aux-J            ...   1185
   # of shells in Aux-J                     ...    407
   Maximum angular momentum in Aux-J        ...      4
Auxiliary J/K fitting basis                 ... NOT available
Auxiliary Correlation fitting basis         ... NOT available
Auxiliary 'external' fitting basis          ... NOT available

Checking pre-screening integrals            ... done (  0.0 sec) Dimension = 253
Check shell pair data                       ... done (  0.0 sec)
Shell pair information
Shell pair cut-off parameter TPreSel        ...   1.0e-11
Total number of shell pairs                 ...     32131
Shell pairs after pre-screening             ...     20846
Total number of primitive shell pairs       ...    124843
Primitive shell pairs kept                  ...     48675
          la=0 lb=0:   5845 shell pairs
          la=1 lb=0:   7578 shell pairs
          la=1 lb=1:   2503 shell pairs
          la=2 lb=0:   2780 shell pairs
          la=2 lb=1:   1800 shell pairs
          la=2 lb=2:    340 shell pairs

Calculating one electron integrals          ... done (  0.1 sec)
Calculating RI/J V-Matrix + Cholesky decomp.... done (  0.1 sec)
Calculating Nuclear repulsion               ... done (  0.0 sec) ENN=   2723.640100460011 Eh

Diagonalization of the overlap matrix:
Smallest eigenvalue                        ... 2.673e-04
Time for diagonalization                   ...    0.031 sec
Threshold for overlap eigenvalues          ... 1.000e-07
Number of eigenvalues below threshold      ... 0
Time for construction of square roots      ...    0.054 sec
Total time needed                          ...    0.097 sec

-------------------
DFT GRID GENERATION
-------------------

General Integration Accuracy     IntAcc      ... 4.388
Radial Grid Type                 RadialGrid  ... OptM3 with GC (2021)
Angular Grid (max. ang.)         AngularGrid ... 4 (Lebedev-302)
Angular grid pruning method      GridPruning ... 4 (adaptive)
Weight generation scheme         WeightScheme... mBecke (2022)
Basis function cutoff            BFCut       ... 1.0000e-10
Integration weight cutoff        WCut        ... 1.0000e-14
Partially contracted basis set               ... off
Rotationally invariant grid construction     ... off
Angular grids for H and He will be reduced by one unit
Diffuse basis detected: some atoms will have their outermost
                        angular grid increased by 1.

Total number of grid points                  ...   192653
Total number of batches                      ...     3029
Average number of points per batch           ...       63
Average number of grid points per atom       ...     4699
Initializing property integral containers    ... done (  0.0 sec)

SHARK setup successfully completed in   2.9 seconds

Maximum memory used throughout the entire STARTUP-calculation: 101.0 MB
-------------------------------------------------------------------------------
                                 ORCA GUESS
                   Start orbitals & Density for SCF / CASSCF
-------------------------------------------------------------------------------

------------
SCF SETTINGS
------------
Hamiltonian:
 Density Functional     Method          .... DFT(GTOs)
  Functional kind                       .... Exchange
  Functional name                       .... Re-regularized SCAN exchange by Furness et al
  Functional family                     .... MGGA
  Functional refs                              
    [ 0] J. W. Furness, A. D. Kaplan, J. Ning, J. P. Perdew, and J. Sun.,  J. Phys. Chem. Lett. 11, 8208-8215 (2020), doi: 10.1021/acs.jpclett.0c02405
    [ 1] J. W. Furness, A. D. Kaplan, J. Ning, J. P. Perdew, and J. Sun.,  J. Phys. Chem. Lett. 11, 9248-9248 (2020), doi: 10.1021/acs.jpclett.0c03077
  Functional external parameters        .... 6
    Parameter  0 _c1        =  6.670000e-01 : c1 parameter        
    Parameter  1 _c2        =  8.000000e-01 : c2 parameter        
    Parameter  2 _d         =  1.240000e+00 : d parameter         
    Parameter  3 _k1        =  6.500000e-02 : k1 parameter        
    Parameter  4 _eta       =  1.000000e-03 : eta parameter       
    Parameter  5 _dp2       =  3.610000e-01 : dp2 parameter       
  Functional kind                       .... Correlation
  Functional name                       .... Re-regularized SCAN correlation by Furness et al
  Functional family                     .... MGGA
  Functional refs                              
    [ 0] J. W. Furness, A. D. Kaplan, J. Ning, J. P. Perdew, and J. Sun.,  J. Phys. Chem. Lett. 11, 8208-8215 (2020), doi: 10.1021/acs.jpclett.0c02405
    [ 1] J. W. Furness, A. D. Kaplan, J. Ning, J. P. Perdew, and J. Sun.,  J. Phys. Chem. Lett. 11, 9248-9248 (2020), doi: 10.1021/acs.jpclett.0c03077
  Functional external parameters        .... 1
    Parameter  0 _eta       =  1.000000e-03 : Regularization parameter
 Gradients option       PostSCFGGA      .... off
 RI-approximation to the Coulomb term is turned on
   Number of AuxJ basis functions       .... 1185


General Settings:
 Integral files         IntName         .... sp_gas
 Hartree-Fock type      HFTyp           .... RHF
 Total Charge           Charge          ....    0
 Multiplicity           Mult            ....    1
 Number of Electrons    NEL             ....  202
 Basis Dimension        Dim             ....  539
 Nuclear Repulsion      ENuc            ....   2723.6401004600 Eh

Convergence Acceleration:
 AO-DIIS                CNVDIIS         .... on
   Start iteration      DIISMaxIt       ....    12
   Startup error        DIISStart       ....  0.200000
   # of expansion vecs  DIISMaxEq       ....     5
   Bias factor          DIISBfac        ....   1.050
   Max. coefficient     DIISMaxC        ....  10.000
 MO-DIIS                CNVKDIIS        .... off
 Trust-Rad. Augm. Hess. CNVTRAH         .... auto
   Auto Start mean grad. ratio tolernc. ....  1.125000
   Auto Start start iteration           ....     1
   Auto Start num. interpolation iter.  ....    10
   Max. Number of Micro iterations      ....    24
   Max. Number of Macro iterations      .... Maxiter - #DIIS iter
   Number of Davidson start vectors     ....     2
   Converg. threshold    (grad. norm)   ....   3.330e-04
   Grad. Scal. Fac. for Micro threshold ....   0.100
   Minimum threshold for Micro iter.    ....   1.000e-02
   NR start threshold (gradient norm)   ....   1.000e-04
   Initial trust radius                 ....   0.400
   Minimum AH scaling param. (alpha)    ....   1.000
   Maximum AH scaling param. (alpha)    .... 1000.000
   Quad. conv. algorithm                .... NR
   White noise on init. David. guess    .... on
   Maximum white noise                  ....   0.010
   Pseudo random numbers                .... off
   Inactive MOs                         .... canonical
   Orbital update algorithm             .... Taylor
   Preconditioner                       .... Diag
   Full preconditioner red. dimension   ....   250
   COSX micro iterations for RIJONX calc.... off
 SOSCF                  CNVSOSCF        .... on
   Start iteration      SOSCFMaxIt      ....   150
   Startup grad/error   SOSCFStart      ....  0.003300
   Hessian update       SOSCFHessUp     .... L-BFGS
 Level Shifting         CNVShift        .... on
   Level shift para.    LevelShift      ....    0.2500
   Turn off err/grad.   ShiftErr        ....    0.0010
 Zerner damping         CNVZerner       .... off
 Static damping         CNVDamp         .... on
   Fraction old density DampFac         ....    0.7000
   Max. Damping (<1)    DampMax         ....    0.9800
   Min. Damping (>=0)   DampMin         ....    0.0000
   Turn off err/grad.   DampErr         ....    0.1000

SCF Procedure:
 Maximum # iterations   MaxIter         ....   125
 SCF integral mode      SCFMode         .... Direct
   Integral package                     .... SHARK and LIBINT hybrid scheme
 Reset frequency        DirectResetFreq ....    20
 Integral Threshold     Thresh          ....  1.000e-10 Eh
 Primitive CutOff       TCut            ....  1.000e-11 Eh

Convergence Tolerance:
 Convergence Check Mode ConvCheckMode   .... Total+1el-Energy
 Convergence forced     ConvForced      .... 0
 Energy Change          TolE            ....  1.000e-06 Eh
 1-El. energy change                    ....  1.000e-03 Eh
 Orbital Gradient       TolG            ....  3.330e-04
 Orbital Rotation angle TolX            ....  3.330e-04
 DIIS Error             TolErr          ....  1.000e-06

---------------------
INITIAL GUESS: MOREAD
---------------------
Guess MOs are being read from file: sp_gas.ges
Input Geometry matches current geometry (good)
Atom 0: N(Shells)= 9 and 6 - projection required
Input basis set needs projection
NBasis(read)= 334
NBasis(calc)= 539
Basis set overlap was calculated
Using GuessMode=FMatrix for the initial guess
C*T matrix was formed
Effective Fockian was calculated
Effective Fockian was diagonalized
Initial density was built
                      ------------------
                      INITIAL GUESS DONE (   0.2 sec)
                      ------------------
             **** ENERGY FILE WAS UPDATED (sp_gas.en.tmp) ****
Finished Guess after   0.5 sec
Maximum memory used throughout the entire GUESS-calculation: 58.0 MB

-------------------------------------------------------------------------------------------
                                      ORCA LEAN-SCF
                              memory conserving SCF solver
-------------------------------------------------------------------------------------------

----------------------------------------D-I-I-S--------------------------------------------
Iteration    Energy (Eh)           Delta-E    RMSDP     MaxDP     DIISErr   Damp  Time(sec)
-------------------------------------------------------------------------------------------
               ***  Starting incremental Fock matrix formation  ***
    1    -2932.0097842662089533     0.00e+00  2.10e-03  9.01e-02  6.32e-01  0.700   8.6
    2    -2932.1520631346847949    -1.42e-01  1.73e-03  7.33e-02  4.44e-01  0.700   6.9
    3    -2932.2525689017193145    -1.01e-01  1.27e-03  5.39e-02  3.11e-01  0.700   7.2
    4    -2932.3230808042371791    -7.05e-02  9.09e-04  3.85e-02  2.18e-01  0.700   6.9
                               ***Turning on AO-DIIS***
    5    -2932.3725148802050171    -4.94e-02  6.58e-04  2.77e-02  1.53e-01  0.700   6.8
    6    -2932.4071530359815370    -3.46e-02  4.66e-04  1.96e-02  1.07e-01  0.700   6.5
    7    -2932.4314295358863092    -2.43e-02  3.28e-04  1.38e-02  7.47e-02  0.700   6.5
    8    -2932.4484359087973644    -1.70e-02  7.70e-04  3.23e-02  5.24e-02  0.000   6.6
                              *** Initializing SOSCF ***
---------------------------------------S-O-S-C-F--------------------------------------
Iteration    Energy (Eh)           Delta-E    RMSDP     MaxDP     MaxGrad    Time(sec)
--------------------------------------------------------------------------------------
    9    -2932.4881599662185181    -3.97e-02  4.86e-06  1.89e-04  1.19e-04     7.0
               *** Restarting incremental Fock matrix formation ***
   10    -2932.4881603605299460    -3.94e-07  4.28e-06  1.44e-04  2.68e-05     8.5
                  *** Gradient check signals convergence ***

               *****************************************************
               *                     SUCCESS                       *
               *           SCF CONVERGED AFTER  10 CYCLES          *
               *****************************************************

             **** ENERGY FILE WAS UPDATED (sp_gas.en.tmp) ****

----------------
TOTAL SCF ENERGY
----------------

Total Energy       :      -2932.48816036052995 Eh          -79797.05965 eV

Components:
Nuclear Repulsion  :       2723.64010046001113 Eh           74114.01502 eV
Electronic Energy  :      -5656.12826082054107 Eh         -153911.07466 eV
One Electron Energy:      -9467.67765354776202 Eh         -257628.60654 eV
Two Electron Energy:       3811.54939272722095 Eh          103717.53187 eV

Virial components:
Potential Energy   :      -5856.13293402231375 Eh         -159353.47851 eV
Kinetic Energy     :       2923.64477366178380 Eh           79556.41886 eV
Virial Ratio       :          2.00302478152559

DFT components:
N(Alpha)           :      100.999966333143 electrons
N(Beta)            :      100.999966333143 electrons
N(Total)           :      201.999932666287 electrons
E(X)               :     -233.533354514491 Eh       
E(C)               :       -7.118091474989 Eh       
E(XC)              :     -240.651445989480 Eh       

---------------
SCF CONVERGENCE
---------------

  Last Energy change         ...    3.9431e-07  Tolerance :   1.0000e-06
  Last MAX-Density change    ...    1.4428e-04  Tolerance :   1.0000e-05
  Last RMS-Density change    ...    4.2787e-06  Tolerance :   1.0000e-06
  Last DIIS Error            ...    1.1925e-04  Tolerance :   1.0000e-06
  Last Orbital Gradient      ...    2.6842e-05  Tolerance :   3.3300e-04
  Last Orbital Rotation      ...    8.4194e-05  Tolerance :   3.3300e-04


----------------
ORBITAL ENERGIES
----------------

  NO   OCC          E(Eh)            E(eV) 
   0   2.0000     -88.578704     -2410.3491 
   1   2.0000     -88.573724     -2410.2136 
   2   2.0000     -88.525948     -2408.9135 
   3   2.0000     -88.522542     -2408.8208 
   4   2.0000     -76.919283     -2093.0801 
   5   2.0000     -76.914470     -2092.9491 
   6   2.0000     -19.000743      -517.0365 
   7   2.0000     -18.994512      -516.8669 
   8   2.0000     -18.993864      -516.8493 
   9   2.0000     -18.992242      -516.8052 
  10   2.0000     -10.107195      -275.0308 
  11   2.0000     -10.106749      -275.0186 
  12   2.0000     -10.105714      -274.9905 
  13   2.0000     -10.100983      -274.8617 
  14   2.0000     -10.099163      -274.8122 
  15   2.0000     -10.034657      -273.0569 
  16   2.0000     -10.033950      -273.0377 
  17   2.0000     -10.028290      -272.8836 
  18   2.0000     -10.026345      -272.8307 
  19   2.0000      -7.873176      -214.2400 
  20   2.0000      -7.867305      -214.0802 
  21   2.0000      -7.820657      -212.8109 
  22   2.0000      -7.817171      -212.7160 
  23   2.0000      -6.597741      -179.5337 
  24   2.0000      -6.592924      -179.4026 
  25   2.0000      -5.819922      -158.3681 
  26   2.0000      -5.817061      -158.2903 
  27   2.0000      -5.814528      -158.2214 
  28   2.0000      -5.810902      -158.1227 
  29   2.0000      -5.810379      -158.1084 
  30   2.0000      -5.804474      -157.9478 
  31   2.0000      -5.768381      -156.9656 
  32   2.0000      -5.764806      -156.8683 
  33   2.0000      -5.760826      -156.7600 
  34   2.0000      -5.760699      -156.7566 
  35   2.0000      -5.757533      -156.6704 
  36   2.0000      -5.757138      -156.6597 
  37   2.0000      -4.743586      -129.0795 
  38   2.0000      -4.742619      -129.0532 
  39   2.0000      -4.741216      -129.0150 
  40   2.0000      -4.738288      -128.9354 
  41   2.0000      -4.738216      -128.9334 
  42   2.0000      -4.736433      -128.8849 
  43   2.0000      -1.056637       -28.7526 
  44   2.0000      -1.054982       -28.7075 
  45   2.0000      -1.016076       -27.6488 
  46   2.0000      -1.013062       -27.5668 
  47   2.0000      -0.801441       -21.8083 
  48   2.0000      -0.761118       -20.7111 
  49   2.0000      -0.753309       -20.4986 
  50   2.0000      -0.740034       -20.1373 
  51   2.0000      -0.728321       -19.8186 
  52   2.0000      -0.714305       -19.4372 
  53   2.0000      -0.692251       -18.8371 
  54   2.0000      -0.671591       -18.2749 
  55   2.0000      -0.632027       -17.1983 
  56   2.0000      -0.628033       -17.0896 
  57   2.0000      -0.613594       -16.6968 
  58   2.0000      -0.601631       -16.3712 
  59   2.0000      -0.593780       -16.1576 
  60   2.0000      -0.531107       -14.4522 
  61   2.0000      -0.526449       -14.3254 
  62   2.0000      -0.499896       -13.6029 
  63   2.0000      -0.493646       -13.4328 
  64   2.0000      -0.478013       -13.0074 
  65   2.0000      -0.470923       -12.8145 
  66   2.0000      -0.466036       -12.6815 
  67   2.0000      -0.453250       -12.3336 
  68   2.0000      -0.447800       -12.1853 
  69   2.0000      -0.441567       -12.0156 
  70   2.0000      -0.427858       -11.6426 
  71   2.0000      -0.417242       -11.3537 
  72   2.0000      -0.412929       -11.2364 
  73   2.0000      -0.406467       -11.0605 
  74   2.0000      -0.399273       -10.8648 
  75   2.0000      -0.392104       -10.6697 
  76   2.0000      -0.385099       -10.4791 
  77   2.0000      -0.378074       -10.2879 
  78   2.0000      -0.373286       -10.1576 
  79   2.0000      -0.371253       -10.1023 
  80   2.0000      -0.366560        -9.9746 
  81   2.0000      -0.363301        -9.8859 
  82   2.0000      -0.359870        -9.7926 
  83   2.0000      -0.351277        -9.5587 
  84   2.0000      -0.344579        -9.3765 
  85   2.0000      -0.341114        -9.2822 
  86   2.0000      -0.332493        -9.0476 
  87   2.0000      -0.317648        -8.6436 
  88   2.0000      -0.314937        -8.5699 
  89   2.0000      -0.312116        -8.4931 
  90   2.0000      -0.306860        -8.3501 
  91   2.0000      -0.291103        -7.9213 
  92   2.0000      -0.287388        -7.8202 
  93   2.0000      -0.282567        -7.6890 
  94   2.0000      -0.272149        -7.4056 
  95   2.0000      -0.248883        -6.7725 
  96   2.0000      -0.233994        -6.3673 
  97   2.0000      -0.226044        -6.1510 
  98   2.0000      -0.222462        -6.0535 
  99   2.0000      -0.220187        -5.9916 
 100   2.0000      -0.214108        -5.8262 
 101   0.0000      -0.045383        -1.2349 
 102   0.0000      -0.027462        -0.7473 
 103   0.0000      -0.013289        -0.3616 
 104   0.0000       0.002393         0.0651 
 105   0.0000       0.006760         0.1840 
 106   0.0000       0.016787         0.4568 
 107   0.0000       0.035671         0.9707 
 108   0.0000       0.038403         1.0450 
 109   0.0000       0.050125         1.3640 
 110   0.0000       0.060757         1.6533 
 111   0.0000       0.069136         1.8813 
*Only the first 10 virtual orbitals were printed.

                    ********************************
                    * MULLIKEN POPULATION ANALYSIS *
                    ********************************

-----------------------
MULLIKEN ATOMIC CHARGES
-----------------------
   0 C :   -0.430532
   1 C :   -0.151682
   2 O :   -0.310220
   3 P :    0.678219
   4 S :   -0.449843
   5 O :   -0.309790
   6 C :   -0.120153
   7 C :   -0.462955
   8 S :   -0.136744
   9 C :   -0.226121
  10 S :   -0.160507
  11 P :    0.644989
  12 S :   -0.431432
  13 O :   -0.258582
  14 C :   -0.110097
  15 C :   -0.467194
  16 O :   -0.291074
  17 C :   -0.166307
  18 C :   -0.441962
  19 H :    0.149371
  20 H :    0.176163
  21 H :    0.147699
  22 H :    0.173196
  23 H :    0.149163
  24 H :    0.154192
  25 H :    0.159213
  26 H :    0.153454
  27 H :    0.180131
  28 H :    0.142283
  29 H :    0.203624
  30 H :    0.221318
  31 H :    0.153848
  32 H :    0.161295
  33 H :    0.165139
  34 H :    0.145987
  35 H :    0.160472
  36 H :    0.148686
  37 H :    0.175751
  38 H :    0.153353
  39 H :    0.149098
  40 H :    0.178549
Sum of atomic charges:    0.0000000

--------------------------------
MULLIKEN REDUCED ORBITAL CHARGES
--------------------------------
  0 C s       :     3.304865  s :     3.304865
      pz      :     0.953511  p :     3.099961
      px      :     1.069661
      py      :     1.076789
      dz2     :     0.004950  d :     0.025706
      dxz     :     0.007393
      dyz     :     0.004370
      dx2y2   :     0.003970
      dxy     :     0.005023

  1 C s       :     3.284168  s :     3.284168
      pz      :     0.852993  p :     2.812561
      px      :     0.850230
      py      :     1.109339
      dz2     :     0.013014  d :     0.054952
      dxz     :     0.015926
      dyz     :     0.008085
      dx2y2   :     0.007670
      dxy     :     0.010256

  2 O s       :     3.734757  s :     3.734757
      pz      :     1.508349  p :     4.548041
      px      :     1.475849
      py      :     1.563843
      dz2     :     0.006289  d :     0.027422
      dxz     :     0.003437
      dyz     :     0.007496
      dx2y2   :     0.003315
      dxy     :     0.006886

  3 P s       :     5.150466  s :     5.150466
      pz      :     2.818915  p :     8.450335
      px      :     2.832857
      py      :     2.798562
      dz2     :     0.110780  d :     0.720981
      dxz     :     0.123149
      dyz     :     0.166182
      dx2y2   :     0.180211
      dxy     :     0.140659

  4 S s       :     5.908077  s :     5.908077
      pz      :     3.645461  p :    10.477198
      px      :     3.457230
      py      :     3.374507
      dz2     :     0.009233  d :     0.064568
      dxz     :     0.007517
      dyz     :     0.010377
      dx2y2   :     0.014655
      dxy     :     0.022787

  5 O s       :     3.740725  s :     3.740725
      pz      :     1.269454  p :     4.543014
      px      :     1.651039
      py      :     1.622521
      dz2     :    -0.004831  d :     0.026051
      dxz     :     0.010399
      dyz     :     0.006213
      dx2y2   :     0.005879
      dxy     :     0.008390

  6 C s       :     3.279237  s :     3.279237
      pz      :     0.788019  p :     2.786249
      px      :     0.958857
      py      :     1.039373
      dz2     :     0.012708  d :     0.054667
      dxz     :     0.014258
      dyz     :     0.011112
      dx2y2   :     0.005054
      dxy     :     0.011535

  7 C s       :     3.335628  s :     3.335628
      pz      :     0.978268  p :     3.101726
      px      :     1.023894
      py      :     1.099563
      dz2     :     0.004187  d :     0.025601
      dxz     :     0.007857
      dyz     :     0.004023
      dx2y2   :     0.002349
      dxy     :     0.007185

  8 S s       :     5.931633  s :     5.931633
      pz      :     3.639111  p :    10.103734
      px      :     3.246463
      py      :     3.218160
      dz2     :     0.015101  d :     0.101377
      dxz     :     0.022435
      dyz     :     0.012362
      dx2y2   :     0.028176
      dxy     :     0.023303

  9 C s       :     3.172343  s :     3.172343
      pz      :     1.047062  p :     3.018116
      px      :     1.011077
      py      :     0.959977
      dz2     :     0.008328  d :     0.035662
      dxz     :     0.008091
      dyz     :     0.004453
      dx2y2   :     0.005269
      dxy     :     0.009522

 10 S s       :     5.907937  s :     5.907937
      pz      :     3.446515  p :    10.149725
      px      :     3.122715
      py      :     3.580495
      dz2     :     0.018037  d :     0.102845
      dxz     :     0.027752
      dyz     :     0.016563
      dx2y2   :     0.014463
      dxy     :     0.026030

 11 P s       :     5.181955  s :     5.181955
      pz      :     2.810516  p :     8.447497
      px      :     2.816595
      py      :     2.820386
      dz2     :     0.111377  d :     0.725559
      dxz     :     0.190113
      dyz     :     0.188885
      dx2y2   :     0.117983
      dxy     :     0.117202

 12 S s       :     5.905383  s :     5.905383
      pz      :     3.121307  p :    10.460583
      px      :     3.675547
      py      :     3.663729
      dz2     :     0.032268  d :     0.065465
      dxz     :     0.015384
      dyz     :     0.013458
      dx2y2   :     0.002355
      dxy     :     0.002000

 13 O s       :     3.736210  s :     3.736210
      pz      :     1.224590  p :     4.519233
      px      :     1.788177
      py      :     1.506466
      dz2     :    -0.004614  d :     0.003139
      dxz     :     0.000478
      dyz     :    -0.003940
      dx2y2   :     0.005875
      dxy     :     0.005340

 14 C s       :     3.269524  s :     3.269524
      pz      :     0.694065  p :     2.786563
      px      :     1.006005
      py      :     1.086493
      dz2     :     0.017817  d :     0.054010
      dxz     :     0.011858
      dyz     :     0.009434
      dx2y2   :     0.005676
      dxy     :     0.009225

 15 C s       :     3.333112  s :     3.333112
      pz      :     1.060559  p :     3.108374
      px      :     0.960900
      py      :     1.086915
      dz2     :     0.006649  d :     0.025707
      dxz     :     0.003352
      dyz     :     0.003048
      dx2y2   :     0.004942
      dxy     :     0.007716

 16 O s       :     3.733481  s :     3.733481
      pz      :     1.672954  p :     4.534906
      px      :     1.301406
      py      :     1.560546
      dz2     :    -0.003405  d :     0.022687
      dxz     :     0.011864
      dyz     :     0.003753
      dx2y2   :     0.008580
      dxy     :     0.001895

 17 C s       :     3.296854  s :     3.296854
      pz      :     1.069989  p :     2.814573
      px      :     0.901052
      py      :     0.843532
      dz2     :     0.008423  d :     0.054879
      dxz     :     0.011363
      dyz     :     0.009412
      dx2y2   :     0.012551
      dxy     :     0.013130

 18 C s       :     3.305215  s :     3.305215
      pz      :     1.093321  p :     3.111002
      px      :     1.072138
      py      :     0.945542
      dz2     :     0.004657  d :     0.025746
      dxz     :     0.006513
      dyz     :     0.003609
      dx2y2   :     0.004237
      dxy     :     0.006729

 19 H s       :     0.832461  s :     0.832461
      pz      :     0.004615  p :     0.018168
      px      :     0.007719
      py      :     0.005834

 20 H s       :     0.805415  s :     0.805415
      pz      :     0.003670  p :     0.018422
      px      :     0.004679
      py      :     0.010073

 21 H s       :     0.833794  s :     0.833794
      pz      :     0.007113  p :     0.018507
      px      :     0.007583
      py      :     0.003811

 22 H s       :     0.808849  s :     0.808849
      pz      :     0.004252  p :     0.017954
      px      :     0.006815
      py      :     0.006887

 23 H s       :     0.833442  s :     0.833442
      pz      :     0.003072  p :     0.017395
      px      :     0.004133
      py      :     0.010190

 24 H s       :     0.827861  s :     0.827861
      pz      :     0.003425  p :     0.017947
      px      :     0.004842
      py      :     0.009680

 25 H s       :     0.823207  s :     0.823207
      pz      :     0.003250  p :     0.017580
      px      :     0.007841
      py      :     0.006489

 26 H s       :     0.828277  s :     0.828277
      pz      :     0.004097  p :     0.018268
      px      :     0.005165
      py      :     0.009006

 27 H s       :     0.801271  s :     0.801271
      pz      :     0.004231  p :     0.018598
      px      :     0.007583
      py      :     0.006785

 28 H s       :     0.839233  s :     0.839233
      pz      :     0.008363  p :     0.018485
      px      :     0.005208
      py      :     0.004914

 29 H s       :     0.777183  s :     0.777183
      pz      :     0.003431  p :     0.019192
      px      :     0.008338
      py      :     0.007424

 30 H s       :     0.759172  s :     0.759172
      pz      :     0.010569  p :     0.019510
      px      :     0.005622
      py      :     0.003319

 31 H s       :     0.828040  s :     0.828040
      pz      :     0.003900  p :     0.018112
      px      :     0.004214
      py      :     0.009998

 32 H s       :     0.821326  s :     0.821326
      pz      :     0.002343  p :     0.017379
      px      :     0.007889
      py      :     0.007147

 33 H s       :     0.816478  s :     0.816478
      pz      :     0.003778  p :     0.018384
      px      :     0.007425
      py      :     0.007180

 34 H s       :     0.835566  s :     0.835566
      pz      :     0.010853  p :     0.018448
      px      :     0.003593
      py      :     0.004002

 35 H s       :     0.821326  s :     0.821326
      pz      :     0.005118  p :     0.018202
      px      :     0.004116
      py      :     0.008967

 36 H s       :     0.833917  s :     0.833917
      pz      :     0.006159  p :     0.017397
      px      :     0.008352
      py      :     0.002885

 37 H s       :     0.806566  s :     0.806566
      pz      :     0.010612  p :     0.017683
      px      :     0.003456
      py      :     0.003615

 38 H s       :     0.828465  s :     0.828465
      pz      :     0.009368  p :     0.018182
      px      :     0.004758
      py      :     0.004056

 39 H s       :     0.832387  s :     0.832387
      pz      :     0.004426  p :     0.018514
      px      :     0.006899
      py      :     0.007189

 40 H s       :     0.802952  s :     0.802952
      pz      :     0.006902  p :     0.018500
      px      :     0.008095
      py      :     0.003502


------------------------
MULLIKEN OVERLAP CHARGES
------------------------
B(  0-C ,  1-C ) :   0.4478 B(  0-C ,  2-O ) :  -0.1436 B(  0-C , 19-H ) :   0.8064 
B(  0-C , 20-H ) :   0.8338 B(  0-C , 21-H ) :   0.7865 B(  0-C , 22-H ) :  -0.1092 
B(  1-C ,  2-O ) :   0.3334 B(  1-C ,  3-P ) :  -0.1602 B(  1-C , 19-H ) :  -0.0627 
B(  1-C , 20-H ) :  -0.0786 B(  1-C , 21-H ) :  -0.0603 B(  1-C , 22-H ) :   0.8780 
B(  1-C , 23-H ) :   0.7992 B(  2-O ,  3-P ) :   0.6065 B(  2-O ,  4-S ) :  -0.1032 
B(  2-O ,  5-O ) :  -0.2485 B(  2-O ,  8-S ) :  -0.1072 B(  2-O , 22-H ) :  -0.0820 
B(  2-O , 23-H ) :  -0.1050 B(  3-P ,  4-S ) :   1.2762 B(  3-P ,  5-O ) :   0.6345 
B(  3-P ,  6-C ) :  -0.1785 B(  3-P ,  8-S ) :   0.6967 B(  3-P ,  9-C ) :  -0.0664 
B(  4-S ,  5-O ) :  -0.0950 B(  4-S ,  6-C ) :   0.0513 B(  4-S ,  8-S ) :  -0.0715 
B(  5-O ,  6-C ) :   0.2161 B(  5-O ,  7-C ) :  -0.0881 B(  5-O ,  8-S ) :  -0.1421 
B(  5-O , 24-H ) :  -0.0772 B(  5-O , 25-H ) :  -0.0944 B(  6-C ,  7-C ) :   0.5378 
B(  6-C , 24-H ) :   0.8319 B(  6-C , 25-H ) :   0.8209 B(  6-C , 26-H ) :  -0.0795 
B(  6-C , 27-H ) :  -0.0592 B(  6-C , 28-H ) :  -0.0815 B(  7-C , 24-H ) :  -0.0633 
B(  7-C , 25-H ) :  -0.0638 B(  7-C , 26-H ) :   0.8436 B(  7-C , 27-H ) :   0.8237 
B(  7-C , 28-H ) :   0.8109 B(  8-S ,  9-C ) :   0.3682 B(  8-S , 10-S ) :  -0.1498 
B(  8-S , 29-H ) :  -0.0580 B(  8-S , 30-H ) :  -0.0766 B(  9-C , 10-S ) :   0.3764 
B(  9-C , 11-P ) :  -0.1039 B(  9-C , 29-H ) :   0.7833 B(  9-C , 30-H ) :   0.8176 
B( 10-S , 11-P ) :   0.6127 B( 10-S , 12-S ) :  -0.1075 B( 10-S , 13-O ) :  -0.1290 
B( 10-S , 16-O ) :  -0.0709 B( 10-S , 29-H ) :  -0.0632 B( 10-S , 30-H ) :  -0.0743 
B( 11-P , 12-S ) :   1.3293 B( 11-P , 13-O ) :   0.6471 B( 11-P , 14-C ) :  -0.2362 
B( 11-P , 16-O ) :   0.4228 B( 11-P , 17-C ) :  -0.1426 B( 12-S , 13-O ) :  -0.1275 
B( 12-S , 16-O ) :  -0.0922 B( 12-S , 17-C ) :   0.0519 B( 13-O , 14-C ) :   0.2552 
B( 13-O , 15-C ) :  -0.0897 B( 13-O , 16-O ) :  -0.2040 B( 13-O , 31-H ) :  -0.0882 
B( 13-O , 32-H ) :  -0.0939 B( 14-C , 15-C ) :   0.5087 B( 14-C , 31-H ) :   0.8575 
B( 14-C , 32-H ) :   0.8106 B( 14-C , 33-H ) :  -0.0781 B( 14-C , 34-H ) :  -0.0811 
B( 14-C , 35-H ) :  -0.0612 B( 15-C , 31-H ) :  -0.0879 B( 15-C , 32-H ) :  -0.0514 
B( 15-C , 33-H ) :   0.8369 B( 15-C , 34-H ) :   0.8116 B( 15-C , 35-H ) :   0.8239 
B( 16-O , 17-C ) :   0.3382 B( 16-O , 18-C ) :  -0.1655 B( 16-O , 36-H ) :  -0.1095 
B( 16-O , 37-H ) :  -0.0833 B( 17-C , 18-C ) :   0.3847 B( 17-C , 36-H ) :   0.8016 
B( 17-C , 37-H ) :   0.8886 B( 17-C , 38-H ) :  -0.0604 B( 17-C , 40-H ) :  -0.0844 
B( 18-C , 37-H ) :  -0.1208 B( 18-C , 38-H ) :   0.7970 B( 18-C , 39-H ) :   0.7678 
B( 18-C , 40-H ) :   0.8428 B( 24-H , 25-H ) :  -0.0561 B( 31-H , 32-H ) :  -0.0502 
B( 36-H , 37-H ) :  -0.0508 


                     *******************************
                     * LOEWDIN POPULATION ANALYSIS *
                     *******************************

----------------------
LOEWDIN ATOMIC CHARGES
----------------------
   0 C :   -0.401737
   1 C :    0.022055
   2 O :   -0.669235
   3 P :    0.366460
   4 S :   -0.108859
   5 O :   -0.663927
   6 C :    0.008610
   7 C :   -0.398859
   8 S :    0.159364
   9 C :   -0.417834
  10 S :    0.133614
  11 P :    0.381230
  12 S :   -0.092252
  13 O :   -0.651433
  14 C :    0.016781
  15 C :   -0.392530
  16 O :   -0.672944
  17 C :    0.022516
  18 C :   -0.408374
  19 H :    0.157837
  20 H :    0.167261
  21 H :    0.159716
  22 H :    0.181193
  23 H :    0.179481
  24 H :    0.176488
  25 H :    0.179805
  26 H :    0.159803
  27 H :    0.169491
  28 H :    0.157024
  29 H :    0.195560
  30 H :    0.192414
  31 H :    0.173682
  32 H :    0.182467
  33 H :    0.166248
  34 H :    0.158761
  35 H :    0.163258
  36 H :    0.179571
  37 H :    0.181145
  38 H :    0.160070
  39 H :    0.159976
  40 H :    0.166103

-------------------------------
LOEWDIN REDUCED ORBITAL CHARGES
-------------------------------
  0 C s       :     2.975522  s :     2.975522
      pz      :     1.069696  p :     3.365538
      px      :     1.148917
      py      :     1.146925
      dz2     :     0.010839  d :     0.060676
      dxz     :     0.018530
      dyz     :     0.009376
      dx2y2   :     0.009449
      dxy     :     0.012483

  1 C s       :     2.874598  s :     2.874598
      pz      :     0.949657  p :     2.980357
      px      :     0.926200
      py      :     1.104500
      dz2     :     0.028629  d :     0.122990
      dxz     :     0.035153
      dyz     :     0.017621
      dx2y2   :     0.016099
      dxy     :     0.025488

  2 O s       :     3.460617  s :     3.460617
      pz      :     1.557178  p :     4.732569
      px      :     1.543394
      py      :     1.631997
      dz2     :     0.095102  d :     0.476049
      dxz     :     0.099539
      dyz     :     0.084537
      dx2y2   :     0.086295
      dxy     :     0.110576

  3 P s       :     4.657161  s :     4.657161
      pz      :     2.740885  p :     8.396854
      px      :     2.826993
      py      :     2.828976
      dz2     :     0.251907  d :     1.579526
      dxz     :     0.295014
      dyz     :     0.360385
      dx2y2   :     0.320809
      dxy     :     0.351411

  4 S s       :     5.564866  s :     5.564866
      pz      :     3.586643  p :    10.409708
      px      :     3.444317
      py      :     3.378748
      dz2     :     0.020544  d :     0.134285
      dxz     :     0.014155
      dyz     :     0.019143
      dx2y2   :     0.024108
      dxy     :     0.056335

  5 O s       :     3.463693  s :     3.463693
      pz      :     1.438219  p :     4.725710
      px      :     1.649116
      py      :     1.638374
      dz2     :     0.112840  d :     0.474524
      dxz     :     0.115203
      dyz     :     0.120160
      dx2y2   :     0.052981
      dxy     :     0.073339

  6 C s       :     2.874919  s :     2.874919
      pz      :     0.911969  p :     2.993624
      px      :     1.023699
      py      :     1.057957
      dz2     :     0.027516  d :     0.122846
      dxz     :     0.033034
      dyz     :     0.024226
      dx2y2   :     0.010661
      dxy     :     0.027410

  7 C s       :     2.975628  s :     2.975628
      pz      :     1.080678  p :     3.362743
      px      :     1.124804
      py      :     1.157261
      dz2     :     0.009394  d :     0.060488
      dxz     :     0.018888
      dyz     :     0.009245
      dx2y2   :     0.005386
      dxy     :     0.017576

  8 S s       :     5.458244  s :     5.458244
      pz      :     3.585905  p :    10.087360
      px      :     3.244436
      py      :     3.257018
      dz2     :     0.035188  d :     0.295032
      dxz     :     0.062167
      dyz     :     0.041511
      dx2y2   :     0.081220
      dxy     :     0.074946

  9 C s       :     3.009826  s :     3.009826
      pz      :     1.120682  p :     3.324735
      px      :     1.105582
      py      :     1.098472
      dz2     :     0.020148  d :     0.083273
      dxz     :     0.019635
      dyz     :     0.008484
      dx2y2   :     0.011994
      dxy     :     0.023011

 10 S s       :     5.440656  s :     5.440656
      pz      :     3.447107  p :    10.122214
      px      :     3.142676
      py      :     3.532431
      dz2     :     0.057740  d :     0.303517
      dxz     :     0.086712
      dyz     :     0.039541
      dx2y2   :     0.042365
      dxy     :     0.077158

 11 P s       :     4.652121  s :     4.652121
      pz      :     2.888038  p :     8.388186
      px      :     2.749788
      py      :     2.750360
      dz2     :     0.326654  d :     1.578463
      dxz     :     0.341864
      dyz     :     0.342754
      dx2y2   :     0.262810
      dxy     :     0.304381

 12 S s       :     5.561837  s :     5.561837
      pz      :     3.186710  p :    10.394973
      px      :     3.600881
      py      :     3.607382
      dz2     :     0.078894  d :     0.135441
      dxz     :     0.023265
      dyz     :     0.024767
      dx2y2   :     0.004023
      dxy     :     0.004492

 13 O s       :     3.468386  s :     3.468386
      pz      :     1.408713  p :     4.721066
      px      :     1.717841
      py      :     1.594512
      dz2     :     0.132093  d :     0.461980
      dxz     :     0.089451
      dyz     :     0.132629
      dx2y2   :     0.053169
      dxy     :     0.054639

 14 C s       :     2.877132  s :     2.877132
      pz      :     0.806046  p :     2.985000
      px      :     1.077841
      py      :     1.101113
      dz2     :     0.040366  d :     0.121087
      dxz     :     0.025175
      dyz     :     0.023024
      dx2y2   :     0.011888
      dxy     :     0.020634

 15 C s       :     2.974043  s :     2.974043
      pz      :     1.123050  p :     3.357775
      px      :     1.083162
      py      :     1.151563
      dz2     :     0.017091  d :     0.060711
      dxz     :     0.006979
      dyz     :     0.007378
      dx2y2   :     0.011128
      dxy     :     0.018135

 16 O s       :     3.465039  s :     3.465039
      pz      :     1.666402  p :     4.739593
      px      :     1.489776
      py      :     1.583415
      dz2     :     0.080562  d :     0.468312
      dxz     :     0.104806
      dyz     :     0.061749
      dx2y2   :     0.115446
      dxy     :     0.105749

 17 C s       :     2.875559  s :     2.875559
      pz      :     1.070105  p :     2.979078
      px      :     0.964222
      py      :     0.944751
      dz2     :     0.020301  d :     0.122847
      dxz     :     0.026745
      dyz     :     0.019313
      dx2y2   :     0.027856
      dxy     :     0.028632

 18 C s       :     2.976384  s :     2.976384
      pz      :     1.157798  p :     3.371178
      px      :     1.151735
      py      :     1.061645
      dz2     :     0.011277  d :     0.060812
      dxz     :     0.016333
      dyz     :     0.007677
      dx2y2   :     0.009090
      dxy     :     0.016436

 19 H s       :     0.798740  s :     0.798740
      pz      :     0.010398  p :     0.043423
      px      :     0.018691
      py      :     0.014334

 20 H s       :     0.788134  s :     0.788134
      pz      :     0.008300  p :     0.044605
      px      :     0.010655
      py      :     0.025650

 21 H s       :     0.796209  s :     0.796209
      pz      :     0.016859  p :     0.044075
      px      :     0.018733
      py      :     0.008483

 22 H s       :     0.775929  s :     0.775929
      pz      :     0.010740  p :     0.042878
      px      :     0.015795
      py      :     0.016343

 23 H s       :     0.780620  s :     0.780620
      pz      :     0.006621  p :     0.039899
      px      :     0.008443
      py      :     0.024835

 24 H s       :     0.781664  s :     0.781664
      pz      :     0.008490  p :     0.041848
      px      :     0.010647
      py      :     0.022711

 25 H s       :     0.779892  s :     0.779892
      pz      :     0.006760  p :     0.040303
      px      :     0.017345
      py      :     0.016198

 26 H s       :     0.796600  s :     0.796600
      pz      :     0.008905  p :     0.043597
      px      :     0.012052
      py      :     0.022640

 27 H s       :     0.785187  s :     0.785187
      pz      :     0.009754  p :     0.045322
      px      :     0.018896
      py      :     0.016672

 28 H s       :     0.798978  s :     0.798978
      pz      :     0.020041  p :     0.043998
      px      :     0.012648
      py      :     0.011309

 29 H s       :     0.756989  s :     0.756989
      pz      :     0.008101  p :     0.047452
      px      :     0.020757
      py      :     0.018593

 30 H s       :     0.758143  s :     0.758143
      pz      :     0.028113  p :     0.049443
      px      :     0.013532
      py      :     0.007798

 31 H s       :     0.783866  s :     0.783866
      pz      :     0.008422  p :     0.042452
      px      :     0.009623
      py      :     0.024406

 32 H s       :     0.777437  s :     0.777437
      pz      :     0.004566  p :     0.040096
      px      :     0.018564
      py      :     0.016966

 33 H s       :     0.789144  s :     0.789144
      pz      :     0.008347  p :     0.044608
      px      :     0.018290
      py      :     0.017971

 34 H s       :     0.797225  s :     0.797225
      pz      :     0.026848  p :     0.044014
      px      :     0.008184
      py      :     0.008982

 35 H s       :     0.793137  s :     0.793137
      pz      :     0.011988  p :     0.043606
      px      :     0.009338
      py      :     0.022281

 36 H s       :     0.780562  s :     0.780562
      pz      :     0.015258  p :     0.039867
      px      :     0.018208
      py      :     0.006401

 37 H s       :     0.776587  s :     0.776587
      pz      :     0.025388  p :     0.042268
      px      :     0.007717
      py      :     0.009163

 38 H s       :     0.796324  s :     0.796324
      pz      :     0.023690  p :     0.043606
      px      :     0.010947
      py      :     0.008968

 39 H s       :     0.795861  s :     0.795861
      pz      :     0.010016  p :     0.044162
      px      :     0.017126
      py      :     0.017020

 40 H s       :     0.789015  s :     0.789015
      pz      :     0.017275  p :     0.044882
      px      :     0.019779
      py      :     0.007828


---------------------------------
LOEWDIN BOND ORDERS (THRESH 0.050000)
---------------------------------
B(  0-C ,  1-C ) :   1.0939 B(  0-C ,  2-O ) :   0.1557 B(  0-C , 19-H ) :   0.9229 
B(  0-C , 20-H ) :   0.9143 B(  0-C , 21-H ) :   0.9159 B(  1-C ,  2-O ) :   1.2969 
B(  1-C ,  3-P ) :   0.0985 B(  1-C ,  4-S ) :   0.0516 B(  1-C , 21-H ) :   0.0512 
B(  1-C , 22-H ) :   0.8256 B(  1-C , 23-H ) :   0.8288 B(  2-O ,  3-P ) :   1.5463 
B(  2-O ,  4-S ) :   0.1811 B(  2-O ,  5-O ) :   0.2536 B(  2-O ,  8-S ) :   0.1517 
B(  2-O , 22-H ) :   0.0963 B(  2-O , 23-H ) :   0.0995 B(  3-P ,  4-S ) :   2.0871 
B(  3-P ,  5-O ) :   1.5427 B(  3-P ,  6-C ) :   0.1010 B(  3-P ,  8-S ) :   1.2238 
B(  3-P ,  9-C ) :   0.0847 B(  4-S ,  5-O ) :   0.1724 B(  4-S ,  8-S ) :   0.1410 
B(  5-O ,  6-C ) :   1.2880 B(  5-O ,  7-C ) :   0.1605 B(  5-O ,  8-S ) :   0.1651 
B(  5-O , 24-H ) :   0.0956 B(  5-O , 25-H ) :   0.0979 B(  6-C ,  7-C ) :   1.0951 
B(  6-C , 24-H ) :   0.8247 B(  6-C , 25-H ) :   0.8286 B(  6-C , 28-H ) :   0.0513 
B(  7-C , 26-H ) :   0.9214 B(  7-C , 27-H ) :   0.9142 B(  7-C , 28-H ) :   0.9173 
B(  8-S ,  9-C ) :   1.2804 B(  8-S , 10-S ) :   0.2093 B(  8-S , 29-H ) :   0.0549 
B(  8-S , 30-H ) :   0.0558 B(  9-C , 10-S ) :   1.3129 B(  9-C , 11-P ) :   0.0926 
B(  9-C , 12-S ) :   0.0550 B(  9-C , 29-H ) :   0.8367 B(  9-C , 30-H ) :   0.8354 
B( 10-S , 11-P ) :   1.1892 B( 10-S , 12-S ) :   0.1500 B( 10-S , 13-O ) :   0.1643 
B( 10-S , 16-O ) :   0.1413 B( 10-S , 29-H ) :   0.0567 B( 10-S , 30-H ) :   0.0629 
B( 11-P , 12-S ) :   2.0545 B( 11-P , 13-O ) :   1.5826 B( 11-P , 14-C ) :   0.0952 
B( 11-P , 16-O ) :   1.5592 B( 11-P , 17-C ) :   0.0939 B( 12-S , 13-O ) :   0.1766 
B( 12-S , 16-O ) :   0.1829 B( 13-O , 14-C ) :   1.2774 B( 13-O , 15-C ) :   0.1568 
B( 13-O , 16-O ) :   0.2138 B( 13-O , 31-H ) :   0.0945 B( 13-O , 32-H ) :   0.0979 
B( 14-C , 15-C ) :   1.0966 B( 14-C , 31-H ) :   0.8258 B( 14-C , 32-H ) :   0.8302 
B( 14-C , 34-H ) :   0.0514 B( 15-C , 33-H ) :   0.9151 B( 15-C , 34-H ) :   0.9159 
B( 15-C , 35-H ) :   0.9200 B( 16-O , 17-C ) :   1.2985 B( 16-O , 18-C ) :   0.1536 
B( 16-O , 36-H ) :   0.1005 B( 16-O , 37-H ) :   0.0971 B( 17-C , 18-C ) :   1.0952 
B( 17-C , 36-H ) :   0.8283 B( 17-C , 37-H ) :   0.8279 B( 17-C , 39-H ) :   0.0518 
B( 18-C , 38-H ) :   0.9204 B( 18-C , 39-H ) :   0.9141 B( 18-C , 40-H ) :   0.9144 


------------------------------------------
LOEWDIN REDUCED ORBITAL POPULATIONS PER MO
-------------------------------------------
THRESHOLD FOR PRINTING IS 0.1%%
                      0         1         2         3         4         5   
                 -88.57870 -88.57372 -88.52595 -88.52254 -76.91928 -76.91447
                   2.00000   2.00000   2.00000   2.00000   2.00000   2.00000
                  --------  --------  --------  --------  --------  --------
 3 P  s               0.0       0.0       0.0       0.0       0.0     100.0
 4 S  s               0.0       0.0       0.0     100.0       0.0       0.0
 8 S  s               0.0     100.0       0.0       0.0       0.0       0.0
10 S  s             100.0       0.0       0.0       0.0       0.0       0.0
11 P  s               0.0       0.0       0.0       0.0     100.0       0.0
12 S  s               0.0       0.0     100.0       0.0       0.0       0.0

                      6         7         8         9        10        11   
                 -19.00074 -18.99451 -18.99386 -18.99224 -10.10719 -10.10675
                   2.00000   2.00000   2.00000   2.00000   2.00000   2.00000
                  --------  --------  --------  --------  --------  --------
 2 O  s               0.0       0.0      99.9       0.0       0.0       0.0
 5 O  s               0.0       0.0       0.0      99.9       0.0       0.0
 9 C  s               0.0       0.0       0.0       0.0      99.6       0.0
13 O  s               0.0      99.9       0.0       0.0       0.0       0.0
13 O  pz              0.0       0.0       0.0       0.0       0.0       0.1
13 O  dz2             0.0       0.0       0.0       0.0       0.0       0.3
14 C  s               0.0       0.0       0.0       0.0       0.0      99.4
16 O  s              99.9       0.0       0.0       0.0       0.0       0.0

                     12        13        14        15        16        17   
                 -10.10571 -10.10098 -10.09916 -10.03466 -10.03395 -10.02829
                   2.00000   2.00000   2.00000   2.00000   2.00000   2.00000
                  --------  --------  --------  --------  --------  --------
 0 C  s               0.0       0.0       0.0       0.0       0.0      99.7
 1 C  s               0.0       0.0      99.4       0.0       0.0       0.0
 2 O  dxz             0.0       0.0       0.2       0.0       0.0       0.0
 5 O  dxz             0.0       0.1       0.0       0.0       0.0       0.0
 6 C  s               0.0      99.4       0.0       0.0       0.0       0.0
15 C  s               0.0       0.0       0.0      99.7       0.0       0.0
16 O  dxy             0.1       0.0       0.0       0.0       0.0       0.0
17 C  s              99.4       0.0       0.0       0.0       0.0       0.0
[...]
36 H  py              0.1       0.0       0.1       0.0       0.0       0.0
37 H  s               0.2       0.1       0.2       0.0       0.0       0.0
37 H  pz              0.2       0.1       0.2       0.0       0.0       0.0
37 H  py              0.3       0.1       0.3       0.0       0.0       0.0

                    522       523       524       525       526       527   
                  18.87206  18.90417  19.02198  19.21167  21.94676  21.96010
                   0.00000   0.00000   0.00000   0.00000   0.00000   0.00000
                  --------  --------  --------  --------  --------  --------
 0 C  s               0.0       0.0       0.0       0.0       2.5       0.0
 1 C  s               0.0       0.0       0.0       0.0       0.1       0.8
 3 P  s               0.2       0.0       0.1       0.1       0.0       0.0
 3 P  px              0.1       0.0       0.0       0.0       0.0       0.0
 3 P  py              0.2       0.0       0.0       0.0       0.0       0.0
 4 S  s              92.4       1.6       3.8       1.2       0.0       0.0
 6 C  s               0.0       0.0       0.0       0.0       0.0       2.6
 7 C  s               0.0       0.0       0.0       0.0       5.4      87.6
 8 S  s               0.0       0.8      31.5      66.5       0.0       0.0
 9 C  s               0.0       0.0       0.0       0.8       1.9       1.5
10 S  s               5.7       1.3      63.6      28.5       0.0       0.0
11 P  s               0.0       0.1       0.0       0.1       0.0       0.0
11 P  pz              0.0       0.3       0.0       0.0       0.0       0.0
12 S  s               1.0      95.3       0.4       2.2       0.0       0.0
12 S  pz              0.0       0.2       0.0       0.0       0.0       0.0
14 C  s               0.0       0.1       0.0       0.0       1.7       0.2
15 C  s               0.0       0.0       0.0       0.0      87.1       6.6
17 C  s               0.0       0.0       0.0       0.0       0.7       0.0
18 C  s               0.0       0.0       0.0       0.0       0.3       0.3

                    528       529       530       531       532       533   
                  21.97547  21.98195  22.03918  22.05047  22.05200  22.06478
                   0.00000   0.00000   0.00000   0.00000   0.00000   0.00000
                  --------  --------  --------  --------  --------  --------
 0 C  s              81.1       0.5      10.4       0.9       2.7       1.2
 1 C  s               0.6       0.0       0.1      43.3      17.3       7.1
 6 C  s               1.1       0.0       8.9       9.5      17.6       0.4
 7 C  s               2.0       0.2       2.8       0.3       1.4       0.0
 9 C  s              11.5       0.8      33.1      30.4       5.8       9.1
14 C  s               0.1       0.0      22.1       2.6       0.0      69.5
15 C  s               2.9       0.6       0.9       0.0       0.6       0.3
17 C  s               0.0       1.0      21.1      11.5      53.0      11.9
18 C  s               0.2      96.6       0.0       1.0       1.2       0.0

                    534       535       536       537       538   
                  22.08797  43.79500  43.85236  43.86986  43.90723
                   0.00000   0.00000   0.00000   0.00000   0.00000
                  --------  --------  --------  --------  --------
 0 C  s               0.4       0.0       0.0       0.0       0.0
 1 C  s              30.3       0.0       0.0       0.0       0.0
 2 O  s               0.0       0.5      10.3      27.2      61.9
 5 O  s               0.0       0.0      35.0      29.1      35.7
 6 C  s              59.5       0.0       0.0       0.0       0.0
 9 C  s               5.3       0.0       0.0       0.0       0.0
13 O  s               0.0       1.1      53.8      43.4       1.7
14 C  s               3.3       0.0       0.0       0.0       0.0
15 C  s               0.5       0.0       0.0       0.0       0.0
16 O  s               0.0      98.3       0.8       0.2       0.7
17 C  s               0.3       0.0       0.0       0.0       0.0


                      *****************************
                      * MAYER POPULATION ANALYSIS *
                      *****************************

  NA   - Mulliken gross atomic population
  ZA   - Total nuclear charge
  QA   - Mulliken gross atomic charge
  VA   - Mayer's total valence
  BVA  - Mayer's bonded valence
  FA   - Mayer's free valence

  ATOM       NA         ZA         QA         VA         BVA        FA
  0 C      6.4305     6.0000    -0.4305     3.7552     3.7552     0.0000
  1 C      6.1517     6.0000    -0.1517     3.7033     3.7033     0.0000
  2 O      8.3102     8.0000    -0.3102     1.8310     1.8310    -0.0000
  3 P     14.3218    15.0000     0.6782     5.1766     5.1766     0.0000
  4 S     16.4498    16.0000    -0.4498     2.0661     2.0661    -0.0000
  5 O      8.3098     8.0000    -0.3098     1.7893     1.7893     0.0000
  6 C      6.1202     6.0000    -0.1202     3.6650     3.6650     0.0000
  7 C      6.4630     6.0000    -0.4630     3.8330     3.8330     0.0000
  8 S     16.1367    16.0000    -0.1367     2.1736     2.1736     0.0000
  9 C      6.2261     6.0000    -0.2261     3.7215     3.7215    -0.0000
 10 S     16.1605    16.0000    -0.1605     2.1717     2.1717    -0.0000
 11 P     14.3550    15.0000     0.6450     5.1322     5.1322    -0.0000
 12 S     16.4314    16.0000    -0.4314     2.0813     2.0813    -0.0000
 13 O      8.2586     8.0000    -0.2586     1.7802     1.7802     0.0000
 14 C      6.1101     6.0000    -0.1101     3.6244     3.6244     0.0000
 15 C      6.4672     6.0000    -0.4672     3.8321     3.8321    -0.0000
 16 O      8.2911     8.0000    -0.2911     1.7970     1.7970     0.0000
 17 C      6.1663     6.0000    -0.1663     3.7292     3.7292     0.0000
 18 C      6.4420     6.0000    -0.4420     3.7468     3.7468     0.0000
 19 H      0.8506     1.0000     0.1494     0.9623     0.9623    -0.0000
 20 H      0.8238     1.0000     0.1762     0.9588     0.9588    -0.0000
 21 H      0.8523     1.0000     0.1477     0.9643     0.9643     0.0000
 22 H      0.8268     1.0000     0.1732     0.9545     0.9545     0.0000
 23 H      0.8508     1.0000     0.1492     0.9503     0.9503     0.0000
 24 H      0.8458     1.0000     0.1542     0.9582     0.9582    -0.0000
 25 H      0.8408     1.0000     0.1592     0.9477     0.9477     0.0000
 26 H      0.8465     1.0000     0.1535     0.9622     0.9622     0.0000
 27 H      0.8199     1.0000     0.1801     0.9569     0.9569     0.0000
 28 H      0.8577     1.0000     0.1423     0.9641     0.9641     0.0000
 29 H      0.7964     1.0000     0.2036     0.9515     0.9515    -0.0000
 30 H      0.7787     1.0000     0.2213     0.9457     0.9457    -0.0000
 31 H      0.8462     1.0000     0.1538     0.9621     0.9621     0.0000
 32 H      0.8387     1.0000     0.1613     0.9490     0.9490     0.0000
 33 H      0.8349     1.0000     0.1651     0.9613     0.9613    -0.0000
 34 H      0.8540     1.0000     0.1460     0.9632     0.9632    -0.0000
 35 H      0.8395     1.0000     0.1605     0.9607     0.9607    -0.0000
 36 H      0.8513     1.0000     0.1487     0.9496     0.9496     0.0000
 37 H      0.8242     1.0000     0.1758     0.9501     0.9501     0.0000
 38 H      0.8466     1.0000     0.1534     0.9605     0.9605     0.0000
 39 H      0.8509     1.0000     0.1491     0.9637     0.9637    -0.0000
 40 H      0.8215     1.0000     0.1785     0.9573     0.9573     0.0000

  Mayer bond orders larger than 0.100000
B(  0-C ,  1-C ) :   0.9293 B(  0-C , 19-H ) :   0.9689 B(  0-C , 20-H ) :   0.9605 
B(  0-C , 21-H ) :   0.9612 B(  1-C ,  2-O ) :   0.8086 B(  1-C , 22-H ) :   0.9645 
B(  1-C , 23-H ) :   0.9599 B(  2-O ,  3-P ) :   1.0952 B(  3-P ,  4-S ) :   1.8157 
B(  3-P ,  5-O ) :   1.0882 B(  3-P ,  8-S ) :   1.0679 B(  5-O ,  6-C ) :   0.7519 
B(  6-C ,  7-C ) :   0.9539 B(  6-C , 24-H ) :   0.9569 B(  6-C , 25-H ) :   0.9584 
B(  7-C , 26-H ) :   0.9780 B(  7-C , 27-H ) :   0.9572 B(  7-C , 28-H ) :   0.9654 
B(  8-S ,  9-C ) :   0.8930 B(  9-C , 10-S ) :   0.9104 B(  9-C , 29-H ) :   0.9142 
B(  9-C , 30-H ) :   0.9109 B( 10-S , 11-P ) :   1.0068 B( 11-P , 12-S ) :   1.8425 
B( 11-P , 13-O ) :   1.1411 B( 11-P , 16-O ) :   1.0361 B( 13-O , 14-C ) :   0.7434 
B( 14-C , 15-C ) :   0.9433 B( 14-C , 31-H ) :   0.9661 B( 14-C , 32-H ) :   0.9587 
B( 15-C , 33-H ) :   0.9682 B( 15-C , 34-H ) :   0.9646 B( 15-C , 35-H ) :   0.9712 
B( 16-O , 17-C ) :   0.8174 B( 17-C , 18-C ) :   0.9161 B( 17-C , 36-H ) :   0.9610 
B( 17-C , 37-H ) :   0.9685 B( 18-C , 38-H ) :   0.9667 B( 18-C , 39-H ) :   0.9559 
B( 18-C , 40-H ) :   0.9640 

-------
TIMINGS
-------

Total SCF time: 0 days 0 hours 1 min 12 sec 

Total time                  ....      72.779 sec
Sum of individual times     ....      72.210 sec  ( 99.2%)

SCF preparation             ....       0.368 sec  (  0.5%)
Fock matrix formation       ....      68.732 sec  ( 94.4%)
  Startup                   ....       0.152 sec  (  0.2% of F)
  Split-RI-J                ....      23.302 sec  ( 33.9% of F)
  XC integration            ....      43.805 sec  ( 63.7% of F)
    XC Preparation          ....       0.000 sec  (  0.0% of XC)
    Basis function eval.    ....       6.945 sec  ( 15.9% of XC)
    Density eval.           ....      16.066 sec  ( 36.7% of XC)
    XC-Functional eval.     ....       3.239 sec  (  7.4% of XC)
    XC-Potential eval.      ....      16.320 sec  ( 37.3% of XC)
Diagonalization             ....       0.000 sec  (  0.0%)
Density matrix formation    ....       0.851 sec  (  1.2%)
Total Energy calculation    ....       0.054 sec  (  0.1%)
Population analysis         ....       0.443 sec  (  0.6%)
Orbital Transformation      ....       0.255 sec  (  0.3%)
Orbital Orthonormalization  ....       0.000 sec  (  0.0%)
DIIS solution               ....       1.284 sec  (  1.8%)
  MO trafo                  ....       0.000 sec  (  0.0 % of DIIS)
  Orb grad                  ....       0.000 sec  (  0.0 % of DIIS)
  Energy W gradient         ....       0.000 sec  (  0.0 % of DIIS)
  DIIS error                ....       0.111 sec  (  8.6 % of DIIS)
  DIIS work                 ....       1.035 sec  ( 80.6 % of DIIS)
  Form Q                    ....       0.000 sec  (  0.0 % of DIIS)
  Form QpQm                 ....       0.000 sec  (  0.0 % of DIIS)
  Exp/Cayley                ....       0.000 sec  (  0.0 % of DIIS)
  Orb update                ....       0.000 sec  (  0.0 % of DIIS)
  Wake-sleep                ....       0.025 sec  (  2.0 % of DIIS)
SOSCF solution              ....       0.224 sec  (  0.3%)
  MO trafo                  ....       0.177 sec  ( 79.2 % of SOSCF)
  Orb grad                  ....       0.001 sec  (  0.4 % of SOSCF)
  Rot update                ....       0.000 sec  (  0.1 % of SOSCF)
  Step                      ....       0.045 sec  ( 20.2 % of SOSCF)
Finished LeanSCF after  72.9 sec

Maximum memory used throughout the entire LEANSCF-calculation: 72.2 MB


-------------------------------------------------------------------------------
                          DFT DISPERSION CORRECTION                            
                                                                               
                                DFTD4 V3.4.0                                   
-------------------------------------------------------------------------------
The R2SCAN3C composite method is recognized
Using three-body term ABC
Active option DFTDOPT                   ...         5   

-------------------------   ----------------
Dispersion correction           -0.021164338
-------------------------   ----------------

------------------   -----------------
gCP correction             0.046462718
------------------   -----------------

-------------------------   --------------------
FINAL SINGLE POINT ENERGY     -2932.462861980864
-------------------------   --------------------


------------------------------------------------------------------------------
                              ORCA PROPERTY CALCULATIONS
------------------------------------------------------------------------------

GBWName                                 ... sp_gas.gbw
Number of atoms                         ...     41
Number of basis functions               ...    539
Max core memory                         ...   1024 MB

Electric properties:
Dipole moment                           ... YES
Quadrupole moment                       ...  NO
Static polarizability (Dipole/Dipole)   ...  NO
Static polarizability (Dipole/Quad.)    ...  NO
Static polarizability (Quad./Quad.)     ...  NO
Static polarizability (Velocity)        ...  NO

Atomic electric properties:
Dipole moment                           ...  NO
Quadrupole moment                       ...  NO
Static polarizability                   ...  NO

Choice of electric origin               ... Center of mass
Position of electric origin             ...    -0.000001    -0.000002     0.000002

General magnetic properties:
Magnetizability                         ...  NO

EPR properties:
g-Tensor (aka g-matrix)                 ...  NO
Zero-Field splitting spin-orbit         ...  NO
Zero-field splitting spin-spin          ...  NO
Hyperfine couplings                     ...  NO (   0 nuclei)
Quadrupole couplings                    ...  NO (   0 nuclei)
Contact density                         ...  NO (   0 nuclei)

NMR properties:
Chemical shifts                         ...  NO (   0 nuclei)
Spin-rotation constants                 ...  NO (   0 nuclei)
Spin-spin couplings                     ...  NO (   0 nuclei,    0 pairs)

Choice of magnetic origin               ... GIAO
Position of magnetic origin             ...     0.000000     0.000000     0.000000

Properties with geometric perturbations:
SCF Hessian                             ...  NO
IR spectrum                             ...  NO
VCD spectrum                            ...  NO
X-ray spectroscopy properties:
SCF XES/XAS/RIXS spectra                ...  NO


-------------
DIPOLE MOMENT
-------------

Method             : SCF
Type of density    : Electron Density
Multiplicity       :   1
Irrep              :   0
Energy             : -2932.4881603605299460 Eh
Relativity type    : 
Basis              : AO
                                X                 Y                 Z
Electronic contribution:      4.561095539       5.215331250      -9.510167932
Nuclear contribution   :     -5.401927785      -6.476691220      10.499140350
                        -----------------------------------------
Total Dipole Moment    :     -0.840832247      -1.261359970       0.988972418
                        -----------------------------------------
Magnitude (a.u.)       :      1.809998421
Magnitude (Debye)      :      4.600650367



--------------------
Rotational spectrum 
--------------------
 
Rotational constants in cm-1:             0.012345             0.004676             0.004110 
Rotational constants in MHz :           370.105861           140.173765           123.211046 

Dipole components along the rotational axes: 
x,y,z [a.u.] :    -0.889737    -0.556213    -1.474819 
x,y,z [Debye]:    -2.261532    -1.413781    -3.748691 

 

Dipole moment calculation done in   0.0 sec 

Maximum memory used throughout the entire PROP-calculation: 50.7 MB

--------------------------------
SUGGESTED CITATIONS FOR THIS RUN
--------------------------------

Below you find a list of papers that are relevant to this ORCA run
We neither can nor want to force you to cite these papers, but we appreciate if you do
You receive ORCA, which is the product of decades of hard work by many enthusiastic individuals, for free
The only thing we kindly ask in return is that you cite our papers,
We deeply appreciate it, if you show your appreciation for ORCA by not just citing the generic ORCA reference.

Please note that relegating all ORCA citations to the supporting information does *not* help us.
SI sections are not indexed - citations you put there will not count into any citation statistics
But we need these citations in order to attract the funding resources that allow us to do what we are doing

Therefore, if you are a happy ORCA user, please consider citing a few of the papers listed below in the main body of your paper

In addition to the list printed below, the program has created the file sp_gas.bibtex that contains the list in bibtex format
You can import this file easily into all common literature databanks and citation aid programs


List of essential papers. We consider these as the minimum necessary citations

  1. Neese,F.
     Software update: the ORCA program system, version 5.0
     WIRES Comput. Molec. Sci., 2022 12(1)e1606
     doi.org/10.1002/wcms.1606
  2. Grimme,S.; Hansen,A.; Ehlert,S.; Mewes,J.
     r2SCAN-3c: A 'Swiss army knife' composite electronic-structure method
     J. Chem. Phys., 2021 154 064103
     doi.org/10.1063/5.0040021

List of papers to cite with high priority. The work reported in these papers was absolutely
necessary for this run to complete.
Our perspective: the developers of density functionals and basis sets usually get cited in chemistry papers
Good! But without the algorithms to do something with them, the functionals or basis sets would not do anything.
Hence, in our opinion, the algorithm design and method developments papers are equally worthy of getting cited

  1. Neese,F.
     An improvement of the resolution of the identity approximation for the formation of the Coulomb matrix
     J. Comp. Chem., 2003 24(14)1740-1747
     doi.org/10.1002/jcc.10318
  2. Neese,F.
     The SHARK Integral Generation and Digestion System
     J. Comp. Chem., 2022  1-16
     doi.org/10.1002/jcc.26942
  3. Lehtola,S.; Steigemann,C.; Oliveira,M.; Marques,M.
     Recent developments in Libxc - A comprehensive library of functionals for density functional theory
     Software X, 2018 7 
     doi.org/10.1016/j.softx.2017.11.002
  4. Caldeweyher,E.; Bannwarth,C.; Grimme,S.
     Extension of the D3 dispersion coefficient model
     J. Chem. Phys., 2017 147 034112-XXXX
     doi.org/10.1063/1.4993215
  5. Caldeweyher,E.; Ehlert,S.; Hansen,A.; Neugebauer,H.; Spicher,S.; Bannwarth,C.; Grimme,S.
     A generally applicable atomic-charge dependent London dispersion correction
     J. Chem. Phys., 2019 150 154122-XXXX
     doi.org/10.1063/1.5090222
  6. Caldeweyher,E.; Mewes,J.; Ehlert,S.; Grimme,S.
     Extension and evaluation of the D4 London-dispersion model for periodic systems
     Phys. Chem. Chem. Phys., 2020 22(16)8499-8512
     doi.org/10.1039/D0CP00502A

List of suggested additional citations. These are papers that are important in the 'surrounding' of 
of this run, or papers that preceded the highly important papers. If you like your results we are grateful for a citation.

  1. Neese,F.
     The ORCA program system
     WIRES Comput. Molec. Sci., 2012 2(1)73-78
     doi.org/10.1002/wcms.81
  2. Neese,F.
     Software update: the ORCA program system, version 4.0
     WIRES Comput. Molec. Sci., 2018 8(1)1-6
     doi.org/10.1002/wcms.1327
  3. Neese,F.; Wennmohs,F.; Becker,U.; Riplinger,C.
     The ORCA quantum chemistry program package
     J. Chem. Phys., 2020 152 Art. No. L224108
     doi.org/10.1063/5.0004608

List of optional additional citations

  1. Neese,F.
     Approximate second-order SCF convergence for spin unrestricted wavefunctions
     Chem. Phys. Lett., 2000 325(1-3)93-98
     doi.org/10.1016/s0009-2614(00)00662-x

Timings for individual modules:

Sum of individual times          ...       76.643 sec (=   1.277 min)
Startup calculation              ...        2.958 sec (=   0.049 min)   3.9 %
SCF iterations                   ...       73.530 sec (=   1.226 min)  95.9 %
Property calculations            ...        0.154 sec (=   0.003 min)   0.2 %
                             ****ORCA TERMINATED NORMALLY****
TOTAL RUN TIME: 0 days 0 hours 1 minutes 17 seconds 396 msec
