      -----------------------------------------------------------      
     |                   =====================                   |     
     |                           x T B                           |     
     |                   =====================                   |     
     |                         S. Grimme                         |     
     |          Mulliken Center for Theoretical Chemistry        |     
     |                    University of Bonn                     |     
      -----------------------------------------------------------      

   * xtb version 6.7.1 (edcfbbe) compiled by 'albert@albert-system' on 2024-07-22

   xtb is free software: you can redistribute it and/or modify it under
   the terms of the GNU Lesser General Public License as published by
   the Free Software Foundation, either version 3 of the License, or
   (at your option) any later version.
   
   xtb is distributed in the hope that it will be useful,
   but WITHOUT ANY WARRANTY; without even the implied warranty of
   MERCHANTABILITY or FITNESS FOR A PARTICULAR PURPOSE.  See the
   GNU Lesser General Public License for more details.
   
   Cite this work as:
   * C. Bannwarth, E. Caldeweyher, S. Ehlert, A. Hansen, P. Pracht,
     J. Seibert, S. Spicher, S. Grimme, WIREs Comput. Mol. Sci., 2020, 11,
     e01493. DOI: 10.1002/wcms.1493
   
   for GFN2-xTB:
   * C. Bannwarth, S. Ehlert and S. Grimme., J. Chem. Theory Comput., 2019,
     15, 1652-1671. DOI: 10.1021/acs.jctc.8b01176
   for GFN1-xTB:
   * S. Grimme, C. Bannwarth, P. Shushkov, J. Chem. Theory Comput., 2017,
     13, 1989-2009. DOI: 10.1021/acs.jctc.7b00118
   for GFN0-xTB:
   * P. Pracht, E. Caldeweyher, S. Ehlert, S. Grimme, ChemRxiv, 2019, preprint.
     DOI: 10.26434/chemrxiv.8326202.v1
   for GFN-FF:
   * S. Spicher and S. Grimme, Angew. Chem. Int. Ed., 2020, 59, 15665-15673.
     DOI: 10.1002/anie.202004239
   
   for ALPB and GBSA implicit solvation:
   * S. Ehlert, M. Stahn, S. Spicher, S. Grimme, J. Chem. Theory Comput.,
     2021, 17, 4250-4261. DOI: 10.1021/acs.jctc.1c00471
   
   for ddCOSMO and CPCM-X implicit solvation:
   * M. Stahn, S. Ehlert, S. Grimme, J. Phys. Chem. A,
     2023, XX, XXXX-XXXX. DOI: 10.1021/acs.jpca.3c04382
   
   for DFT-D4:
   * E. Caldeweyher, C. Bannwarth and S. Grimme, J. Chem. Phys., 2017,
     147, 034112. DOI: 10.1063/1.4993215
   * E. Caldeweyher, S. Ehlert, A. Hansen, H. Neugebauer, S. Spicher,
     C. Bannwarth and S. Grimme, J. Chem. Phys., 2019, 150, 154122.
     DOI: 10.1063/1.5090222
   * E. Caldeweyher, J.-M. Mewes, S. Ehlert and S. Grimme, Phys. Chem. Chem. Phys.
     2020, 22, 8499-8512. DOI: 10.1039/D0CP00502A
   
   for sTDA-xTB:
   * S. Grimme and C. Bannwarth, J. Chem. Phys., 2016, 145, 054103.
     DOI: 10.1063/1.4959605
   
   in the mass-spec context:
   * V. Asgeirsson, C. Bauer and S. Grimme, Chem. Sci., 2017, 8, 4879.
     DOI: 10.1039/c7sc00601b
   * J. Koopman and S. Grimme, ACS Omega 2019, 4, 12, 15120-15133.
     DOI: 10.1021/acsomega.9b02011
   
   for metadynamics refer to:
   * S. Grimme, J. Chem. Theory Comput., 2019, 155, 2847-2862
     DOI: 10.1021/acs.jctc.9b00143
   
   for SPH calculations refer to:
   * S. Spicher and S. Grimme, J. Chem. Theory Comput., 2021, 17, 1701-1714
     DOI: 10.1021/acs.jctc.0c01306
   
   for ONIOM refer to:
   * C. Plett, A. Katbashev, S. Ehlert, S. Grimme, M. Bursch,
     Phys. Chem. Chem. Phys., 2023, 25, 17860-17868. DOI: 10.1039/D3CP02178E
   
   for DIPRO refer to:
   * J. Kohn, N. Gildemeister, S. Grimme, D. Fazzi, A. Hansen,
     J. Chem. Phys., 2023, just accepted.
   
   for PTB refer to:
   * S. Grimme, M. Mueller, A. Hansen, J. Chem. Phys., 2023, 158, 124111.
     DOI: 10.1063/5.0137838
   
   with help from (in alphabetical order)
   P. Atkinson, C. Bannwarth, F. Bohle, G. Brandenburg, E. Caldeweyher
   M. Checinski, S. Dohm, S. Ehlert, S. Ehrlich, I. Gerasimov, C. Hölzer
   A. Katbashev, J. Kohn, J. Koopman, C. Lavigne, S. Lehtola, F. März, M. Müller,
   F. Musil, H. Neugebauer, J. Pisarek, C. Plett, P. Pracht, F. Pultar,
   J. Seibert, P. Shushkov, S. Spicher, M. Stahn, M. Steiner, T. Strunk,
   J. Stückrath, T. Rose, and J. Unsleber
   
 * started run on 2025/04/09 at 07:31:36.652     
   ID    Z sym.   atoms
    1    6 C      1, 2, 4, 6, 7, 9, 12, 13, 18, 20
    2    8 O      3, 5, 10, 11, 17, 19
    3    1 H      8, 21-38
    4   16 S      14, 16
    5   15 P      15

           -------------------------------------------------
          |                Calculation Setup                |
           -------------------------------------------------

          program call               : /software/projects/pawsey0265/mwang1/xtb/bin/xtb gas.coord --gfn2 --sp --chrg 0 --norestart --parallel 1
          hostname                   : nid002043
          coordinate file            : gas.coord
          omp threads                :                     1


           -------------------------------------------------
          |                 G F N 2 - x T B                 |
           -------------------------------------------------

        Reference                      10.1021/acs.jctc.8b01176
      * Hamiltonian:
        H0-scaling (s, p, d)           1.850000    2.230000    2.230000
        zeta-weighting                 0.500000
      * Dispersion:
        s8                             2.700000
        a1                             0.520000
        a2                             5.000000
        s9                             5.000000
      * Repulsion:
        kExp                           1.500000    1.000000
        rExp                           1.000000
      * Coulomb:
        alpha                          2.000000
        third order                    shell-resolved
        anisotropic                    true
        a3                             3.000000
        a5                             4.000000
        cn-shift                       1.200000
        cn-exp                         4.000000
        max-rad                        5.000000


          ...................................................
          :                      SETUP                      :
          :.................................................:
          :  # basis functions                 113          :
          :  # atomic orbitals                 110          :
          :  # shells                           60          :
          :  # electrons                       112          :
          :  max. iterations                   250          :
          :  Hamiltonian                  GFN2-xTB          :
          :  restarted?                      false          :
          :  GBSA solvation                  false          :
          :  PC potential                    false          :
          :  electronic temp.          300.0000000     K    :
          :  accuracy                    1.0000000          :
          :  -> integral cutoff          0.2500000E+02      :
          :  -> integral neglect         0.1000000E-07      :
          :  -> SCF convergence          0.1000000E-05 Eh   :
          :  -> wf. convergence          0.1000000E-03 e    :
          :  Broyden damping             0.4000000          :
          :  net charge                          0          :
          :  unpaired electrons                  0          :
          ...................................................

 iter      E             dE          RMSdq      gap      omega  full diag
   1    -65.0406740 -0.650407E+02  0.578E+00    4.34       0.0  T
   2    -65.2008555 -0.160181E+00  0.326E+00    2.87       1.0  T
   3    -65.2115354 -0.106799E-01  0.142E+00    2.95       1.0  T
   4    -65.2188657 -0.733028E-02  0.479E-01    2.60       1.0  T
   5    -65.2204306 -0.156490E-02  0.231E-01    2.74       1.0  T
   6    -65.2205924 -0.161870E-03  0.951E-02    2.73       1.0  T
   7    -65.2206059 -0.134267E-04  0.351E-02    2.73       1.0  T
   8    -65.2206116 -0.571936E-05  0.184E-02    2.73       1.0  T
   9    -65.2206127 -0.116683E-05  0.343E-03    2.73       4.7  T
  10    -65.2206128 -0.989957E-07  0.192E-03    2.73       8.4  T
  11    -65.2206128 -0.394479E-08  0.518E-04    2.73      31.3  T
  12    -65.2206128 -0.984656E-09  0.180E-04    2.73      90.2  T

   *** convergence criteria satisfied after 12 iterations ***

         #    Occupation            Energy/Eh            Energy/eV
      -------------------------------------------------------------
         1        2.0000           -0.7680352             -20.8993
       ...           ...                  ...                  ...
        50        2.0000           -0.4513036             -12.2806
        51        2.0000           -0.4389583             -11.9447
        52        2.0000           -0.4330060             -11.7827
        53        2.0000           -0.4267155             -11.6115
        54        2.0000           -0.3979444             -10.8286
        55        2.0000           -0.3626906              -9.8693
        56        2.0000           -0.3579878              -9.7413 (HOMO)
        57                         -0.2575497              -7.0083 (LUMO)
        58                         -0.2456898              -6.6856
        59                         -0.2356467              -6.4123
        60                         -0.1869432              -5.0870
        61                         -0.1543882              -4.2011
       ...                                ...                  ...
       110                          1.3318878              36.2425
      -------------------------------------------------------------
                  HL-Gap            0.1004380 Eh            2.7331 eV
             Fermi-level           -0.3077688 Eh           -8.3748 eV

 SCC (total)                   0 d,  0 h,  0 min,  0.124 sec
 SCC setup                      ...        0 min,  0.000 sec (  0.328%)
 Dispersion                     ...        0 min,  0.000 sec (  0.295%)
 classical contributions        ...        0 min,  0.000 sec (  0.068%)
 integral evaluation            ...        0 min,  0.067 sec ( 54.204%)
 iterations                     ...        0 min,  0.030 sec ( 24.587%)
 molecular gradient             ...        0 min,  0.025 sec ( 20.193%)
 printout                       ...        0 min,  0.000 sec (  0.301%)

         :::::::::::::::::::::::::::::::::::::::::::::::::::::
         ::                     SUMMARY                     ::
         :::::::::::::::::::::::::::::::::::::::::::::::::::::
         :: total energy             -64.648161111458 Eh    ::
         :: gradient norm              0.047723189892 Eh/a0 ::
         :: HOMO-LUMO gap              2.733057630633 eV    ::
         ::.................................................::
         :: SCC energy               -65.220104202539 Eh    ::
         :: -> isotropic ES            0.142481119035 Eh    ::
         :: -> anisotropic ES         -0.009621933214 Eh    ::
         :: -> anisotropic XC          0.016867235184 Eh    ::
         :: -> dispersion             -0.040408648120 Eh    ::
         :: repulsion energy           0.571943091081 Eh    ::
         :: add. restraining           0.000000000000 Eh    ::
         :: total charge              -0.000000000000 e     ::
         :::::::::::::::::::::::::::::::::::::::::::::::::::::

           -------------------------------------------------
          |                Property Printout                |
           -------------------------------------------------

    * Orbital Energies and Occupations

         #    Occupation            Energy/Eh            Energy/eV
      -------------------------------------------------------------
         1        2.0000           -0.7680352             -20.8993
       ...           ...                  ...                  ...
        44        2.0000           -0.4776954             -12.9988
        45        2.0000           -0.4761630             -12.9571
        46        2.0000           -0.4707343             -12.8093
        47        2.0000           -0.4666790             -12.6990
        48        2.0000           -0.4635486             -12.6138
        49        2.0000           -0.4523252             -12.3084
        50        2.0000           -0.4513036             -12.2806
        51        2.0000           -0.4389583             -11.9447
        52        2.0000           -0.4330060             -11.7827
        53        2.0000           -0.4267155             -11.6115
        54        2.0000           -0.3979444             -10.8286
        55        2.0000           -0.3626906              -9.8693
        56        2.0000           -0.3579878              -9.7413 (HOMO)
        57                         -0.2575497              -7.0083 (LUMO)
        58                         -0.2456898              -6.6856
        59                         -0.2356467              -6.4123
        60                         -0.1869432              -5.0870
        61                         -0.1543882              -4.2011
        62                         -0.1305921              -3.5536
        63                         -0.0993378              -2.7031
        64                         -0.0450993              -1.2272
        65                         -0.0318204              -0.8659
        66                         -0.0185478              -0.5047
        67                         -0.0122036              -0.3321
       ...                                ...                  ...
       110                          1.3318878              36.2425
      -------------------------------------------------------------
                  HL-Gap            0.1004380 Eh            2.7331 eV
             Fermi-level           -0.3077688 Eh           -8.3748 eV

     #   Z          covCN         q      C6AA      α(0)
     1   6 C        3.752    -0.117    22.802     6.810
     2   6 C        3.696     0.078    19.434     6.306
     3   8 O        1.703    -0.251    18.164     5.754
     4   6 C        2.717     0.362    20.851     7.475
     5   8 O        0.856    -0.411    21.903     6.275
     6   6 C        3.838    -0.088    22.150     6.695
     7   6 C        3.861     0.013    20.315     6.410
     8   1 H        0.924     0.100     1.782     2.088
     9   6 C        2.776     0.368    20.759     7.462
    10   8 O        0.894    -0.389    21.443     6.209
    11   8 O        1.702    -0.246    18.079     5.741
    12   6 C        3.696     0.078    19.450     6.309
    13   6 C        3.751    -0.114    22.744     6.801
    14  16 S        1.987    -0.162   147.891    20.468
    15  15 P        3.911     0.380   144.461    21.591
    16  16 S        0.926    -0.398   156.513    21.160
    17   8 O        1.656    -0.263    18.368     5.786
    18   6 C        3.819     0.034    19.989     6.363
    19   8 O        1.654    -0.214    17.573     5.659
    20   6 C        3.825     0.029    20.065     6.374
    21   1 H        0.925     0.060     2.203     2.321
    22   1 H        0.925     0.061     2.186     2.312
    23   1 H        0.925     0.058     2.222     2.331
    24   1 H        0.924     0.063     2.166     2.302
    25   1 H        0.924     0.056     2.247     2.344
    26   1 H        0.925     0.074     2.038     2.233
    27   1 H        0.924     0.091     1.868     2.137
    28   1 H        0.925     0.068     2.109     2.271
    29   1 H        0.924     0.073     2.050     2.239
    30   1 H        0.925     0.058     2.228     2.334
    31   1 H        0.925     0.059     2.211     2.325
    32   1 H        0.925     0.060     2.194     2.317
    33   1 H        0.925     0.074     2.047     2.237
    34   1 H        0.925     0.060     2.194     2.316
    35   1 H        0.924     0.071     2.072     2.251
    36   1 H        0.925     0.070     2.083     2.257
    37   1 H        0.925     0.083     1.951     2.184
    38   1 H        0.925     0.070     2.085     2.258

 Mol. C6AA /au·bohr⁶  :      18364.754148
 Mol. C8AA /au·bohr⁸  :     515268.044291
 Mol. α(0) /au        :        208.704870


Wiberg/Mayer (AO) data.
largest (>0.10) Wiberg bond orders for each atom

 ---------------------------------------------------------------------------
     #   Z sym  total        # sym  WBO       # sym  WBO       # sym  WBO
 ---------------------------------------------------------------------------
     1   6 C    3.990 --     2 C    1.021    22 H    0.985    21 H    0.985
                            23 H    0.982
     2   6 C    3.918 --     1 C    1.021    24 H    0.969    25 H    0.969
                             3 O    0.922
     3   8 O    2.328 --     4 C    1.170     2 C    0.922     5 O    0.180
     4   6 C    3.925 --     5 O    1.740     3 O    1.170     6 C    0.953
     5   8 O    2.031 --     4 C    1.740     3 O    0.180
     6   6 C    3.988 --     7 C    0.986    26 H    0.973     4 C    0.953
                            27 H    0.951
     7   6 C    3.974 --     6 C    0.986    14 S    0.963     9 C    0.954
                             8 H    0.932
     8   1 H    0.990 --     7 C    0.932
     9   6 C    3.920 --    10 O    1.707    11 O    1.194     7 C    0.954
    10   8 O    2.103 --     9 C    1.707    11 O    0.172
    11   8 O    2.349 --     9 C    1.194    12 C    0.909    10 O    0.172
    12   6 C    3.907 --    13 C    1.015    28 H    0.971    29 H    0.969
                            11 O    0.909
    13   6 C    3.990 --    12 C    1.015    30 H    0.985    32 H    0.985
                            31 H    0.981
    14  16 S    2.237 --     7 C    0.963    15 P    0.952    16 S    0.138
    15  15 P    5.287 --    16 S    1.565    19 O    1.321    17 O    1.257
                            14 S    0.952
    16  16 S    1.878 --    15 P    1.565    14 S    0.138
    17   8 O    2.371 --    15 P    1.257    18 C    0.938
    18   6 C    3.916 --    34 H    0.980    33 H    0.979    35 H    0.976
                            17 O    0.938
    19   8 O    2.416 --    15 P    1.321    20 C    0.916
    20   6 C    3.912 --    36 H    0.981    37 H    0.978    38 H    0.977
                            19 O    0.916
    21   1 H    0.996 --     1 C    0.985
    22   1 H    0.996 --     1 C    0.985
    23   1 H    0.996 --     1 C    0.982
    24   1 H    0.996 --     2 C    0.969
    25   1 H    0.997 --     2 C    0.969
    26   1 H    0.994 --     6 C    0.973
    27   1 H    0.992 --     6 C    0.951
    28   1 H    0.995 --    12 C    0.971
    29   1 H    0.995 --    12 C    0.969
    30   1 H    0.997 --    13 C    0.985
    31   1 H    0.996 --    13 C    0.981
    32   1 H    0.996 --    13 C    0.985
    33   1 H    0.994 --    18 C    0.979
    34   1 H    0.996 --    18 C    0.980
    35   1 H    0.995 --    18 C    0.976
    36   1 H    0.995 --    20 C    0.981
    37   1 H    0.993 --    20 C    0.978
    38   1 H    0.995 --    20 C    0.977
 ---------------------------------------------------------------------------

Topologies differ in total number of bonds
Writing topology from bond orders to xtbtopo.mol

molecular dipole:
                 x           y           z       tot (Debye)
 q only:        1.460      -1.974       1.025
   full:        1.367      -1.897       1.278       6.773
molecular quadrupole (traceless):
                xx          xy          yy          xz          yz          zz
 q only:       24.946      10.191     -17.396       6.136       5.598      -7.550
  q+dip:       25.666       9.341     -18.357       4.576       8.393      -7.308
   full:       25.967       9.355     -18.204       4.633       8.169      -7.763


           -------------------------------------------------
          | TOTAL ENERGY              -64.648161111458 Eh   |
          | GRADIENT NORM               0.047723189892 Eh/α |
          | HOMO-LUMO GAP               2.733057630633 eV   |
           -------------------------------------------------

------------------------------------------------------------------------
 * finished run on 2025/04/09 at 07:31:36.861     
------------------------------------------------------------------------
 total:
 * wall-time:     0 d,  0 h,  0 min,  0.208 sec
 *  cpu-time:     0 d,  0 h,  0 min,  0.096 sec
 * ratio c/w:     0.459 speedup
 SCF:
 * wall-time:     0 d,  0 h,  0 min,  0.124 sec
 *  cpu-time:     0 d,  0 h,  0 min,  0.077 sec
 * ratio c/w:     0.624 speedup

