      -----------------------------------------------------------      
     |                   =====================                   |     
     |                           x T B                           |     
     |                   =====================                   |     
     |                         S. Grimme                         |     
     |          Mulliken Center for Theoretical Chemistry        |     
     |                    University of Bonn                     |     
      -----------------------------------------------------------      

   * xtb version 6.7.1 (edcfbbe) compiled by 'albert@albert-system' on 2024-07-22

   xtb is free software: you can redistribute it and/or modify it under
   the terms of the GNU Lesser General Public License as published by
   the Free Software Foundation, either version 3 of the License, or
   (at your option) any later version.
   
   xtb is distributed in the hope that it will be useful,
   but WITHOUT ANY WARRANTY; without even the implied warranty of
   MERCHANTABILITY or FITNESS FOR A PARTICULAR PURPOSE.  See the
   GNU Lesser General Public License for more details.
   
   Cite this work as:
   * C. Bannwarth, E. Caldeweyher, S. Ehlert, A. Hansen, P. Pracht,
     J. Seibert, S. Spicher, S. Grimme, WIREs Comput. Mol. Sci., 2020, 11,
     e01493. DOI: 10.1002/wcms.1493
   
   for GFN2-xTB:
   * C. Bannwarth, S. Ehlert and S. Grimme., J. Chem. Theory Comput., 2019,
     15, 1652-1671. DOI: 10.1021/acs.jctc.8b01176
   for GFN1-xTB:
   * S. Grimme, C. Bannwarth, P. Shushkov, J. Chem. Theory Comput., 2017,
     13, 1989-2009. DOI: 10.1021/acs.jctc.7b00118
   for GFN0-xTB:
   * P. Pracht, E. Caldeweyher, S. Ehlert, S. Grimme, ChemRxiv, 2019, preprint.
     DOI: 10.26434/chemrxiv.8326202.v1
   for GFN-FF:
   * S. Spicher and S. Grimme, Angew. Chem. Int. Ed., 2020, 59, 15665-15673.
     DOI: 10.1002/anie.202004239
   
   for ALPB and GBSA implicit solvation:
   * S. Ehlert, M. Stahn, S. Spicher, S. Grimme, J. Chem. Theory Comput.,
     2021, 17, 4250-4261. DOI: 10.1021/acs.jctc.1c00471
   
   for ddCOSMO and CPCM-X implicit solvation:
   * M. Stahn, S. Ehlert, S. Grimme, J. Phys. Chem. A,
     2023, XX, XXXX-XXXX. DOI: 10.1021/acs.jpca.3c04382
   
   for DFT-D4:
   * E. Caldeweyher, C. Bannwarth and S. Grimme, J. Chem. Phys., 2017,
     147, 034112. DOI: 10.1063/1.4993215
   * E. Caldeweyher, S. Ehlert, A. Hansen, H. Neugebauer, S. Spicher,
     C. Bannwarth and S. Grimme, J. Chem. Phys., 2019, 150, 154122.
     DOI: 10.1063/1.5090222
   * E. Caldeweyher, J.-M. Mewes, S. Ehlert and S. Grimme, Phys. Chem. Chem. Phys.
     2020, 22, 8499-8512. DOI: 10.1039/D0CP00502A
   
   for sTDA-xTB:
   * S. Grimme and C. Bannwarth, J. Chem. Phys., 2016, 145, 054103.
     DOI: 10.1063/1.4959605
   
   in the mass-spec context:
   * V. Asgeirsson, C. Bauer and S. Grimme, Chem. Sci., 2017, 8, 4879.
     DOI: 10.1039/c7sc00601b
   * J. Koopman and S. Grimme, ACS Omega 2019, 4, 12, 15120-15133.
     DOI: 10.1021/acsomega.9b02011
   
   for metadynamics refer to:
   * S. Grimme, J. Chem. Theory Comput., 2019, 155, 2847-2862
     DOI: 10.1021/acs.jctc.9b00143
   
   for SPH calculations refer to:
   * S. Spicher and S. Grimme, J. Chem. Theory Comput., 2021, 17, 1701-1714
     DOI: 10.1021/acs.jctc.0c01306
   
   for ONIOM refer to:
   * C. Plett, A. Katbashev, S. Ehlert, S. Grimme, M. Bursch,
     Phys. Chem. Chem. Phys., 2023, 25, 17860-17868. DOI: 10.1039/D3CP02178E
   
   for DIPRO refer to:
   * J. Kohn, N. Gildemeister, S. Grimme, D. Fazzi, A. Hansen,
     J. Chem. Phys., 2023, just accepted.
   
   for PTB refer to:
   * S. Grimme, M. Mueller, A. Hansen, J. Chem. Phys., 2023, 158, 124111.
     DOI: 10.1063/5.0137838
   
   with help from (in alphabetical order)
   P. Atkinson, C. Bannwarth, F. Bohle, G. Brandenburg, E. Caldeweyher
   M. Checinski, S. Dohm, S. Ehlert, S. Ehrlich, I. Gerasimov, C. Hölzer
   A. Katbashev, J. Kohn, J. Koopman, C. Lavigne, S. Lehtola, F. März, M. Müller,
   F. Musil, H. Neugebauer, J. Pisarek, C. Plett, P. Pracht, F. Pultar,
   J. Seibert, P. Shushkov, S. Spicher, M. Stahn, M. Steiner, T. Strunk,
   J. Stückrath, T. Rose, and J. Unsleber
   
 * started run on 2025/04/09 at 07:31:33.714     
   ID    Z sym.   atoms
    1    6 C      1, 2, 4, 6, 7, 9, 12, 13, 18, 20
    2    8 O      3, 5, 10, 11, 17, 19
    3    1 H      8, 21-38
    4   16 S      14, 16
    5   15 P      15

           -------------------------------------------------
          |                Calculation Setup                |
           -------------------------------------------------

          program call               : /software/projects/pawsey0265/mwang1/xtb/bin/xtb gas.coord --gfn2 --sp --chrg 0 --norestart --parallel 1
          hostname                   : nid002043
          coordinate file            : gas.coord
          omp threads                :                     1


           -------------------------------------------------
          |                 G F N 2 - x T B                 |
           -------------------------------------------------

        Reference                      10.1021/acs.jctc.8b01176
      * Hamiltonian:
        H0-scaling (s, p, d)           1.850000    2.230000    2.230000
        zeta-weighting                 0.500000
      * Dispersion:
        s8                             2.700000
        a1                             0.520000
        a2                             5.000000
        s9                             5.000000
      * Repulsion:
        kExp                           1.500000    1.000000
        rExp                           1.000000
      * Coulomb:
        alpha                          2.000000
        third order                    shell-resolved
        anisotropic                    true
        a3                             3.000000
        a5                             4.000000
        cn-shift                       1.200000
        cn-exp                         4.000000
        max-rad                        5.000000


          ...................................................
          :                      SETUP                      :
          :.................................................:
          :  # basis functions                 113          :
          :  # atomic orbitals                 110          :
          :  # shells                           60          :
          :  # electrons                       112          :
          :  max. iterations                   250          :
          :  Hamiltonian                  GFN2-xTB          :
          :  restarted?                      false          :
          :  GBSA solvation                  false          :
          :  PC potential                    false          :
          :  electronic temp.          300.0000000     K    :
          :  accuracy                    1.0000000          :
          :  -> integral cutoff          0.2500000E+02      :
          :  -> integral neglect         0.1000000E-07      :
          :  -> SCF convergence          0.1000000E-05 Eh   :
          :  -> wf. convergence          0.1000000E-03 e    :
          :  Broyden damping             0.4000000          :
          :  net charge                          0          :
          :  unpaired electrons                  0          :
          ...................................................

 iter      E             dE          RMSdq      gap      omega  full diag
   1    -65.0412563 -0.650413E+02  0.588E+00    4.24       0.0  T
   2    -65.2022467 -0.160990E+00  0.340E+00    2.67       1.0  T
   3    -65.2132299 -0.109833E-01  0.142E+00    2.77       1.0  T
   4    -65.2195881 -0.635812E-02  0.477E-01    2.32       1.0  T
   5    -65.2210178 -0.142977E-02  0.221E-01    2.51       1.0  T
   6    -65.2211862 -0.168341E-03  0.906E-02    2.48       1.0  T
   7    -65.2212013 -0.151678E-04  0.337E-02    2.48       1.0  T
   8    -65.2212060 -0.460877E-05  0.176E-02    2.49       1.0  T
   9    -65.2212074 -0.139662E-05  0.375E-03    2.49       4.3  T
  10    -65.2212074 -0.760578E-07  0.196E-03    2.49       8.3  T
  11    -65.2212074 -0.450611E-08  0.579E-04    2.49      28.0  T
  12    -65.2212074 -0.882920E-09  0.194E-04    2.49      83.5  T

   *** convergence criteria satisfied after 12 iterations ***

         #    Occupation            Energy/Eh            Energy/eV
      -------------------------------------------------------------
         1        2.0000           -0.7680317             -20.8992
       ...           ...                  ...                  ...
        50        2.0000           -0.4433015             -12.0628
        51        2.0000           -0.4406278             -11.9901
        52        2.0000           -0.4362010             -11.8696
        53        2.0000           -0.4229539             -11.5092
        54        2.0000           -0.3887647             -10.5788
        55        2.0000           -0.3497345              -9.5168
        56        2.0000           -0.3449700              -9.3871 (HOMO)
        57                         -0.2535298              -6.8989 (LUMO)
        58                         -0.2456506              -6.6845
        59                         -0.2426660              -6.6033
        60                         -0.1875402              -5.1032
        61                         -0.1313690              -3.5747
       ...                                ...                  ...
       110                          1.3655301              37.1580
      -------------------------------------------------------------
                  HL-Gap            0.0914402 Eh            2.4882 eV
             Fermi-level           -0.2992499 Eh           -8.1430 eV

 SCC (total)                   0 d,  0 h,  0 min,  0.101 sec
 SCC setup                      ...        0 min,  0.000 sec (  0.454%)
 Dispersion                     ...        0 min,  0.000 sec (  0.485%)
 classical contributions        ...        0 min,  0.000 sec (  0.093%)
 integral evaluation            ...        0 min,  0.040 sec ( 39.970%)
 iterations                     ...        0 min,  0.032 sec ( 31.675%)
 molecular gradient             ...        0 min,  0.027 sec ( 27.010%)
 printout                       ...        0 min,  0.000 sec (  0.287%)

         :::::::::::::::::::::::::::::::::::::::::::::::::::::
         ::                     SUMMARY                     ::
         :::::::::::::::::::::::::::::::::::::::::::::::::::::
         :: total energy             -64.650248966629 Eh    ::
         :: gradient norm              0.044978745440 Eh/a0 ::
         :: HOMO-LUMO gap              2.488215789104 eV    ::
         ::.................................................::
         :: SCC energy               -65.220357623140 Eh    ::
         :: -> isotropic ES            0.144579361140 Eh    ::
         :: -> anisotropic ES         -0.013954159460 Eh    ::
         :: -> anisotropic XC          0.016868472344 Eh    ::
         :: -> dispersion             -0.041576463245 Eh    ::
         :: repulsion energy           0.570108656510 Eh    ::
         :: add. restraining           0.000000000000 Eh    ::
         :: total charge              -0.000000000000 e     ::
         :::::::::::::::::::::::::::::::::::::::::::::::::::::

           -------------------------------------------------
          |                Property Printout                |
           -------------------------------------------------

    * Orbital Energies and Occupations

         #    Occupation            Energy/Eh            Energy/eV
      -------------------------------------------------------------
         1        2.0000           -0.7680317             -20.8992
       ...           ...                  ...                  ...
        44        2.0000           -0.4677944             -12.7293
        45        2.0000           -0.4658605             -12.6767
        46        2.0000           -0.4654491             -12.6655
        47        2.0000           -0.4605703             -12.5328
        48        2.0000           -0.4590540             -12.4915
        49        2.0000           -0.4567330             -12.4283
        50        2.0000           -0.4433015             -12.0628
        51        2.0000           -0.4406278             -11.9901
        52        2.0000           -0.4362010             -11.8696
        53        2.0000           -0.4229539             -11.5092
        54        2.0000           -0.3887647             -10.5788
        55        2.0000           -0.3497345              -9.5168
        56        2.0000           -0.3449700              -9.3871 (HOMO)
        57                         -0.2535298              -6.8989 (LUMO)
        58                         -0.2456506              -6.6845
        59                         -0.2426660              -6.6033
        60                         -0.1875402              -5.1032
        61                         -0.1313690              -3.5747
        62                         -0.1250718              -3.4034
        63                         -0.0945481              -2.5728
        64                         -0.0387071              -1.0533
        65                         -0.0292675              -0.7964
        66                         -0.0206274              -0.5613
        67                         -0.0099860              -0.2717
       ...                                ...                  ...
       110                          1.3655301              37.1580
      -------------------------------------------------------------
                  HL-Gap            0.0914402 Eh            2.4882 eV
             Fermi-level           -0.2992499 Eh           -8.1430 eV

     #   Z          covCN         q      C6AA      α(0)
     1   6 C        3.751    -0.116    22.782     6.807
     2   6 C        3.695     0.075    19.499     6.317
     3   8 O        1.703    -0.246    18.079     5.741
     4   6 C        2.717     0.367    20.771     7.461
     5   8 O        0.856    -0.418    22.048     6.295
     6   6 C        3.844    -0.091    22.202     6.703
     7   6 C        3.860     0.016    20.265     6.402
     8   1 H        0.924     0.082     1.959     2.189
     9   6 C        2.787     0.382    20.541     7.424
    10   8 O        1.071    -0.380    21.185     6.176
    11   8 O        1.703    -0.239    17.959     5.722
    12   6 C        3.697     0.075    19.487     6.314
    13   6 C        3.751    -0.115    22.773     6.806
    14  16 S        1.994    -0.167   148.106    20.483
    15  15 P        3.945     0.370   144.824    21.618
    16  16 S        0.926    -0.405   156.866    21.184
    17   8 O        1.657    -0.254    18.228     5.763
    18   6 C        3.788     0.032    20.045     6.377
    19   8 O        1.656    -0.233    17.881     5.708
    20   6 C        3.714     0.039    20.046     6.397
    21   1 H        0.925     0.063     2.160     2.298
    22   1 H        0.925     0.059     2.206     2.323
    23   1 H        0.925     0.057     2.235     2.338
    24   1 H        0.925     0.065     2.138     2.287
    25   1 H        0.924     0.063     2.160     2.299
    26   1 H        0.925     0.090     1.880     2.144
    27   1 H        0.924     0.092     1.861     2.134
    28   1 H        0.924     0.068     2.108     2.270
    29   1 H        0.924     0.072     2.066     2.248
    30   1 H        0.925     0.072     2.063     2.246
    31   1 H        0.925     0.054     2.270     2.356
    32   1 H        0.925     0.057     2.238     2.339
    33   1 H        0.925     0.063     2.164     2.300
    34   1 H        0.924     0.062     2.175     2.306
    35   1 H        0.925     0.075     2.027     2.226
    36   1 H        0.925     0.074     2.044     2.236
    37   1 H        0.925     0.072     2.062     2.246
    38   1 H        0.925     0.068     2.109     2.271

 Mol. C6AA /au·bohr⁶  :      18365.922271
 Mol. C8AA /au·bohr⁸  :     515425.592196
 Mol. α(0) /au        :        208.752454


Wiberg/Mayer (AO) data.
largest (>0.10) Wiberg bond orders for each atom

 ---------------------------------------------------------------------------
     #   Z sym  total        # sym  WBO       # sym  WBO       # sym  WBO
 ---------------------------------------------------------------------------
     1   6 C    3.990 --     2 C    1.014    22 H    0.985    21 H    0.984
                            23 H    0.982
     2   6 C    3.914 --     1 C    1.014    24 H    0.972    25 H    0.970
                             3 O    0.919
     3   8 O    2.341 --     4 C    1.187     2 C    0.919     5 O    0.176
     4   6 C    3.922 --     5 O    1.712     3 O    1.187     6 C    0.966
     5   8 O    2.046 --     4 C    1.712     3 O    0.176
     6   6 C    3.990 --     7 C    0.995     4 C    0.966    26 H    0.962
                            27 H    0.942
     7   6 C    3.982 --     6 C    0.995    14 S    0.969     9 C    0.950
                             8 H    0.944
     8   1 H    0.993 --     7 C    0.944
     9   6 C    3.920 --    10 O    1.656    11 O    1.204     7 C    0.950
    10   8 O    2.152 --     9 C    1.656    15 P    0.179    11 O    0.155
    11   8 O    2.347 --     9 C    1.204    12 C    0.909    10 O    0.155
    12   6 C    3.906 --    13 C    1.015    28 H    0.971    29 H    0.969
                            11 O    0.909
    13   6 C    3.989 --    12 C    1.015    31 H    0.986    30 H    0.982
                            32 H    0.982
    14  16 S    2.222 --     7 C    0.969    15 P    0.931    16 S    0.132
    15  15 P    5.300 --    16 S    1.528    19 O    1.298    17 O    1.272
                            14 S    0.931    10 O    0.179
    16  16 S    1.852 --    15 P    1.528    14 S    0.132
    17   8 O    2.365 --    15 P    1.272    18 C    0.931
    18   6 C    3.925 --    33 H    0.982    35 H    0.979    34 H    0.973
                            17 O    0.931
    19   8 O    2.423 --    15 P    1.298    20 C    0.932
    20   6 C    3.912 --    36 H    0.980    37 H    0.979    38 H    0.976
                            19 O    0.932
    21   1 H    0.996 --     1 C    0.984
    22   1 H    0.996 --     1 C    0.985
    23   1 H    0.996 --     1 C    0.982
    24   1 H    0.996 --     2 C    0.972
    25   1 H    0.996 --     2 C    0.970
    26   1 H    0.992 --     6 C    0.962
    27   1 H    0.991 --     6 C    0.942
    28   1 H    0.995 --    12 C    0.971
    29   1 H    0.995 --    12 C    0.969
    30   1 H    0.995 --    13 C    0.982
    31   1 H    0.997 --    13 C    0.986
    32   1 H    0.996 --    13 C    0.982
    33   1 H    0.996 --    18 C    0.982
    34   1 H    0.996 --    18 C    0.973
    35   1 H    0.994 --    18 C    0.979
    36   1 H    0.995 --    20 C    0.980
    37   1 H    0.995 --    20 C    0.979
    38   1 H    0.995 --    20 C    0.976
 ---------------------------------------------------------------------------

Topologies differ in total number of bonds
Writing topology from bond orders to xtbtopo.mol

molecular dipole:
                 x           y           z       tot (Debye)
 q only:        2.547      -1.764      -0.086
   full:        2.678      -1.847       0.041       8.270
molecular quadrupole (traceless):
                xx          xy          yy          xz          yz          zz
 q only:       -2.304      14.550      -0.731      -0.139       3.349       3.035
  q+dip:        0.273      17.393      -4.776      -3.171       0.684       4.503
   full:        0.679      17.845      -4.094      -2.588       1.202       3.415


           -------------------------------------------------
          | TOTAL ENERGY              -64.650248966629 Eh   |
          | GRADIENT NORM               0.044978745440 Eh/α |
          | HOMO-LUMO GAP               2.488215789104 eV   |
           -------------------------------------------------

------------------------------------------------------------------------
 * finished run on 2025/04/09 at 07:31:33.857     
------------------------------------------------------------------------
 total:
 * wall-time:     0 d,  0 h,  0 min,  0.142 sec
 *  cpu-time:     0 d,  0 h,  0 min,  0.102 sec
 * ratio c/w:     0.718 speedup
 SCF:
 * wall-time:     0 d,  0 h,  0 min,  0.101 sec
 *  cpu-time:     0 d,  0 h,  0 min,  0.083 sec
 * ratio c/w:     0.825 speedup

