
                                 *****************
                                 * O   R   C   A *
                                 *****************

                                            #,                                       
                                            ###                                      
                                            ####                                     
                                            #####                                    
                                            ######                                   
                                           ########,                                 
                                     ,,################,,,,,                         
                               ,,#################################,,                 
                          ,,##########################################,,             
                       ,#########################################, ''#####,          
                    ,#############################################,,   '####,        
                  ,##################################################,,,,####,       
                ,###########''''           ''''###############################       
              ,#####''   ,,,,##########,,,,          '''####'''          '####       
            ,##' ,,,,###########################,,,                        '##       
           ' ,,###''''                  '''############,,,                           
         ,,##''                                '''############,,,,        ,,,,,,###''
      ,#''                                            '''#######################'''  
     '                                                          ''''####''''         
             ,#######,   #######,   ,#######,      ##                                
            ,#'     '#,  ##    ##  ,#'     '#,    #''#        ,####,   ,####,        
            ##       ##  ##   ,#'  ##            #'  '#       #'       #'  '#        
            ##       ##  #######   ##           ,######,      #####,   #    #        
            '#,     ,#'  ##    ##  '#,     ,#' ,#      #,     #,   #   #,  ,#        
             '#######'   ##     ##  '#######'  #'      '#     '####' # '####'        



                #########################################################
                #                        -***-                          #
                #          Department of theory and spectroscopy        #
                #                                                       #
                #                      Frank Neese                      #
                #                                                       #
                #     Directorship, Architecture, Infrastructure        #
                #                    SHARK, DRIVERS                     #
                #        Core code/Algorithms in most modules           #
                #                                                       #
                #        Max Planck Institute fuer Kohlenforschung      #
                #                Kaiser Wilhelm Platz 1                 #
                #                 D-45470 Muelheim/Ruhr                 #
                #                      Germany                          #
                #                                                       #
                #                  All rights reserved                  #
                #                        -***-                          #
                #########################################################


                         Program Version 6.0.0  -   RELEASE  -


 With contributions from (in alphabetic order):
   Daniel Aravena         : Magnetic Suceptibility
   Michael Atanasov       : Ab Initio Ligand Field Theory (pilot matlab implementation)
   Alexander A. Auer      : GIAO ZORA, VPT2 properties, NMR spectrum
   Ute Becker             : All parallelization in ORCA, NUMFREQ, NUMCALC
   Giovanni Bistoni       : ED, misc. LED, open-shell LED, HFLD
   Martin Brehm           : Molecular dynamics
   Dmytro Bykov           : pre 5.0 version of the SCF Hessian
   Marcos Casanova-Páez   : Triplet and SCS-CIS(D). UHF-(DLPNO)-IP/EA/STEOM-CCSD. UHF-CVS-IP/STEOM-CCSD
   Vijay G. Chilkuri      : MRCI spin determinant printing, contributions to CSF-ICE
   Pauline Colinet        : FMM embedding
   Dipayan Datta          : RHF DLPNO-CCSD density
   Achintya Kumar Dutta   : EOM-CC, STEOM-CC
   Nicolas Foglia         : Exact transition moments, OPA infrastructure, MCD improvements
   Dmitry Ganyushin       : Spin-Orbit,Spin-Spin,Magnetic field MRCI
   Miquel Garcia          : C-PCM and meta-GGA Hessian, CCSD/C-PCM, Gaussian charge scheme
   Tiago L. C. Gouveia    : GS-ROHF, GS-ROCIS
   Yang Guo               : DLPNO-NEVPT2, F12-NEVPT2, CIM, IAO-localization
   Andreas Hansen         : Spin unrestricted coupled pair/coupled cluster methods
   Ingolf Harden          : AUTO-CI MPn and infrastructure 
   Benjamin Helmich-Paris : MC-RPA, TRAH-(SCF,CASSCF), AVAS, COSX integrals, SCF dyn. polar.
   Lee Huntington         : MR-EOM, pCC
   Robert Izsak           : Overlap fitted RIJCOSX, COSX-SCS-MP3, EOM
   Riya Kayal             : Wick's Theorem for AUTO-CI, AUTO-CI UHF-CCSDT
   Emily Kempfer          : AUTO-CI, RHF CISDT and CCSDT
   Christian Kollmar      : KDIIS, OOCD, Brueckner-CCSD(T), CCSD density, CASPT2, CASPT2-K, improved NEVPT2
   Axel Koslowski         : Symmetry handling
   Simone Kossmann        : Meta GGA functionals, TD-DFT gradient, OOMP2, (MP2 Hessian; deprecated post 5.0)
   Lucas Lang             : DCDCAS
   Marvin Lechner         : AUTO-CI (C++ implementation), FIC-MRCC
   Spencer Leger          : CASSCF response
   Dagmar Lenk            : GEPOL surface, SMD, ORCA-2-JSON
   Dimitrios Liakos       : Extrapolation schemes; Compound Job, initial MDCI parallelization
   Dimitrios Manganas     : Further ROCIS development; embedding schemes. LFT, Crystal Embedding
   Dimitrios Pantazis     : SARC Basis sets
   Anastasios Papadopoulos: AUTO-CI, single reference methods and gradients
   Taras Petrenko         : pre 6.0 DFT Hessian and TD-DFT gradient, (ASA, deprecated), ECA, 1-Electron XAS/XES, NRVS
   Peter Pinski           : DLPNO-MP2, DLPNO-MP2 Gradient
   Christoph Reimann      : Effective Core Potentials
   Marius Retegan         : Local ZFS, SOC
   Christoph Riplinger    : Optimizer, TS searches, QM/MM, DLPNO-CCSD(T), (RO)-DLPNO pert. Triples
   Michael Roemelt        : Original ROCIS implementation
   Masaaki Saitow         : Open-shell DLPNO-CCSD energy and density
   Barbara Sandhoefer     : DKH picture change effects
   Kantharuban Sivalingam : CASSCF convergence/infrastructure, NEVPT2 and variants, FIC-MRCI
   Bernardo de Souza      : ESD, SOC TD-DFT
   Georgi Stoychev        : AutoAux, RI-MP2 NMR, DLPNO-MP2 response, X2C
   Van Anh Tran           : RI-MP2 g-tensors
   Willem Van den Heuvel  : Paramagnetic NMR
   Zikuan Wang            : NOTCH, Electric field optimization 
   Frank Wennmohs         : Technical directorship and infrastructure
   Hang Xu                : AUTO-CI-Response properties 


 We gratefully acknowledge several colleagues who have allowed us to
 interface, adapt or use parts of their codes:
   Stefan Grimme, W. Hujo, H. Kruse, P. Pracht,  : VdW corrections, initial TS optimization,
                  C. Bannwarth, S. Ehlert,         DFT functionals, gCP, sTDA/sTD-DF
                  L. Wittmann, M. Mueller
   Ed Valeev, F. Pavosevic, A. Kumar             : LibInt (2-el integral package), F12 methods
   Garnet Chan, S. Sharma, J. Yang, R. Olivares  : DMRG
   Ulf Ekstrom                                   : XCFun DFT Library
   Mihaly Kallay                                 : mrcc  (arbitrary order and MRCC methods)
   Frank Weinhold                                : gennbo (NPA and NBO analysis)
   Simon Mueller                                 : openCOSMO-RS
   Christopher J. Cramer and Donald G. Truhlar   : smd solvation model
   Lars Goerigk                                  : TD-DFT with DH, B97 family of functionals
   V. Asgeirsson, H. Jonsson                     : NEB implementation
   FAccTs GmbH                                   : IRC, NEB, NEB-TS, DLPNO-Multilevel, CI-OPT
                                                   MM, QMMM, 2- and 3-layer-ONIOM, Crystal-QMMM,
                                                   LR-CPCM, SF, NACMEs, symmetry and pop. for TD-DFT,
                                                   nearIR, NL-DFT gradient (VV10), updates on ESD,
                                                   ML-optimized integration grids, MBIS, APM,
                                                   GOAT, DOCKER, SOLVATOR, interface openCOSMO-RS
   S Lehtola, MJT Oliveira, MAL Marques          : LibXC Library
   Liviu Ungur et al                             : ANISO software


 Your calculation uses the libint2 library for the computation of 2-el integrals
 For citations please refer to: http://libint.valeyev.net

 Your ORCA version has been built with support for libXC version: 6.2.2
 For citations please refer to: https://libxc.gitlab.io

 This ORCA versions uses:
   CBLAS   interface :  Fast vector & matrix operations
   LAPACKE interface :  Fast linear algebra routines
   SCALAPACK package :  Parallel linear algebra routines
   Shared memory     :  Shared parallel matrices
   BLAS/LAPACK       :  OpenBLAS 0.3.27  USE64BITINT DYNAMIC_ARCH NO_AFFINITY SapphireRapids SINGLE_THREADED
        Core in use  :  SapphireRapids
   Copyright (c) 2011-2014, The OpenBLAS Project


Your calculation utilizes the geometrical counterpoise correction gCP
Please cite in your paper:
H.Kruse, S. Grimme J.Chem.Phys., 136, (2012), 154101 
   

Your calculation utilizes the atom-pairwise dispersion correction
based on EEQ partial charges (D4)


================================================================================

----- Orbital basis set information -----
Your calculation utilizes the basis: def2-mTZVPP
   Stefan Grimme, Andreas Hansen, Sebastian Ehlert, and Jan-Michael Mewes 
   J. Chem. Phys. 154, 064103 (2021). DOI: 10.1063/5.0040021

----- AuxJ basis set information -----
Your calculation utilizes the auxiliary basis: def2/J
   F. Weigend, Phys. Chem. Chem. Phys. 8, 1057 (2006).

================================================================================
                                        WARNINGS
                       Please study these warnings very carefully!
================================================================================

Using LibXC functional ID 497 : Re-regularized SCAN exchange by Furness et al
[ 1]  J. W. Furness, A. D. Kaplan, J. Ning, J. P. Perdew, and J. Sun.,  J. Phys. Chem. Lett. 11, 8208-8215 (2020)
[ 2]  J. W. Furness, A. D. Kaplan, J. Ning, J. P. Perdew, and J. Sun.,  J. Phys. Chem. Lett. 11, 9248-9248 (2020)
Using LibXC functional ID 498 : Re-regularized SCAN correlation by Furness et al
[ 1]  J. W. Furness, A. D. Kaplan, J. Ning, J. P. Perdew, and J. Sun.,  J. Phys. Chem. Lett. 11, 8208-8215 (2020)
[ 2]  J. W. Furness, A. D. Kaplan, J. Ning, J. P. Perdew, and J. Sun.,  J. Phys. Chem. Lett. 11, 9248-9248 (2020)
Using LibXC functional ID 497 : Re-regularized SCAN exchange by Furness et al
[ 1]  J. W. Furness, A. D. Kaplan, J. Ning, J. P. Perdew, and J. Sun.,  J. Phys. Chem. Lett. 11, 8208-8215 (2020)
[ 2]  J. W. Furness, A. D. Kaplan, J. Ning, J. P. Perdew, and J. Sun.,  J. Phys. Chem. Lett. 11, 9248-9248 (2020)
Using LibXC functional ID 498 : Re-regularized SCAN correlation by Furness et al
[ 1]  J. W. Furness, A. D. Kaplan, J. Ning, J. P. Perdew, and J. Sun.,  J. Phys. Chem. Lett. 11, 8208-8215 (2020)
[ 2]  J. W. Furness, A. D. Kaplan, J. Ning, J. P. Perdew, and J. Sun.,  J. Phys. Chem. Lett. 11, 9248-9248 (2020)

================================================================================
                                       INPUT FILE
================================================================================
NAME = sp_gas.inp
|  1> ! r2scan-3c def2/J RI DEFGRID2 scfconv6 printgap
|  2> %output
|  3>     printlevel normal
|  4> end
|  5> * xyz 0 1
|  6> C 2.8992721416 0.1902449446 3.2804559067
|  7> C 1.5473054971 -0.1556305391 2.6945094398
|  8> O 1.4005869976 0.3830515429 1.3619430436
|  9> P 2.2212181184 -0.1966777627 0.1409385203
| 10> S 2.7309382499 -2.0883903275 0.2743877947
| 11> O 3.3873766256 0.8745280276 0.0253336529
| 12> C 4.4073722233 0.8090676648 -0.9913048058
| 13> C 5.6232269219 0.0525846006 -0.4916104029
| 14> S 0.9764580395 0.2906171393 -1.5037156217
| 15> C -0.044797233 -1.2052866679 -1.4191656757
| 16> S -1.1309245686 -1.2350945632 0.0238504918
| 17> P -2.3887006279 0.3744345267 -0.6082986271
| 18> S -2.768213599 0.4128511566 -2.5242482753
| 19> O -1.6916978487 1.693862226 -0.1059974685
| 20> C -1.4284087422 1.97072071 1.291786492
| 21> C -2.4749632134 2.9117218839 1.8504306098
| 22> O -3.6536423741 0.2721420848 0.3465121547
| 23> C -4.7149905097 -0.6790977697 0.1306553616
| 24> C -4.4979098174 -1.9411177948 0.9422265272
| 25> H 2.950877919 -0.1630376268 4.3054386454
| 26> H 3.6838939112 -0.2924411874 2.6987664013
| 27> H 3.0561953421 1.2652453233 3.256618033
| 28> H 0.7311374553 0.2998189627 3.2562089143
| 29> H 1.408268101 -1.2404131984 2.6481633463
| 30> H 3.9935247899 0.3415652647 -1.8896111101
| 31> H 4.6478396878 1.8523099813 -1.204635945
| 32> H 6.0053630693 0.5162314646 0.4135177221
| 33> H 5.3623241469 -0.9810040702 -0.2750021802
| 34> H 6.3932854439 0.0694193789 -1.256035333
| 35> H 0.5990036605 -2.0825510081 -1.3492186961
| 36> H -0.6501500673 -1.2217284835 -2.3256703077
| 37> H -1.409170538 1.0252541387 1.8408864014
| 38> H -0.4334065859 2.4207868708 1.3015081227
| 39> H -3.4537058913 2.4399655592 1.8278123115
| 40> H -2.2187203386 3.1613027957 2.8753157579
| 41> H -2.5101309431 3.8210795325 1.2568417739
| 42> H -5.618298396 -0.1558077802 0.4495785421
| 43> H -4.780897447 -0.8961176973 -0.9402261631
| 44> H -3.6009332085 -2.4606593053 0.6133890305
| 45> H -4.3925433842 -1.6942528383 1.9948327159
| 46> H -5.3538604677 -2.5954997953 0.8123149105
| 47> *
| 48> 
| 49>                          ****END OF INPUT****
================================================================================

                       ****************************
                       * Single Point Calculation *
                       ****************************

---------------------------------
CARTESIAN COORDINATES (ANGSTROEM)
---------------------------------
  C      2.899272    0.190245    3.280456
  C      1.547305   -0.155631    2.694509
  O      1.400587    0.383052    1.361943
  P      2.221218   -0.196678    0.140939
  S      2.730938   -2.088390    0.274388
  O      3.387377    0.874528    0.025334
  C      4.407372    0.809068   -0.991305
  C      5.623227    0.052585   -0.491610
  S      0.976458    0.290617   -1.503716
  C     -0.044797   -1.205287   -1.419166
  S     -1.130925   -1.235095    0.023850
  P     -2.388701    0.374435   -0.608299
  S     -2.768214    0.412851   -2.524248
  O     -1.691698    1.693862   -0.105997
  C     -1.428409    1.970721    1.291786
  C     -2.474963    2.911722    1.850431
  O     -3.653642    0.272142    0.346512
  C     -4.714991   -0.679098    0.130655
  C     -4.497910   -1.941118    0.942227
  H      2.950878   -0.163038    4.305439
  H      3.683894   -0.292441    2.698766
  H      3.056195    1.265245    3.256618
  H      0.731137    0.299819    3.256209
  H      1.408268   -1.240413    2.648163
  H      3.993525    0.341565   -1.889611
  H      4.647840    1.852310   -1.204636
  H      6.005363    0.516231    0.413518
  H      5.362324   -0.981004   -0.275002
  H      6.393285    0.069419   -1.256035
  H      0.599004   -2.082551   -1.349219
  H     -0.650150   -1.221728   -2.325670
  H     -1.409171    1.025254    1.840886
  H     -0.433407    2.420787    1.301508
  H     -3.453706    2.439966    1.827812
  H     -2.218720    3.161303    2.875316
  H     -2.510131    3.821080    1.256842
  H     -5.618298   -0.155808    0.449579
  H     -4.780897   -0.896118   -0.940226
  H     -3.600933   -2.460659    0.613389
  H     -4.392543   -1.694253    1.994833
  H     -5.353860   -2.595500    0.812315

----------------------------
CARTESIAN COORDINATES (A.U.)
----------------------------
  NO LB      ZA    FRAG     MASS         X           Y           Z
   0 C     6.0000    0    12.011    5.478830    0.359511    6.199163
   1 C     6.0000    0    12.011    2.923984   -0.294099    5.091885
   2 O     8.0000    0    15.999    2.646726    0.723863    2.573699
   3 P    15.0000    0    30.974    4.197494   -0.371667    0.266335
   4 S    16.0000    0    32.060    5.160725   -3.946486    0.518518
   5 O     8.0000    0    15.999    6.401214    1.652618    0.047874
   6 C     6.0000    0    12.011    8.328726    1.528916   -1.873295
   7 C     6.0000    0    12.011   10.626359    0.099370   -0.929009
   8 S    16.0000    0    32.060    1.845238    0.549187   -2.841611
   9 C     6.0000    0    12.011   -0.084655   -2.277662   -2.681834
  10 S    16.0000    0    32.060   -2.137138   -2.333990    0.045071
  11 P    15.0000    0    30.974   -4.513990    0.707579   -1.149518
  12 S    16.0000    0    32.060   -5.231166    0.780176   -4.770138
  13 O     8.0000    0    15.999   -3.196846    3.200936   -0.200306
  14 C     6.0000    0    12.011   -2.699301    3.724122    2.441123
  15 C     6.0000    0    12.011   -4.677003    5.502357    3.496807
  16 O     8.0000    0    15.999   -6.904383    0.514274    0.654813
  17 C     6.0000    0    12.011   -8.910041   -1.283309    0.246903
  18 C     6.0000    0    12.011   -8.499818   -3.668181    1.780550
  19 H     1.0000    0     1.008    5.576351   -0.308096    8.136100
  20 H     1.0000    0     1.008    6.961551   -0.552634    5.099929
  21 H     1.0000    0     1.008    5.775372    2.390967    6.154116
  22 H     1.0000    0     1.008    1.381650    0.566576    6.153343
  23 H     1.0000    0     1.008    2.661241   -2.344041    5.004303
  24 H     1.0000    0     1.008    7.546668    0.645465   -3.570847
  25 H     1.0000    0     1.008    8.783144    3.500359   -2.276432
  26 H     1.0000    0     1.008   11.348492    0.975536    0.781435
  27 H     1.0000    0     1.008   10.133324   -1.853829   -0.519679
  28 H     1.0000    0     1.008   12.081559    0.131184   -2.373563
  29 H     1.0000    0     1.008    1.131953   -3.935451   -2.549654
  30 H     1.0000    0     1.008   -1.228606   -2.308732   -4.394880
  31 H     1.0000    0     1.008   -2.662946    1.937450    3.478771
  32 H     1.0000    0     1.008   -0.819020    4.574624    2.459494
  33 H     1.0000    0     1.008   -6.526558    4.610867    3.454065
  34 H     1.0000    0     1.008   -4.192774    5.973997    5.433559
  35 H     1.0000    0     1.008   -4.743460    7.220794    2.375087
  36 H     1.0000    0     1.008  -10.617045   -0.294434    0.849580
  37 H     1.0000    0     1.008   -9.034587   -1.693417   -1.776770
  38 H     1.0000    0     1.008   -6.804778   -4.649972    1.159137
  39 H     1.0000    0     1.008   -8.300704   -3.201674    3.769688
  40 H     1.0000    0     1.008  -10.117330   -4.904784    1.535053

--------------------------------
INTERNAL COORDINATES (ANGSTROEM)
--------------------------------
 C      0   0   0     0.000000000000     0.00000000     0.00000000
 C      1   0   0     1.513531274912     0.00000000     0.00000000
 O      2   1   0     1.444796838260   111.25828011     0.00000000
 P      3   2   1     1.581256952591   121.52001540    70.10067674
 S      4   3   2     1.963720893894   115.81177622    28.27515512
 O      4   3   2     1.587693923417   100.95570731   260.03919826
 C      6   4   3     1.441606684964   122.71085941   181.75451815
 C      7   6   4     1.516662048981   110.94754890   267.43932376
 S      4   3   2     2.119379914583   102.12886548   154.34230397
 C      9   4   3     1.813239980083    96.02277257   272.82304881
 S     10   9   4     1.806337941645   112.92474357    70.12175186
 P     11  10   9     2.138269631059    96.03269977    67.91190038
 S     12  11  10     1.953552913827   114.77274607    38.05113496
 O     12  11  10     1.574486831264   106.02607258   273.24873318
 C     14  12  11     1.449058927027   123.24916590   299.81140887
 C     15  14  12     1.514213565130   110.42814402   259.62461275
 O     12  11  10     1.588145142608   104.02173077   165.66808369
 C     17  12  11     1.441496195228   122.60995478   280.57094033
 C     18  17  12     1.516069367660   111.32955465    94.77993546
 H      1   2   3     1.085385344543   109.49246739   175.81095242
 H      1   2   3     1.089486073361   109.59425580   295.33587063
 H      1   2   3     1.086654935701   110.27783415    55.10779040
 H      2   1   3     1.090445239707   111.94452154   244.00603350
 H      2   1   3     1.094638194023   110.87399564   120.86483796
 H      7   6   4     1.093975506388   109.31865582    30.35623105
 H      7   6   4     1.091645229629   104.49385491   147.30424607
 H      8   7   6     1.086394666920   110.09713482   303.25147667
 H      8   7   6     1.087793601999   110.31965003    63.47406258
 H      8   7   6     1.085181556618   109.21101517   183.22758835
 H     10   9   4     1.090396667738   109.52292042   311.13534206
 H     10   9   4     1.090171103604   106.64350053   190.15856651
 H     15  14  12     1.093520853230   108.80661870    22.13237807
 H     15  14  12     1.092100430474   104.64723362   139.24105225
 H     16  15  14     1.086739548767   110.18298105    63.89105759
 H     16  15  14     1.085513983888   109.15098061   184.03429748
 H     16  15  14     1.086515443233   109.93365643   303.94751044
 H     18  17  12     1.091562891282   104.43002550   214.83377371
 H     18  17  12     1.094636292703   108.76309234   331.47685330
 H     19  18  17     1.087485410147   110.72741624   295.53068259
 H     19  18  17     1.086289179032   110.08591191    55.82675444
 H     19  18  17     1.085239303786   108.96109869   175.60431995

---------------------------
INTERNAL COORDINATES (A.U.)
---------------------------
 C      0   0   0     0.000000000000     0.00000000     0.00000000
 C      1   0   0     2.860159604709     0.00000000     0.00000000
 O      2   1   0     2.730270343466   111.25828011     0.00000000
 P      3   2   1     2.988142587755   121.52001540    70.10067674
 S      4   3   2     3.710894692919   115.81177622    28.27515512
 O      4   3   2     3.000306699748   100.95570731   260.03919826
 C      6   4   3     2.724241827412   122.71085941   181.75451815
 C      7   6   4     2.866075910286   110.94754890   267.43932376
 S      4   3   2     4.005047612294   102.12886548   154.34230397
 C      9   4   3     3.426526977435    96.02277257   272.82304881
 S     10   9   4     3.413484015020   112.92474357    70.12175186
 P     11  10   9     4.040744003182    96.03269977    67.91190038
 S     12  11  10     3.691679995258   114.77274607    38.05113496
 O     12  11  10     2.975348912554   106.02607258   273.24873318
 C     14  12  11     2.738324523994   123.24916590   299.81140887
 C     15  14  12     2.861448946363   110.42814402   259.62461275
 O     12  11  10     3.001159380447   104.02173077   165.66808369
 C     17  12  11     2.724033032071   122.60995478   280.57094033
 C     18  17  12     2.864955904904   111.32955465    94.77993546
 H      1   2   3     2.051081050958   109.49246739   175.81095242
 H      1   2   3     2.058830305374   109.59425580   295.33587063
 H      1   2   3     2.053480230548   110.27783415    55.10779040
 H      2   1   3     2.060642867084   111.94452154   244.00603350
 H      2   1   3     2.068566402435   110.87399564   120.86483796
 H      7   6   4     2.067314104291   109.31865582    30.35623105
 H      7   6   4     2.062910519400   104.49385491   147.30424607
 H      8   7   6     2.052988393832   110.09713482   303.25147667
 H      8   7   6     2.055631998010   110.31965003    63.47406258
 H      8   7   6     2.050695947590   109.21101517   183.22758835
 H     10   9   4     2.060551079364   109.52292042   311.13534206
 H     10   9   4     2.060124824926   106.64350053   190.15856651
 H     15  14  12     2.066454934337   108.80661870    22.13237807
 H     15  14  12     2.063770724334   104.64723362   139.24105225
 H     16  15  14     2.053640126072   110.18298105    63.89105759
 H     16  15  14     2.051324144090   109.15098061   184.03429748
 H     16  15  14     2.053216627987   109.93365643   303.94751044
 H     18  17  12     2.062754922473   104.43002550   214.83377371
 H     18  17  12     2.068562809460   108.76309234   331.47685330
 H     19  18  17     2.055049599813   110.72741624   295.53068259
 H     19  18  17     2.052789050613   110.08591191    55.82675444
 H     19  18  17     2.050805073922   108.96109869   175.60431995

---------------------
BASIS SET INFORMATION
---------------------
There are 5 groups of distinct atoms

 Group   1 Type C   : 11s6p1d contracted to 5s3p1d pattern {62111/411/1}
 Group   2 Type O   : 11s6p2d contracted to 5s3p2d pattern {62111/411/11}
 Group   3 Type P   : 14s9p2d contracted to 5s4p2d pattern {73211/6111/11}
 Group   4 Type S   : 14s9p2d contracted to 5s4p2d pattern {73211/6111/11}
 Group   5 Type H   : 4s1p contracted to 2s1p pattern {31/1}

Atom   0C    basis set group =>   1
Atom   1C    basis set group =>   1
Atom   2O    basis set group =>   2
Atom   3P    basis set group =>   3
Atom   4S    basis set group =>   4
Atom   5O    basis set group =>   2
Atom   6C    basis set group =>   1
Atom   7C    basis set group =>   1
Atom   8S    basis set group =>   4
Atom   9C    basis set group =>   1
Atom  10S    basis set group =>   4
Atom  11P    basis set group =>   3
Atom  12S    basis set group =>   4
Atom  13O    basis set group =>   2
Atom  14C    basis set group =>   1
Atom  15C    basis set group =>   1
Atom  16O    basis set group =>   2
Atom  17C    basis set group =>   1
Atom  18C    basis set group =>   1
Atom  19H    basis set group =>   5
Atom  20H    basis set group =>   5
Atom  21H    basis set group =>   5
Atom  22H    basis set group =>   5
Atom  23H    basis set group =>   5
Atom  24H    basis set group =>   5
Atom  25H    basis set group =>   5
Atom  26H    basis set group =>   5
Atom  27H    basis set group =>   5
Atom  28H    basis set group =>   5
Atom  29H    basis set group =>   5
Atom  30H    basis set group =>   5
Atom  31H    basis set group =>   5
Atom  32H    basis set group =>   5
Atom  33H    basis set group =>   5
Atom  34H    basis set group =>   5
Atom  35H    basis set group =>   5
Atom  36H    basis set group =>   5
Atom  37H    basis set group =>   5
Atom  38H    basis set group =>   5
Atom  39H    basis set group =>   5
Atom  40H    basis set group =>   5
---------------------------------
AUXILIARY/J BASIS SET INFORMATION
---------------------------------
There are 5 groups of distinct atoms

 Group   1 Type C   : 12s5p4d2f1g contracted to 6s4p3d1f1g pattern {711111/2111/211/2/1}
 Group   2 Type O   : 12s5p4d2f1g contracted to 6s4p3d1f1g pattern {711111/2111/211/2/1}
 Group   3 Type P   : 14s5p5d2f1g contracted to 8s4p3d1f1g pattern {71111111/2111/311/2/1}
 Group   4 Type S   : 14s5p5d2f1g contracted to 8s4p3d1f1g pattern {71111111/2111/311/2/1}
 Group   5 Type H   : 5s2p1d contracted to 3s1p1d pattern {311/2/1}

Atom   0C    basis set group =>   1
Atom   1C    basis set group =>   1
Atom   2O    basis set group =>   2
Atom   3P    basis set group =>   3
Atom   4S    basis set group =>   4
Atom   5O    basis set group =>   2
Atom   6C    basis set group =>   1
Atom   7C    basis set group =>   1
Atom   8S    basis set group =>   4
Atom   9C    basis set group =>   1
Atom  10S    basis set group =>   4
Atom  11P    basis set group =>   3
Atom  12S    basis set group =>   4
Atom  13O    basis set group =>   2
Atom  14C    basis set group =>   1
Atom  15C    basis set group =>   1
Atom  16O    basis set group =>   2
Atom  17C    basis set group =>   1
Atom  18C    basis set group =>   1
Atom  19H    basis set group =>   5
Atom  20H    basis set group =>   5
Atom  21H    basis set group =>   5
Atom  22H    basis set group =>   5
Atom  23H    basis set group =>   5
Atom  24H    basis set group =>   5
Atom  25H    basis set group =>   5
Atom  26H    basis set group =>   5
Atom  27H    basis set group =>   5
Atom  28H    basis set group =>   5
Atom  29H    basis set group =>   5
Atom  30H    basis set group =>   5
Atom  31H    basis set group =>   5
Atom  32H    basis set group =>   5
Atom  33H    basis set group =>   5
Atom  34H    basis set group =>   5
Atom  35H    basis set group =>   5
Atom  36H    basis set group =>   5
Atom  37H    basis set group =>   5
Atom  38H    basis set group =>   5
Atom  39H    basis set group =>   5
Atom  40H    basis set group =>   5

Checking for AutoStart:
The File: sp_gas.gbw exists
Trying to determine its content:
     ... Fine, the file contains calculation information
     ... Fine, the calculation information was read
     ... Fine, the file contains a basis set
     ... Fine, the basis set was read
     ... Fine, the file contains a geometry
     ... Fine, the geometry was read
     ... Fine, the file contains a set of orbitals
     ... Fine, the orbitals can be read
     => possible old guess file was deleted
     => GBW file was renamed to GES file
     => GES file is set as startup file
     => Guess is set to MORead
     ... now leaving AutoStart

------------------------------------------------------------------------------
                             ORCA STARTUP CALCULATIONS
                           -- RI-GTO INTEGRALS CHOSEN --
------------------------------------------------------------------------------
------------------------------------------------------------------------------
                   ___                                                        
                  /   \      - P O W E R E D   B Y -                         
                 /     \                                                     
                 |  |  |   _    _      __       _____    __    __             
                 |  |  |  | |  | |    /  \     |  _  \  |  |  /  |          
                  \  \/   | |  | |   /    \    | | | |  |  | /  /          
                 / \  \   | |__| |  /  /\  \   | |_| |  |  |/  /          
                |  |  |   |  __  | /  /__\  \  |    /   |      \           
                |  |  |   | |  | | |   __   |  |    \   |  |\   \          
                \     /   | |  | | |  |  |  |  | |\  \  |  | \   \       
                 \___/    |_|  |_| |__|  |__|  |_| \__\ |__|  \__/        
                                                                              
                      - O R C A' S   B I G   F R I E N D -                    
                                      &                                       
                       - I N T E G R A L  F E E D E R -                       
                                                                              
 v1 FN, 2020, v2 2021, v3 2022-2024                                           
------------------------------------------------------------------------------


----------------------
SHARK INTEGRAL PACKAGE
----------------------

Number of atoms                             ...     41
Number of basis functions                   ...    539
Number of shells                            ...    253
Maximum angular momentum                    ...      2
Integral batch strategy                     ... SHARK/LIBINT Hybrid
RI-J (if used) integral strategy            ... SPLIT-RIJ (Revised 2003 algorithm where possible)
Printlevel                                  ...      1
Contraction scheme used                     ... SEGMENTED contraction
Prescreening option                         ... SCHWARTZ
   Thresh                                   ... 1.000e-10
   Tcut                                     ... 1.000e-11
   Tpresel                                  ... 1.000e-11 
Coulomb Range Separation                    ... NOT USED
Exchange Range Separation                   ... NOT USED
Multipole approximations                    ... NOT USED
Finite Nucleus Model                        ... NOT USED
CABS basis                                  ... NOT available
Auxiliary Coulomb fitting basis             ... AVAILABLE
   # of basis functions in Aux-J            ...   1185
   # of shells in Aux-J                     ...    407
   Maximum angular momentum in Aux-J        ...      4
Auxiliary J/K fitting basis                 ... NOT available
Auxiliary Correlation fitting basis         ... NOT available
Auxiliary 'external' fitting basis          ... NOT available

Checking pre-screening integrals            ... done (  0.0 sec) Dimension = 253
Check shell pair data                       ... done (  0.0 sec)
Shell pair information
Shell pair cut-off parameter TPreSel        ...   1.0e-11
Total number of shell pairs                 ...     32131
Shell pairs after pre-screening             ...     21111
Total number of primitive shell pairs       ...    124843
Primitive shell pairs kept                  ...     49412
          la=0 lb=0:   5946 shell pairs
          la=1 lb=0:   7681 shell pairs
          la=1 lb=1:   2517 shell pairs
          la=2 lb=0:   2810 shell pairs
          la=2 lb=1:   1811 shell pairs
          la=2 lb=2:    346 shell pairs

Calculating one electron integrals          ... done (  0.1 sec)
Calculating RI/J V-Matrix + Cholesky decomp.... done (  0.1 sec)
Calculating Nuclear repulsion               ... done (  0.0 sec) ENN=   2756.330085640882 Eh

Diagonalization of the overlap matrix:
Smallest eigenvalue                        ... 3.009e-04
Time for diagonalization                   ...    0.031 sec
Threshold for overlap eigenvalues          ... 1.000e-07
Number of eigenvalues below threshold      ... 0
Time for construction of square roots      ...    0.058 sec
Total time needed                          ...    0.103 sec

-------------------
DFT GRID GENERATION
-------------------

General Integration Accuracy     IntAcc      ... 4.388
Radial Grid Type                 RadialGrid  ... OptM3 with GC (2021)
Angular Grid (max. ang.)         AngularGrid ... 4 (Lebedev-302)
Angular grid pruning method      GridPruning ... 4 (adaptive)
Weight generation scheme         WeightScheme... mBecke (2022)
Basis function cutoff            BFCut       ... 1.0000e-10
Integration weight cutoff        WCut        ... 1.0000e-14
Partially contracted basis set               ... off
Rotationally invariant grid construction     ... off
Angular grids for H and He will be reduced by one unit
Diffuse basis detected: some atoms will have their outermost
                        angular grid increased by 1.

Total number of grid points                  ...   192651
Total number of batches                      ...     3030
Average number of points per batch           ...       63
Average number of grid points per atom       ...     4699
Initializing property integral containers    ... done (  0.0 sec)

SHARK setup successfully completed in   2.9 seconds

Maximum memory used throughout the entire STARTUP-calculation: 101.7 MB
-------------------------------------------------------------------------------
                                 ORCA GUESS
                   Start orbitals & Density for SCF / CASSCF
-------------------------------------------------------------------------------

------------
SCF SETTINGS
------------
Hamiltonian:
 Density Functional     Method          .... DFT(GTOs)
  Functional kind                       .... Exchange
  Functional name                       .... Re-regularized SCAN exchange by Furness et al
  Functional family                     .... MGGA
  Functional refs                              
    [ 0] J. W. Furness, A. D. Kaplan, J. Ning, J. P. Perdew, and J. Sun.,  J. Phys. Chem. Lett. 11, 8208-8215 (2020), doi: 10.1021/acs.jpclett.0c02405
    [ 1] J. W. Furness, A. D. Kaplan, J. Ning, J. P. Perdew, and J. Sun.,  J. Phys. Chem. Lett. 11, 9248-9248 (2020), doi: 10.1021/acs.jpclett.0c03077
  Functional external parameters        .... 6
    Parameter  0 _c1        =  6.670000e-01 : c1 parameter        
    Parameter  1 _c2        =  8.000000e-01 : c2 parameter        
    Parameter  2 _d         =  1.240000e+00 : d parameter         
    Parameter  3 _k1        =  6.500000e-02 : k1 parameter        
    Parameter  4 _eta       =  1.000000e-03 : eta parameter       
    Parameter  5 _dp2       =  3.610000e-01 : dp2 parameter       
  Functional kind                       .... Correlation
  Functional name                       .... Re-regularized SCAN correlation by Furness et al
  Functional family                     .... MGGA
  Functional refs                              
    [ 0] J. W. Furness, A. D. Kaplan, J. Ning, J. P. Perdew, and J. Sun.,  J. Phys. Chem. Lett. 11, 8208-8215 (2020), doi: 10.1021/acs.jpclett.0c02405
    [ 1] J. W. Furness, A. D. Kaplan, J. Ning, J. P. Perdew, and J. Sun.,  J. Phys. Chem. Lett. 11, 9248-9248 (2020), doi: 10.1021/acs.jpclett.0c03077
  Functional external parameters        .... 1
    Parameter  0 _eta       =  1.000000e-03 : Regularization parameter
 Gradients option       PostSCFGGA      .... off
 RI-approximation to the Coulomb term is turned on
   Number of AuxJ basis functions       .... 1185


General Settings:
 Integral files         IntName         .... sp_gas
 Hartree-Fock type      HFTyp           .... RHF
 Total Charge           Charge          ....    0
 Multiplicity           Mult            ....    1
 Number of Electrons    NEL             ....  202
 Basis Dimension        Dim             ....  539
 Nuclear Repulsion      ENuc            ....   2756.3300856409 Eh

Convergence Acceleration:
 AO-DIIS                CNVDIIS         .... on
   Start iteration      DIISMaxIt       ....    12
   Startup error        DIISStart       ....  0.200000
   # of expansion vecs  DIISMaxEq       ....     5
   Bias factor          DIISBfac        ....   1.050
   Max. coefficient     DIISMaxC        ....  10.000
 MO-DIIS                CNVKDIIS        .... off
 Trust-Rad. Augm. Hess. CNVTRAH         .... auto
   Auto Start mean grad. ratio tolernc. ....  1.125000
   Auto Start start iteration           ....     1
   Auto Start num. interpolation iter.  ....    10
   Max. Number of Micro iterations      ....    24
   Max. Number of Macro iterations      .... Maxiter - #DIIS iter
   Number of Davidson start vectors     ....     2
   Converg. threshold    (grad. norm)   ....   3.330e-04
   Grad. Scal. Fac. for Micro threshold ....   0.100
   Minimum threshold for Micro iter.    ....   1.000e-02
   NR start threshold (gradient norm)   ....   1.000e-04
   Initial trust radius                 ....   0.400
   Minimum AH scaling param. (alpha)    ....   1.000
   Maximum AH scaling param. (alpha)    .... 1000.000
   Quad. conv. algorithm                .... NR
   White noise on init. David. guess    .... on
   Maximum white noise                  ....   0.010
   Pseudo random numbers                .... off
   Inactive MOs                         .... canonical
   Orbital update algorithm             .... Taylor
   Preconditioner                       .... Diag
   Full preconditioner red. dimension   ....   250
   COSX micro iterations for RIJONX calc.... off
 SOSCF                  CNVSOSCF        .... on
   Start iteration      SOSCFMaxIt      ....   150
   Startup grad/error   SOSCFStart      ....  0.003300
   Hessian update       SOSCFHessUp     .... L-BFGS
 Level Shifting         CNVShift        .... on
   Level shift para.    LevelShift      ....    0.2500
   Turn off err/grad.   ShiftErr        ....    0.0010
 Zerner damping         CNVZerner       .... off
 Static damping         CNVDamp         .... on
   Fraction old density DampFac         ....    0.7000
   Max. Damping (<1)    DampMax         ....    0.9800
   Min. Damping (>=0)   DampMin         ....    0.0000
   Turn off err/grad.   DampErr         ....    0.1000

SCF Procedure:
 Maximum # iterations   MaxIter         ....   125
 SCF integral mode      SCFMode         .... Direct
   Integral package                     .... SHARK and LIBINT hybrid scheme
 Reset frequency        DirectResetFreq ....    20
 Integral Threshold     Thresh          ....  1.000e-10 Eh
 Primitive CutOff       TCut            ....  1.000e-11 Eh

Convergence Tolerance:
 Convergence Check Mode ConvCheckMode   .... Total+1el-Energy
 Convergence forced     ConvForced      .... 0
 Energy Change          TolE            ....  1.000e-06 Eh
 1-El. energy change                    ....  1.000e-03 Eh
 Orbital Gradient       TolG            ....  3.330e-04
 Orbital Rotation angle TolX            ....  3.330e-04
 DIIS Error             TolErr          ....  1.000e-06

---------------------
INITIAL GUESS: MOREAD
---------------------
Guess MOs are being read from file: sp_gas.ges
Input Geometry matches current geometry (good)
Atom 0: N(Shells)= 9 and 6 - projection required
Input basis set needs projection
NBasis(read)= 334
NBasis(calc)= 539
Basis set overlap was calculated
Using GuessMode=FMatrix for the initial guess
C*T matrix was formed
Effective Fockian was calculated
Effective Fockian was diagonalized
Initial density was built
                      ------------------
                      INITIAL GUESS DONE (   0.2 sec)
                      ------------------
             **** ENERGY FILE WAS UPDATED (sp_gas.en.tmp) ****
Finished Guess after   0.5 sec
Maximum memory used throughout the entire GUESS-calculation: 58.5 MB

-------------------------------------------------------------------------------------------
                                      ORCA LEAN-SCF
                              memory conserving SCF solver
-------------------------------------------------------------------------------------------

----------------------------------------D-I-I-S--------------------------------------------
Iteration    Energy (Eh)           Delta-E    RMSDP     MaxDP     DIISErr   Damp  Time(sec)
-------------------------------------------------------------------------------------------
               ***  Starting incremental Fock matrix formation  ***
    1    -2932.0097211869469902     0.00e+00  2.07e-03  9.35e-02  6.34e-01  0.700   8.7
    2    -2932.1521726013579610    -1.42e-01  1.70e-03  7.59e-02  4.46e-01  0.700   7.4
    3    -2932.2528081133759770    -1.01e-01  1.25e-03  5.53e-02  3.13e-01  0.700   7.1
    4    -2932.3234117637412055    -7.06e-02  9.00e-04  3.94e-02  2.19e-01  0.700   7.0
                               ***Turning on AO-DIIS***
    5    -2932.3729101797071053    -4.95e-02  6.52e-04  2.82e-02  1.53e-01  0.700   6.8
    6    -2932.4075935082328215    -3.47e-02  4.62e-04  1.99e-02  1.07e-01  0.700   6.9
    7    -2932.4319016342624309    -2.43e-02  3.25e-04  1.40e-02  7.50e-02  0.700   6.8
    8    -2932.4489302234524075    -1.70e-02  7.63e-04  3.28e-02  5.26e-02  0.000   6.6
                              *** Initializing SOSCF ***
---------------------------------------S-O-S-C-F--------------------------------------
Iteration    Energy (Eh)           Delta-E    RMSDP     MaxDP     MaxGrad    Time(sec)
--------------------------------------------------------------------------------------
    9    -2932.4887060563523846    -3.98e-02  5.17e-06  1.97e-04  1.50e-04     7.2
               *** Restarting incremental Fock matrix formation ***
   10    -2932.4887064565809851    -4.00e-07  4.67e-06  1.84e-04  3.13e-05     8.8
                  *** Gradient check signals convergence ***

               *****************************************************
               *                     SUCCESS                       *
               *           SCF CONVERGED AFTER  10 CYCLES          *
               *****************************************************

             **** ENERGY FILE WAS UPDATED (sp_gas.en.tmp) ****

----------------
TOTAL SCF ENERGY
----------------

Total Energy       :      -2932.48870645658099 Eh          -79797.07451 eV

Components:
Nuclear Repulsion  :       2756.33008564088232 Eh           75003.55474 eV
Electronic Energy  :      -5688.81879209746330 Eh         -154800.62924 eV
One Electron Energy:      -9533.45433784167835 Eh         -259418.48111 eV
Two Electron Energy:       3844.63554574421460 Eh          104617.85187 eV

Virial components:
Potential Energy   :      -5856.15793288921122 Eh         -159354.15876 eV
Kinetic Energy     :       2923.66922643262978 Eh           79557.08426 eV
Virial Ratio       :          2.00301657928476

DFT components:
N(Alpha)           :      100.999977113065 electrons
N(Beta)            :      100.999977113065 electrons
N(Total)           :      201.999954226131 electrons
E(X)               :     -233.537749178291 Eh       
E(C)               :       -7.118669946257 Eh       
E(XC)              :     -240.656419124548 Eh       

---------------
SCF CONVERGENCE
---------------

  Last Energy change         ...    4.0023e-07  Tolerance :   1.0000e-06
  Last MAX-Density change    ...    1.8350e-04  Tolerance :   1.0000e-05
  Last RMS-Density change    ...    4.6672e-06  Tolerance :   1.0000e-06
  Last DIIS Error            ...    1.5044e-04  Tolerance :   1.0000e-06
  Last Orbital Gradient      ...    3.1279e-05  Tolerance :   3.3300e-04
  Last Orbital Rotation      ...    8.0157e-05  Tolerance :   3.3300e-04


----------------
ORBITAL ENERGIES
----------------

  NO   OCC          E(Eh)            E(eV) 
   0   2.0000     -88.573886     -2410.2180 
   1   2.0000     -88.572857     -2410.1900 
   2   2.0000     -88.523443     -2408.8453 
   3   2.0000     -88.518048     -2408.6985 
   4   2.0000     -76.916228     -2092.9970 
   5   2.0000     -76.913155     -2092.9133 
   6   2.0000     -18.996205      -516.9130 
   7   2.0000     -18.995818      -516.9025 
   8   2.0000     -18.993650      -516.8435 
   9   2.0000     -18.988894      -516.7141 
  10   2.0000     -10.103518      -274.9307 
  11   2.0000     -10.101783      -274.8835 
  12   2.0000     -10.101586      -274.8781 
  13   2.0000     -10.100918      -274.8600 
  14   2.0000     -10.099816      -274.8300 
  15   2.0000     -10.032199      -272.9900 
  16   2.0000     -10.032000      -272.9846 
  17   2.0000     -10.030659      -272.9481 
  18   2.0000     -10.028496      -272.8893 
  19   2.0000      -7.867962      -214.0981 
  20   2.0000      -7.867198      -214.0773 
  21   2.0000      -7.818335      -212.7477 
  22   2.0000      -7.812888      -212.5995 
  23   2.0000      -6.594750      -179.4523 
  24   2.0000      -6.591624      -179.3672 
  25   2.0000      -5.814846      -158.2300 
  26   2.0000      -5.813951      -158.2057 
  27   2.0000      -5.811829      -158.1479 
  28   2.0000      -5.811030      -158.1262 
  29   2.0000      -5.805103      -157.9649 
  30   2.0000      -5.804458      -157.9473 
  31   2.0000      -5.765889      -156.8978 
  32   2.0000      -5.760595      -156.7538 
  33   2.0000      -5.758566      -156.6986 
  34   2.0000      -5.758462      -156.6957 
  35   2.0000      -5.753096      -156.5497 
  36   2.0000      -5.752878      -156.5438 
  37   2.0000      -4.740190      -128.9871 
  38   2.0000      -4.739690      -128.9735 
  39   2.0000      -4.738519      -128.9417 
  40   2.0000      -4.737508      -128.9141 
  41   2.0000      -4.736541      -128.8878 
  42   2.0000      -4.735016      -128.8463 
  43   2.0000      -1.053818       -28.6758 
  44   2.0000      -1.052229       -28.6326 
  45   2.0000      -1.014704       -27.6115 
  46   2.0000      -1.010778       -27.5047 
  47   2.0000      -0.800662       -21.7871 
  48   2.0000      -0.759696       -20.6724 
  49   2.0000      -0.751190       -20.4409 
  50   2.0000      -0.736276       -20.0351 
  51   2.0000      -0.734068       -19.9750 
  52   2.0000      -0.711157       -19.3516 
  53   2.0000      -0.686125       -18.6704 
  54   2.0000      -0.668502       -18.1909 
  55   2.0000      -0.632453       -17.2099 
  56   2.0000      -0.624881       -17.0039 
  57   2.0000      -0.607105       -16.5202 
  58   2.0000      -0.605680       -16.4814 
  59   2.0000      -0.592625       -16.1262 
  60   2.0000      -0.532319       -14.4851 
  61   2.0000      -0.522838       -14.2271 
  62   2.0000      -0.500125       -13.6091 
  63   2.0000      -0.498340       -13.5605 
  64   2.0000      -0.476415       -12.9639 
  65   2.0000      -0.467255       -12.7147 
  66   2.0000      -0.460351       -12.5268 
  67   2.0000      -0.453176       -12.3315 
  68   2.0000      -0.448149       -12.1948 
  69   2.0000      -0.427496       -11.6327 
  70   2.0000      -0.425037       -11.5658 
  71   2.0000      -0.413513       -11.2523 
  72   2.0000      -0.411397       -11.1947 
  73   2.0000      -0.407145       -11.0790 
  74   2.0000      -0.400829       -10.9071 
  75   2.0000      -0.390683       -10.6310 
  76   2.0000      -0.381865       -10.3911 
  77   2.0000      -0.378253       -10.2928 
  78   2.0000      -0.370827       -10.0907 
  79   2.0000      -0.370519       -10.0823 
  80   2.0000      -0.363509        -9.8916 
  81   2.0000      -0.361290        -9.8312 
  82   2.0000      -0.358508        -9.7555 
  83   2.0000      -0.353852        -9.6288 
  84   2.0000      -0.350704        -9.5431 
  85   2.0000      -0.339380        -9.2350 
  86   2.0000      -0.326381        -8.8813 
  87   2.0000      -0.314563        -8.5597 
  88   2.0000      -0.311292        -8.4707 
  89   2.0000      -0.308545        -8.3959 
  90   2.0000      -0.305111        -8.3025 
  91   2.0000      -0.294586        -8.0161 
  92   2.0000      -0.287037        -7.8107 
  93   2.0000      -0.281412        -7.6576 
  94   2.0000      -0.272555        -7.4166 
  95   2.0000      -0.246224        -6.7001 
  96   2.0000      -0.232847        -6.3361 
  97   2.0000      -0.225835        -6.1453 
  98   2.0000      -0.217268        -5.9122 
  99   2.0000      -0.215122        -5.8538 
 100   2.0000      -0.211327        -5.7505 
 101   0.0000      -0.045102        -1.2273 
 102   0.0000      -0.022707        -0.6179 
 103   0.0000      -0.002707        -0.0737 
 104   0.0000      -0.000441        -0.0120 
 105   0.0000       0.015470         0.4210 
 106   0.0000       0.029036         0.7901 
 107   0.0000       0.030815         0.8385 
 108   0.0000       0.040358         1.0982 
 109   0.0000       0.048584         1.3220 
 110   0.0000       0.062734         1.7071 
 111   0.0000       0.074676         2.0320 
*Only the first 10 virtual orbitals were printed.

                    ********************************
                    * MULLIKEN POPULATION ANALYSIS *
                    ********************************

-----------------------
MULLIKEN ATOMIC CHARGES
-----------------------
   0 C :   -0.442339
   1 C :   -0.149464
   2 O :   -0.251402
   3 P :    0.663854
   4 S :   -0.486354
   5 O :   -0.299737
   6 C :   -0.132373
   7 C :   -0.456651
   8 S :   -0.120507
   9 C :   -0.226838
  10 S :   -0.183060
  11 P :    0.657547
  12 S :   -0.445281
  13 O :   -0.253827
  14 C :   -0.096071
  15 C :   -0.485874
  16 O :   -0.288227
  17 C :   -0.166168
  18 C :   -0.440770
  19 H :    0.148036
  20 H :    0.170457
  21 H :    0.155993
  22 H :    0.145676
  23 H :    0.176975
  24 H :    0.155534
  25 H :    0.151919
  26 H :    0.151581
  27 H :    0.182134
  28 H :    0.146348
  29 H :    0.212835
  30 H :    0.217609
  31 H :    0.154102
  32 H :    0.170080
  33 H :    0.165627
  34 H :    0.143969
  35 H :    0.160197
  36 H :    0.150374
  37 H :    0.174065
  38 H :    0.168205
  39 H :    0.153557
  40 H :    0.148268
Sum of atomic charges:    0.0000000

--------------------------------
MULLIKEN REDUCED ORBITAL CHARGES
--------------------------------
  0 C s       :     3.312850  s :     3.312850
      pz      :     1.064206  p :     3.103671
      px      :     0.956902
      py      :     1.082564
      dz2     :     0.005679  d :     0.025818
      dxz     :     0.005313
      dyz     :     0.002693
      dx2y2   :     0.007654
      dxy     :     0.004479

  1 C s       :     3.284721  s :     3.284721
      pz      :     0.733519  p :     2.810412
      px      :     1.008651
      py      :     1.068242
      dz2     :     0.014453  d :     0.054331
      dxz     :     0.013672
      dyz     :     0.010161
      dx2y2   :     0.010302
      dxy     :     0.005743

  2 O s       :     3.730169  s :     3.730169
      pz      :     1.122287  p :     4.507789
      px      :     1.690356
      py      :     1.695147
      dz2     :    -0.014883  d :     0.013443
      dxz     :     0.012407
      dyz     :    -0.000736
      dx2y2   :     0.008241
      dxy     :     0.008414

  3 P s       :     5.139716  s :     5.139716
      pz      :     2.839379  p :     8.473565
      px      :     2.806326
      py      :     2.827860
      dz2     :     0.110123  d :     0.722865
      dxz     :     0.112523
      dyz     :     0.180663
      dx2y2   :     0.148123
      dxy     :     0.171433

  4 S s       :     5.917727  s :     5.917727
      pz      :     3.686527  p :    10.500697
      px      :     3.645864
      py      :     3.168306
      dz2     :     0.009398  d :     0.067930
      dxz     :     0.003104
      dyz     :     0.014702
      dx2y2   :     0.023027
      dxy     :     0.017699

  5 O s       :     3.742552  s :     3.742552
      pz      :     1.576106  p :     4.535031
      px      :     1.332016
      py      :     1.626909
      dz2     :     0.003554  d :     0.022154
      dxz     :     0.005398
      dyz     :     0.006590
      dx2y2   :     0.001896
      dxy     :     0.004718

  6 C s       :     3.273825  s :     3.273825
      pz      :     0.880137  p :     2.803957
      px      :     0.832358
      py      :     1.091461
      dz2     :     0.010857  d :     0.054591
      dxz     :     0.016008
      dyz     :     0.006985
      dx2y2   :     0.011627
      dxy     :     0.009113

  7 C s       :     3.321977  s :     3.321977
      pz      :     1.068326  p :     3.109138
      px      :     0.968220
      py      :     1.072592
      dz2     :     0.003957  d :     0.025536
      dxz     :     0.007376
      dyz     :     0.003316
      dx2y2   :     0.006035
      dxy     :     0.004852

  8 S s       :     5.913669  s :     5.913669
      pz      :     3.451050  p :    10.100182
      px      :     3.320475
      py      :     3.328656
      dz2     :     0.018124  d :     0.106656
      dxz     :     0.025539
      dyz     :     0.016832
      dx2y2   :     0.019648
      dxy     :     0.026512

  9 C s       :     3.169485  s :     3.169485
      pz      :     1.018398  p :     3.021375
      px      :     1.003154
      py      :     0.999824
      dz2     :     0.008178  d :     0.035978
      dxz     :     0.009384
      dyz     :     0.003544
      dx2y2   :     0.005502
      dxy     :     0.009369

 10 S s       :     5.915664  s :     5.915664
      pz      :     3.362625  p :    10.161676
      px      :     3.306848
      py      :     3.492202
      dz2     :     0.021521  d :     0.105721
      dxz     :     0.028870
      dyz     :     0.016990
      dx2y2   :     0.014275
      dxy     :     0.024064

 11 P s       :     5.182698  s :     5.182698
      pz      :     2.813098  p :     8.430024
      px      :     2.786699
      py      :     2.830227
      dz2     :     0.125050  d :     0.729731
      dxz     :     0.181983
      dyz     :     0.179244
      dx2y2   :     0.128117
      dxy     :     0.115337

 12 S s       :     5.901827  s :     5.901827
      pz      :     3.141148  p :    10.478130
      px      :     3.651764
      py      :     3.685217
      dz2     :     0.030721  d :     0.065325
      dxz     :     0.016477
      dyz     :     0.013437
      dx2y2   :     0.002319
      dxy     :     0.002371

 13 O s       :     3.734364  s :     3.734364
      pz      :     1.310454  p :     4.515152
      px      :     1.713780
      py      :     1.490919
      dz2     :    -0.001715  d :     0.004312
      dxz     :    -0.000170
      dyz     :    -0.004678
      dx2y2   :     0.007583
      dxy     :     0.003292

 14 C s       :     3.265759  s :     3.265759
      pz      :     0.716926  p :     2.776495
      px      :     1.029030
      py      :     1.030539
      dz2     :     0.016341  d :     0.053817
      dxz     :     0.009695
      dyz     :     0.012317
      dx2y2   :     0.008142
      dxy     :     0.007322

 15 C s       :     3.349718  s :     3.349718
      pz      :     1.061796  p :     3.110388
      px      :     1.015582
      py      :     1.033010
      dz2     :     0.005684  d :     0.025768
      dxz     :     0.002799
      dyz     :     0.005053
      dx2y2   :     0.005990
      dxy     :     0.006242

 16 O s       :     3.731706  s :     3.731706
      pz      :     1.674804  p :     4.535307
      px      :     1.255539
      py      :     1.604965
      dz2     :     0.001382  d :     0.021214
      dxz     :     0.001226
      dyz     :     0.005997
      dx2y2   :     0.002627
      dxy     :     0.009981

 17 C s       :     3.297405  s :     3.297405
      pz      :     1.073209  p :     2.814329
      px      :     0.867951
      py      :     0.873169
      dz2     :     0.012061  d :     0.054435
      dxz     :     0.005608
      dyz     :     0.008800
      dx2y2   :     0.011540
      dxy     :     0.016425

 18 C s       :     3.309732  s :     3.309732
      pz      :     1.032440  p :     3.105364
      px      :     1.097064
      py      :     0.975859
      dz2     :     0.007847  d :     0.025674
      dxz     :     0.001621
      dyz     :     0.005415
      dx2y2   :     0.003659
      dxy     :     0.007132

 19 H s       :     0.833474  s :     0.833474
      pz      :     0.010368  p :     0.018490
      px      :     0.003646
      py      :     0.004476

 20 H s       :     0.811104  s :     0.811104
      pz      :     0.005782  p :     0.018440
      px      :     0.007536
      py      :     0.005121

 21 H s       :     0.825861  s :     0.825861
      pz      :     0.003520  p :     0.018146
      px      :     0.003715
      py      :     0.010911

 22 H s       :     0.836858  s :     0.836858
      pz      :     0.004641  p :     0.017466
      px      :     0.008161
      py      :     0.004664

 23 H s       :     0.805076  s :     0.805076
      pz      :     0.002353  p :     0.017949
      px      :     0.003449
      py      :     0.012148

 24 H s       :     0.826607  s :     0.826607
      pz      :     0.009003  p :     0.017859
      px      :     0.003848
      py      :     0.005009

 25 H s       :     0.830712  s :     0.830712
      pz      :     0.003211  p :     0.017369
      px      :     0.003251
      py      :     0.010907

 26 H s       :     0.830155  s :     0.830155
      pz      :     0.008918  p :     0.018264
      px      :     0.004489
      py      :     0.004858

 27 H s       :     0.799176  s :     0.799176
      pz      :     0.003836  p :     0.018690
      px      :     0.004069
      py      :     0.010785

 28 H s       :     0.835159  s :     0.835159
      pz      :     0.007128  p :     0.018492
      px      :     0.007601
      py      :     0.003764

 29 H s       :     0.767660  s :     0.767660
      pz      :     0.003413  p :     0.019505
      px      :     0.007079
      py      :     0.009012

 30 H s       :     0.762900  s :     0.762900
      pz      :     0.009468  p :     0.019491
      px      :     0.006713
      py      :     0.003309

 31 H s       :     0.827887  s :     0.827887
      pz      :     0.004732  p :     0.018011
      px      :     0.003445
      py      :     0.009834

 32 H s       :     0.812466  s :     0.812466
      pz      :     0.002186  p :     0.017454
      px      :     0.010668
      py      :     0.004601

 33 H s       :     0.816083  s :     0.816083
      pz      :     0.003541  p :     0.018289
      px      :     0.009789
      py      :     0.004960

 34 H s       :     0.837587  s :     0.837587
      pz      :     0.010322  p :     0.018444
      px      :     0.003936
      py      :     0.004185

 35 H s       :     0.821598  s :     0.821598
      pz      :     0.005801  p :     0.018205
      px      :     0.003567
      py      :     0.008836

 36 H s       :     0.832208  s :     0.832208
      pz      :     0.004140  p :     0.017418
      px      :     0.008640
      py      :     0.004639

 37 H s       :     0.807782  s :     0.807782
      pz      :     0.012193  p :     0.018153
      px      :     0.002759
      py      :     0.003201

 38 H s       :     0.813071  s :     0.813071
      pz      :     0.004210  p :     0.018724
      px      :     0.009217
      py      :     0.005297

 39 H s       :     0.828213  s :     0.828213
      pz      :     0.010653  p :     0.018229
      px      :     0.003742
      py      :     0.003835

 40 H s       :     0.833245  s :     0.833245
      pz      :     0.003778  p :     0.018486
      px      :     0.008143
      py      :     0.006565


------------------------
MULLIKEN OVERLAP CHARGES
------------------------
B(  0-C ,  1-C ) :   0.3811 B(  0-C ,  2-O ) :  -0.1539 B(  0-C ,  5-O ) :   0.0548 
B(  0-C , 19-H ) :   0.7960 B(  0-C , 20-H ) :   0.8187 B(  0-C , 21-H ) :   0.8128 
B(  0-C , 23-H ) :  -0.0999 B(  1-C ,  2-O ) :   0.2499 B(  1-C ,  3-P ) :  -0.1710 
B(  1-C , 19-H ) :  -0.0678 B(  1-C , 20-H ) :  -0.0672 B(  1-C , 21-H ) :  -0.0647 
B(  1-C , 22-H ) :   0.7994 B(  1-C , 23-H ) :   0.8676 B(  2-O ,  3-P ) :   0.5620 
B(  2-O ,  4-S ) :  -0.0951 B(  2-O ,  5-O ) :  -0.2162 B(  2-O ,  8-S ) :  -0.1398 
B(  2-O , 14-C ) :   0.0575 B(  2-O , 22-H ) :  -0.1019 B(  2-O , 23-H ) :  -0.0710 
B(  3-P ,  4-S ) :   1.2014 B(  3-P ,  5-O ) :   0.5105 B(  3-P ,  6-C ) :  -0.1435 
B(  3-P ,  8-S ) :   0.8012 B(  3-P ,  9-C ) :  -0.1113 B(  4-S ,  5-O ) :  -0.0817 
B(  4-S ,  8-S ) :  -0.1087 B(  5-O ,  6-C ) :   0.2643 B(  5-O ,  7-C ) :  -0.1109 
B(  5-O ,  8-S ) :  -0.1080 B(  5-O , 24-H ) :  -0.0764 B(  5-O , 25-H ) :  -0.0998 
B(  6-C ,  7-C ) :   0.5474 B(  6-C , 24-H ) :   0.8468 B(  6-C , 25-H ) :   0.8211 
B(  6-C , 26-H ) :  -0.0725 B(  6-C , 27-H ) :  -0.0664 B(  6-C , 28-H ) :  -0.0764 
B(  7-C , 24-H ) :  -0.0763 B(  7-C , 25-H ) :  -0.0633 B(  7-C , 26-H ) :   0.8341 
B(  7-C , 27-H ) :   0.8297 B(  7-C , 28-H ) :   0.8039 B(  8-S ,  9-C ) :   0.3968 
B(  8-S , 10-S ) :  -0.1698 B(  8-S , 29-H ) :  -0.0555 B(  8-S , 30-H ) :  -0.0728 
B(  9-C , 10-S ) :   0.3814 B(  9-C , 11-P ) :  -0.0980 B(  9-C , 29-H ) :   0.7947 
B(  9-C , 30-H ) :   0.7898 B( 10-S , 11-P ) :   0.5826 B( 10-S , 12-S ) :  -0.1111 
B( 10-S , 13-O ) :  -0.1228 B( 10-S , 16-O ) :  -0.0836 B( 10-S , 17-C ) :   0.0547 
B( 10-S , 29-H ) :  -0.0806 B( 10-S , 30-H ) :  -0.0622 B( 11-P , 12-S ) :   1.3549 
B( 11-P , 13-O ) :   0.6395 B( 11-P , 14-C ) :  -0.2656 B( 11-P , 16-O ) :   0.4282 
B( 11-P , 17-C ) :  -0.1750 B( 12-S , 13-O ) :  -0.1280 B( 12-S , 16-O ) :  -0.0934 
B( 13-O , 14-C ) :   0.2301 B( 13-O , 15-C ) :  -0.0800 B( 13-O , 16-O ) :  -0.2111 
B( 13-O , 31-H ) :  -0.0805 B( 13-O , 32-H ) :  -0.0821 B( 14-C , 15-C ) :   0.4777 
B( 14-C , 31-H ) :   0.8592 B( 14-C , 32-H ) :   0.8009 B( 14-C , 33-H ) :  -0.0791 
B( 14-C , 34-H ) :  -0.0822 B( 14-C , 35-H ) :  -0.0634 B( 15-C , 31-H ) :  -0.0934 
B( 15-C , 32-H ) :  -0.0638 B( 15-C , 33-H ) :   0.8358 B( 15-C , 34-H ) :   0.8136 
B( 15-C , 35-H ) :   0.8269 B( 16-O , 17-C ) :   0.2645 B( 16-O , 18-C ) :  -0.0948 
B( 16-O , 36-H ) :  -0.1000 B( 16-O , 37-H ) :  -0.0837 B( 17-C , 18-C ) :   0.5104 
B( 17-C , 36-H ) :   0.8221 B( 17-C , 37-H ) :   0.8480 B( 17-C , 38-H ) :  -0.0608 
B( 17-C , 39-H ) :  -0.0744 B( 17-C , 40-H ) :  -0.0720 B( 18-C , 36-H ) :  -0.0665 
B( 18-C , 37-H ) :  -0.0742 B( 18-C , 38-H ) :   0.8189 B( 18-C , 39-H ) :   0.8379 
B( 18-C , 40-H ) :   0.8021 B( 24-H , 25-H ) :  -0.0519 


                     *******************************
                     * LOEWDIN POPULATION ANALYSIS *
                     *******************************

----------------------
LOEWDIN ATOMIC CHARGES
----------------------
   0 C :   -0.398845
   1 C :    0.014930
   2 O :   -0.676410
   3 P :    0.376942
   4 S :   -0.135485
   5 O :   -0.659245
   6 C :    0.023778
   7 C :   -0.401571
   8 S :    0.177052
   9 C :   -0.425648
  10 S :    0.135473
  11 P :    0.378723
  12 S :   -0.104936
  13 O :   -0.648425
  14 C :    0.020235
  15 C :   -0.392331
  16 O :   -0.670039
  17 C :    0.022769
  18 C :   -0.402717
  19 H :    0.159928
  20 H :    0.166477
  21 H :    0.160318
  22 H :    0.177026
  23 H :    0.182383
  24 H :    0.176660
  25 H :    0.179744
  26 H :    0.157896
  27 H :    0.168890
  28 H :    0.158792
  29 H :    0.191746
  30 H :    0.192595
  31 H :    0.175441
  32 H :    0.187070
  33 H :    0.165416
  34 H :    0.157813
  35 H :    0.162984
  36 H :    0.179126
  37 H :    0.182623
  38 H :    0.164560
  39 H :    0.158083
  40 H :    0.160180

-------------------------------
LOEWDIN REDUCED ORBITAL CHARGES
-------------------------------
  0 C s       :     2.974698  s :     2.974698
      pz      :     1.129443  p :     3.363192
      px      :     1.079345
      py      :     1.154405
      dz2     :     0.014418  d :     0.060955
      dxz     :     0.011935
      dyz     :     0.006364
      dx2y2   :     0.018170
      dxy     :     0.010069

  1 C s       :     2.876675  s :     2.876675
      pz      :     0.837546  p :     2.986735
      px      :     1.072254
      py      :     1.076936
      dz2     :     0.032044  d :     0.121660
      dxz     :     0.032133
      dyz     :     0.022298
      dx2y2   :     0.024687
      dxy     :     0.010499

  2 O s       :     3.466126  s :     3.466126
      pz      :     1.372730  p :     4.728064
      px      :     1.677054
      py      :     1.678279
      dz2     :     0.148232  d :     0.482221
      dxz     :     0.126923
      dyz     :     0.112148
      dx2y2   :     0.047293
      dxy     :     0.047624

  3 P s       :     4.651940  s :     4.651940
      pz      :     2.779748  p :     8.392435
      px      :     2.744654
      py      :     2.868033
      dz2     :     0.277120  d :     1.578684
      dxz     :     0.310997
      dyz     :     0.308684
      dx2y2   :     0.314238
      dxy     :     0.367644

  4 S s       :     5.567288  s :     5.567288
      pz      :     3.618136  p :    10.426818
      px      :     3.583729
      py      :     3.224952
      dz2     :     0.023417  d :     0.141379
      dxz     :     0.007287
      dyz     :     0.024191
      dx2y2   :     0.052380
      dxy     :     0.034104

  5 O s       :     3.467050  s :     3.467050
      pz      :     1.588882  p :     4.730924
      px      :     1.481489
      py      :     1.660553
      dz2     :     0.088648  d :     0.461271
      dxz     :     0.112431
      dyz     :     0.064941
      dx2y2   :     0.091867
      dxy     :     0.103385

  6 C s       :     2.874961  s :     2.874961
      pz      :     0.945842  p :     2.978942
      px      :     0.934406
      py      :     1.098694
      dz2     :     0.024541  d :     0.122319
      dxz     :     0.035629
      dyz     :     0.016489
      dx2y2   :     0.025091
      dxy     :     0.020570

  7 C s       :     2.976365  s :     2.976365
      pz      :     1.144526  p :     3.364843
      px      :     1.074732
      py      :     1.145585
      dz2     :     0.009491  d :     0.060363
      dxz     :     0.018509
      dyz     :     0.008028
      dx2y2   :     0.013739
      dxy     :     0.010597

  8 S s       :     5.441491  s :     5.441491
      pz      :     3.429821  p :    10.082962
      px      :     3.297255
      py      :     3.355886
      dz2     :     0.045554  d :     0.298495
      dxz     :     0.076131
      dyz     :     0.041620
      dx2y2   :     0.054785
      dxy     :     0.080405

  9 C s       :     3.011283  s :     3.011283
      pz      :     1.111980  p :     3.330485
      px      :     1.115680
      py      :     1.102825
      dz2     :     0.020181  d :     0.083880
      dxz     :     0.022879
      dyz     :     0.006451
      dx2y2   :     0.011629
      dxy     :     0.022740

 10 S s       :     5.443703  s :     5.443703
      pz      :     3.381909  p :    10.116389
      px      :     3.278012
      py      :     3.456468
      dz2     :     0.066634  d :     0.304435
      dxz     :     0.084893
      dyz     :     0.044115
      dx2y2   :     0.034866
      dxy     :     0.073927

 11 P s       :     4.651728  s :     4.651728
      pz      :     2.878976  p :     8.386166
      px      :     2.741839
      py      :     2.765351
      dz2     :     0.345728  d :     1.583383
      dxz     :     0.357677
      dyz     :     0.304551
      dx2y2   :     0.266215
      dxy     :     0.309212

 12 S s       :     5.561728  s :     5.561728
      pz      :     3.202875  p :    10.407731
      px      :     3.583518
      py      :     3.621337
      dz2     :     0.075051  d :     0.135477
      dxz     :     0.028793
      dyz     :     0.022572
      dx2y2   :     0.003260
      dxy     :     0.005801

 13 O s       :     3.466985  s :     3.466985
      pz      :     1.445815  p :     4.718110
      px      :     1.680043
      py      :     1.592252
      dz2     :     0.120224  d :     0.463330
      dxz     :     0.093749
      dyz     :     0.120758
      dx2y2   :     0.065524
      dxy     :     0.063075

 14 C s       :     2.876126  s :     2.876126
      pz      :     0.823518  p :     2.982989
      px      :     1.078848
      py      :     1.080623
      dz2     :     0.037132  d :     0.120651
      dxz     :     0.019877
      dyz     :     0.029973
      dx2y2   :     0.016512
      dxy     :     0.017157

 15 C s       :     2.973396  s :     2.973396
      pz      :     1.123137  p :     3.358056
      px      :     1.115612
      py      :     1.119306
      dz2     :     0.014532  d :     0.060879
      dxz     :     0.005899
      dyz     :     0.012222
      dx2y2   :     0.013608
      dxy     :     0.014618

 16 O s       :     3.464938  s :     3.464938
      pz      :     1.681228  p :     4.736993
      px      :     1.451848
      py      :     1.603917
      dz2     :     0.082523  d :     0.468108
      dxz     :     0.102446
      dyz     :     0.058010
      dx2y2   :     0.116045
      dxy     :     0.109083

 17 C s       :     2.875644  s :     2.875644
      pz      :     1.098475  p :     2.979563
      px      :     0.922901
      py      :     0.958187
      dz2     :     0.027498  d :     0.122024
      dxz     :     0.011241
      dyz     :     0.020647
      dx2y2   :     0.025982
      dxy     :     0.036655

 18 C s       :     2.976372  s :     2.976372
      pz      :     1.129354  p :     3.365667
      px      :     1.160333
      py      :     1.075980
      dz2     :     0.019250  d :     0.060678
      dxz     :     0.003706
      dyz     :     0.012242
      dx2y2   :     0.007887
      dxy     :     0.017594

 19 H s       :     0.796003  s :     0.796003
      pz      :     0.025583  p :     0.044069
      px      :     0.008270
      py      :     0.010216

 20 H s       :     0.789005  s :     0.789005
      pz      :     0.013882  p :     0.044518
      px      :     0.018540
      py      :     0.012096

 21 H s       :     0.796111  s :     0.796111
      pz      :     0.007733  p :     0.043571
      px      :     0.008283
      py      :     0.027555

 22 H s       :     0.783049  s :     0.783049
      pz      :     0.009326  p :     0.039926
      px      :     0.019258
      py      :     0.011342

 23 H s       :     0.774672  s :     0.774672
      pz      :     0.005451  p :     0.042945
      px      :     0.008101
      py      :     0.029393

 24 H s       :     0.781414  s :     0.781414
      pz      :     0.020430  p :     0.041926
      px      :     0.009776
      py      :     0.011720

 25 H s       :     0.780359  s :     0.780359
      pz      :     0.006600  p :     0.039896
      px      :     0.006897
      py      :     0.026399

 26 H s       :     0.798565  s :     0.798565
      pz      :     0.021908  p :     0.043539
      px      :     0.009939
      py      :     0.011692

 27 H s       :     0.785524  s :     0.785524
      pz      :     0.008667  p :     0.045586
      px      :     0.009301
      py      :     0.027619

 28 H s       :     0.797094  s :     0.797094
      pz      :     0.017431  p :     0.044115
      px      :     0.018164
      py      :     0.008519

 29 H s       :     0.759089  s :     0.759089
      pz      :     0.008085  p :     0.049165
      px      :     0.017347
      py      :     0.023733

 30 H s       :     0.758159  s :     0.758159
      pz      :     0.025075  p :     0.049246
      px      :     0.016384
      py      :     0.007787

 31 H s       :     0.782610  s :     0.782610
      pz      :     0.010311  p :     0.041949
      px      :     0.007702
      py      :     0.023936

 32 H s       :     0.772524  s :     0.772524
      pz      :     0.004555  p :     0.040406
      px      :     0.025277
      py      :     0.010574

 33 H s       :     0.790297  s :     0.790297
      pz      :     0.007690  p :     0.044287
      px      :     0.024682
      py      :     0.011915

 34 H s       :     0.798259  s :     0.798259
      pz      :     0.025393  p :     0.043928
      px      :     0.009129
      py      :     0.009406

 35 H s       :     0.793477  s :     0.793477
      pz      :     0.013872  p :     0.043539
      px      :     0.008009
      py      :     0.021658

 36 H s       :     0.780967  s :     0.780967
      pz      :     0.009663  p :     0.039907
      px      :     0.018686
      py      :     0.011558

 37 H s       :     0.774276  s :     0.774276
      pz      :     0.029785  p :     0.043102
      px      :     0.005973
      py      :     0.007344

 38 H s       :     0.789954  s :     0.789954
      pz      :     0.009866  p :     0.045486
      px      :     0.023230
      py      :     0.012390

 39 H s       :     0.798345  s :     0.798345
      pz      :     0.026496  p :     0.043572
      px      :     0.008403
      py      :     0.008673

 40 H s       :     0.795695  s :     0.795695
      pz      :     0.008363  p :     0.044124
      px      :     0.020194
      py      :     0.015567


---------------------------------
LOEWDIN BOND ORDERS (THRESH 0.050000)
---------------------------------
B(  0-C ,  1-C ) :   1.0950 B(  0-C ,  2-O ) :   0.1552 B(  0-C , 19-H ) :   0.9159 
B(  0-C , 20-H ) :   0.9124 B(  0-C , 21-H ) :   0.9223 B(  1-C ,  2-O ) :   1.2843 
B(  1-C ,  3-P ) :   0.0980 B(  1-C ,  4-S ) :   0.0522 B(  1-C , 19-H ) :   0.0509 
B(  1-C , 22-H ) :   0.8290 B(  1-C , 23-H ) :   0.8264 B(  2-O ,  3-P ) :   1.5647 
B(  2-O ,  4-S ) :   0.1888 B(  2-O ,  5-O ) :   0.2203 B(  2-O ,  8-S ) :   0.1539 
B(  2-O , 22-H ) :   0.0992 B(  2-O , 23-H ) :   0.0956 B(  3-P ,  4-S ) :   2.0081 
B(  3-P ,  5-O ) :   1.5677 B(  3-P ,  6-C ) :   0.0963 B(  3-P ,  8-S ) :   1.2359 
B(  3-P ,  9-C ) :   0.0929 B(  4-S ,  5-O ) :   0.1728 B(  4-S ,  8-S ) :   0.1536 
B(  4-S ,  9-C ) :   0.0544 B(  5-O ,  6-C ) :   1.2922 B(  5-O ,  7-C ) :   0.1599 
B(  5-O ,  8-S ) :   0.1530 B(  5-O , 24-H ) :   0.0959 B(  5-O , 25-H ) :   0.0992 
B(  6-C ,  7-C ) :   1.0937 B(  6-C , 24-H ) :   0.8293 B(  6-C , 25-H ) :   0.8312 
B(  6-C , 28-H ) :   0.0510 B(  7-C , 26-H ) :   0.9233 B(  7-C , 27-H ) :   0.9152 
B(  7-C , 28-H ) :   0.9168 B(  8-S ,  9-C ) :   1.2931 B(  8-S , 10-S ) :   0.2120 
B(  8-S , 29-H ) :   0.0604 B(  8-S , 30-H ) :   0.0556 B(  9-C , 10-S ) :   1.3074 
B(  9-C , 11-P ) :   0.0909 B(  9-C , 12-S ) :   0.0559 B(  9-C , 29-H ) :   0.8350 
B(  9-C , 30-H ) :   0.8347 B( 10-S , 11-P ) :   1.1951 B( 10-S , 12-S ) :   0.1550 
B( 10-S , 13-O ) :   0.1582 B( 10-S , 16-O ) :   0.1405 B( 10-S , 29-H ) :   0.0566 
B( 10-S , 30-H ) :   0.0622 B( 11-P , 12-S ) :   2.0546 B( 11-P , 13-O ) :   1.5880 
B( 11-P , 14-C ) :   0.0973 B( 11-P , 16-O ) :   1.5607 B( 11-P , 17-C ) :   0.0962 
B( 12-S , 13-O ) :   0.1753 B( 12-S , 16-O ) :   0.1814 B( 13-O , 14-C ) :   1.2727 
B( 13-O , 15-C ) :   0.1594 B( 13-O , 16-O ) :   0.2172 B( 13-O , 31-H ) :   0.0937 
B( 13-O , 32-H ) :   0.0963 B( 14-C , 15-C ) :   1.0977 B( 14-C , 31-H ) :   0.8243 
B( 14-C , 32-H ) :   0.8253 B( 14-C , 34-H ) :   0.0514 B( 15-C , 33-H ) :   0.9155 
B( 15-C , 34-H ) :   0.9165 B( 15-C , 35-H ) :   0.9190 B( 16-O , 17-C ) :   1.2923 
B( 16-O , 18-C ) :   0.1596 B( 16-O , 36-H ) :   0.0996 B( 16-O , 37-H ) :   0.0955 
B( 17-C , 18-C ) :   1.0952 B( 17-C , 36-H ) :   0.8301 B( 17-C , 37-H ) :   0.8244 
B( 17-C , 40-H ) :   0.0510 B( 18-C , 38-H ) :   0.9142 B( 18-C , 39-H ) :   0.9233 
B( 18-C , 40-H ) :   0.9158 

------------------------------------------
LOEWDIN REDUCED ORBITAL POPULATIONS PER MO
-------------------------------------------
THRESHOLD FOR PRINTING IS 0.1%%
                      0         1         2         3         4         5   
                 -88.57389 -88.57286 -88.52344 -88.51805 -76.91623 -76.91315
                   2.00000   2.00000   2.00000   2.00000   2.00000   2.00000
                  --------  --------  --------  --------  --------  --------
 3 P  s               0.0       0.0       0.0       0.0     100.0       0.0
 4 S  s               0.0       0.0     100.0       0.0       0.0       0.0
 8 S  s             100.0       0.0       0.0       0.0       0.0       0.0
10 S  s               0.0     100.0       0.0       0.0       0.0       0.0
11 P  s               0.0       0.0       0.0       0.0       0.0     100.0
12 S  s               0.0       0.0       0.0     100.0       0.0       0.0

                      6         7         8         9        10        11   
                 -18.99621 -18.99582 -18.99365 -18.98889 -10.10352 -10.10178
                   2.00000   2.00000   2.00000   2.00000   2.00000   2.00000
                  --------  --------  --------  --------  --------  --------
 1 C  s               0.0       0.0       0.0       0.0       0.0      99.4
 2 O  s               0.0       0.0      99.9       0.0       0.0       0.0
 2 O  dz2             0.0       0.0       0.0       0.0       0.0       0.2
 5 O  s               0.0      99.9       0.0       0.0       0.0       0.0
 5 O  dxz             0.0       0.0       0.0       0.0       0.2       0.0
 6 C  s               0.0       0.0       0.0       0.0      99.4       0.0
13 O  s               0.0       0.0       0.0      99.9       0.0       0.0
16 O  s              99.9       0.0       0.0       0.0       0.0       0.0

                     12        13        14        15        16        17   
                 -10.10159 -10.10092 -10.09982 -10.03220 -10.03200 -10.03066
                   2.00000   2.00000   2.00000   2.00000   2.00000   2.00000
                  --------  --------  --------  --------  --------  --------
 0 C  s               0.0       0.0       0.0      99.7       0.0       0.0
 9 C  s               0.0      99.6       0.0       0.0       0.0       0.0
13 O  dz2             0.0       0.0       0.2       0.0       0.0       0.0
14 C  s               0.0       0.0      99.4       0.0       0.0       0.0
15 C  s               0.0       0.0       0.0       0.0       0.0      99.7
16 O  dxy             0.2       0.0       0.0       0.0       0.0       0.0
17 C  s              99.4       0.0       0.0       0.0       0.0       0.0
[...]
36 H  py              0.5       0.2       0.1       0.2       0.0       0.0
37 H  s               0.2       0.1       0.1       0.1       0.0       0.0
37 H  pz              0.3       0.2       0.1       0.2       0.0       0.0

                    522       523       524       525       526       527   
                  18.87863  18.90684  19.05927  19.20571  21.94098  21.95573
                   0.00000   0.00000   0.00000   0.00000   0.00000   0.00000
                  --------  --------  --------  --------  --------  --------
 0 C  s               0.0       0.0       0.0       0.0      32.2       0.2
 1 C  s               0.1       0.0       0.0       0.0       0.4       0.2
 3 P  s               0.2       0.0       0.0       0.1       0.0       0.0
 3 P  py              0.2       0.0       0.0       0.0       0.0       0.0
 4 S  s              92.2       0.4       3.7       2.6       0.0       0.0
 4 S  py              0.1       0.0       0.0       0.0       0.0       0.0
 6 C  s               0.0       0.0       0.0       0.0       0.7       0.1
 7 C  s               0.0       0.0       0.0       0.0      64.9       0.1
 8 S  s               0.4       0.3      63.2      35.0       0.0       0.0
 9 C  s               0.0       0.0       0.0       1.1       1.4       0.0
10 S  s               5.6       2.0      32.4      58.9       0.0       0.0
11 P  s               0.0       0.2       0.0       0.1       0.0       0.0
11 P  pz              0.0       0.3       0.0       0.0       0.0       0.0
12 S  s               0.8      96.2       0.1       1.8       0.0       0.0
12 S  pz              0.0       0.2       0.0       0.0       0.0       0.0
14 C  s               0.0       0.1       0.0       0.0       0.0       0.2
15 C  s               0.0       0.0       0.0       0.0       0.0      16.9
17 C  s               0.0       0.0       0.0       0.0       0.0       0.6
18 C  s               0.0       0.0       0.0       0.0       0.0      81.3

                    528       529       530       531       532       533   
                  21.96017  21.98348  22.03658  22.04948  22.05712  22.07247
                   0.00000   0.00000   0.00000   0.00000   0.00000   0.00000
                  --------  --------  --------  --------  --------  --------
 0 C  s               0.0      66.5       0.1       0.1       0.0       0.1
 1 C  s               0.5       0.9       0.0       2.6      44.9       4.3
 6 C  s               0.1       0.8       0.8      93.3       0.3       0.0
 7 C  s               0.1      31.0       0.2       1.8       1.5       0.1
 9 C  s               0.0       0.0      19.4       0.1      36.6      19.1
14 C  s               0.3       0.0      20.0       1.4      13.5      38.1
15 C  s              81.0       0.0       0.8       0.0       0.1       0.0
17 C  s               1.0       0.0      57.8       0.3       2.4      37.1
18 C  s              16.5       0.5       0.5       0.1       0.0       0.8

                    534       535       536       537       538   
                  22.09797  43.79161  43.81329  43.87495  43.92070
                   0.00000   0.00000   0.00000   0.00000   0.00000
                  --------  --------  --------  --------  --------
 0 C  s               0.3       0.0       0.0       0.0       0.0
 1 C  s              45.9       0.0       0.0       0.0       0.0
 2 O  s               0.0       0.0       2.8      62.4      34.6
 5 O  s               0.0       2.7      94.4       2.2       0.6
 6 C  s               3.5       0.0       0.0       0.0       0.0
 8 S  s               0.1       0.0       0.0       0.0       0.0
 9 C  s              22.6       0.0       0.0       0.0       0.0
13 O  s               0.0       1.6       0.0      35.0      63.3
14 C  s              26.0       0.0       0.0       0.0       0.0
15 C  s               0.8       0.0       0.0       0.0       0.0
16 O  s               0.0      95.6       2.6       0.2       1.4
17 C  s               0.3       0.0       0.0       0.0       0.0


                      *****************************
                      * MAYER POPULATION ANALYSIS *
                      *****************************

  NA   - Mulliken gross atomic population
  ZA   - Total nuclear charge
  QA   - Mulliken gross atomic charge
  VA   - Mayer's total valence
  BVA  - Mayer's bonded valence
  FA   - Mayer's free valence

  ATOM       NA         ZA         QA         VA         BVA        FA
  0 C      6.4423     6.0000    -0.4423     3.7866     3.7866    -0.0000
  1 C      6.1495     6.0000    -0.1495     3.6468     3.6468    -0.0000
  2 O      8.2514     8.0000    -0.2514     1.8250     1.8250     0.0000
  3 P     14.3361    15.0000     0.6639     5.1681     5.1681     0.0000
  4 S     16.4864    16.0000    -0.4864     2.0215     2.0215    -0.0000
  5 O      8.2997     8.0000    -0.2997     1.8076     1.8076    -0.0000
  6 C      6.1324     6.0000    -0.1324     3.7007     3.7007    -0.0000
  7 C      6.4567     6.0000    -0.4567     3.8168     3.8168    -0.0000
  8 S     16.1205    16.0000    -0.1205     2.2144     2.2144    -0.0000
  9 C      6.2268     6.0000    -0.2268     3.7062     3.7062     0.0000
 10 S     16.1831    16.0000    -0.1831     2.1498     2.1498     0.0000
 11 P     14.3425    15.0000     0.6575     5.1179     5.1179     0.0000
 12 S     16.4453    16.0000    -0.4453     2.0714     2.0714     0.0000
 13 O      8.2538     8.0000    -0.2538     1.7853     1.7853     0.0000
 14 C      6.0961     6.0000    -0.0961     3.6266     3.6266    -0.0000
 15 C      6.4859     6.0000    -0.4859     3.8297     3.8297     0.0000
 16 O      8.2882     8.0000    -0.2882     1.7819     1.7819     0.0000
 17 C      6.1662     6.0000    -0.1662     3.7128     3.7128     0.0000
 18 C      6.4408     6.0000    -0.4408     3.7978     3.7978     0.0000
 19 H      0.8520     1.0000     0.1480     0.9639     0.9639    -0.0000
 20 H      0.8295     1.0000     0.1705     0.9607     0.9607    -0.0000
 21 H      0.8440     1.0000     0.1560     0.9610     0.9610    -0.0000
 22 H      0.8543     1.0000     0.1457     0.9526     0.9526    -0.0000
 23 H      0.8230     1.0000     0.1770     0.9548     0.9548     0.0000
 24 H      0.8445     1.0000     0.1555     0.9581     0.9581    -0.0000
 25 H      0.8481     1.0000     0.1519     0.9510     0.9510    -0.0000
 26 H      0.8484     1.0000     0.1516     0.9625     0.9625    -0.0000
 27 H      0.8179     1.0000     0.1821     0.9559     0.9559    -0.0000
 28 H      0.8537     1.0000     0.1463     0.9642     0.9642     0.0000
 29 H      0.7872     1.0000     0.2128     0.9521     0.9521     0.0000
 30 H      0.7824     1.0000     0.2176     0.9471     0.9471     0.0000
 31 H      0.8459     1.0000     0.1541     0.9610     0.9610    -0.0000
 32 H      0.8299     1.0000     0.1701     0.9464     0.9464     0.0000
 33 H      0.8344     1.0000     0.1656     0.9601     0.9601     0.0000
 34 H      0.8560     1.0000     0.1440     0.9633     0.9633     0.0000
 35 H      0.8398     1.0000     0.1602     0.9600     0.9600     0.0000
 36 H      0.8496     1.0000     0.1504     0.9520     0.9520     0.0000
 37 H      0.8259     1.0000     0.1741     0.9555     0.9555     0.0000
 38 H      0.8318     1.0000     0.1682     0.9615     0.9615    -0.0000
 39 H      0.8464     1.0000     0.1536     0.9609     0.9609     0.0000
 40 H      0.8517     1.0000     0.1483     0.9647     0.9647     0.0000

  Mayer bond orders larger than 0.100000
B(  0-C ,  1-C ) :   0.9252 B(  0-C , 19-H ) :   0.9631 B(  0-C , 20-H ) :   0.9579 
B(  0-C , 21-H ) :   0.9723 B(  1-C ,  2-O ) :   0.7762 B(  1-C , 22-H ) :   0.9611 
B(  1-C , 23-H ) :   0.9608 B(  2-O ,  3-P ) :   1.1389 B(  3-P ,  4-S ) :   1.7368 
B(  3-P ,  5-O ) :   1.0729 B(  3-P ,  8-S ) :   1.1146 B(  5-O ,  6-C ) :   0.7796 
B(  6-C ,  7-C ) :   0.9520 B(  6-C , 24-H ) :   0.9636 B(  6-C , 25-H ) :   0.9634 
B(  7-C , 26-H ) :   0.9747 B(  7-C , 27-H ) :   0.9574 B(  7-C , 28-H ) :   0.9638 
B(  8-S ,  9-C ) :   0.9091 B(  9-C , 10-S ) :   0.9057 B(  9-C , 29-H ) :   0.9056 
B(  9-C , 30-H ) :   0.9046 B( 10-S , 11-P ) :   0.9892 B( 11-P , 12-S ) :   1.8543 
B( 11-P , 13-O ) :   1.1517 B( 11-P , 16-O ) :   1.0405 B( 13-O , 14-C ) :   0.7331 
B( 14-C , 15-C ) :   0.9293 B( 14-C , 31-H ) :   0.9704 B( 14-C , 32-H ) :   0.9536 
B( 15-C , 33-H ) :   0.9708 B( 15-C , 34-H ) :   0.9663 B( 15-C , 35-H ) :   0.9737 
B( 16-O , 17-C ) :   0.7767 B( 17-C , 18-C ) :   0.9427 B( 17-C , 36-H ) :   0.9647 
B( 17-C , 37-H ) :   0.9607 B( 18-C , 38-H ) :   0.9559 B( 18-C , 39-H ) :   0.9749 
B( 18-C , 40-H ) :   0.9633 

-------
TIMINGS
-------

Total SCF time: 0 days 0 hours 1 min 14 sec 

Total time                  ....      74.672 sec
Sum of individual times     ....      74.110 sec  ( 99.2%)

SCF preparation             ....       0.391 sec  (  0.5%)
Fock matrix formation       ....      70.374 sec  ( 94.2%)
  Startup                   ....       0.162 sec  (  0.2% of F)
  Split-RI-J                ....      23.752 sec  ( 33.8% of F)
  XC integration            ....      44.904 sec  ( 63.8% of F)
    XC Preparation          ....       0.000 sec  (  0.0% of XC)
    Basis function eval.    ....       6.983 sec  ( 15.6% of XC)
    Density eval.           ....      16.543 sec  ( 36.8% of XC)
    XC-Functional eval.     ....       3.249 sec  (  7.2% of XC)
    XC-Potential eval.      ....      16.690 sec  ( 37.2% of XC)
Diagonalization             ....       0.000 sec  (  0.0%)
Density matrix formation    ....       0.865 sec  (  1.2%)
Total Energy calculation    ....       0.059 sec  (  0.1%)
Population analysis         ....       0.491 sec  (  0.7%)
Orbital Transformation      ....       0.264 sec  (  0.4%)
Orbital Orthonormalization  ....       0.000 sec  (  0.0%)
DIIS solution               ....       1.419 sec  (  1.9%)
  MO trafo                  ....       0.000 sec  (  0.0 % of DIIS)
  Orb grad                  ....       0.000 sec  (  0.0 % of DIIS)
  Energy W gradient         ....       0.000 sec  (  0.0 % of DIIS)
  DIIS error                ....       0.111 sec  (  7.8 % of DIIS)
  DIIS work                 ....       1.164 sec  ( 82.0 % of DIIS)
  Form Q                    ....       0.000 sec  (  0.0 % of DIIS)
  Form QpQm                 ....       0.000 sec  (  0.0 % of DIIS)
  Exp/Cayley                ....       0.000 sec  (  0.0 % of DIIS)
  Orb update                ....       0.000 sec  (  0.0 % of DIIS)
  Wake-sleep                ....       0.026 sec  (  1.8 % of DIIS)
SOSCF solution              ....       0.247 sec  (  0.3%)
  MO trafo                  ....       0.174 sec  ( 70.4 % of SOSCF)
  Orb grad                  ....       0.004 sec  (  1.7 % of SOSCF)
  Rot update                ....       0.000 sec  (  0.1 % of SOSCF)
  Step                      ....       0.068 sec  ( 27.7 % of SOSCF)
Finished LeanSCF after  74.8 sec

Maximum memory used throughout the entire LEANSCF-calculation: 72.8 MB


-------------------------------------------------------------------------------
                          DFT DISPERSION CORRECTION                            
                                                                               
                                DFTD4 V3.4.0                                   
-------------------------------------------------------------------------------
The R2SCAN3C composite method is recognized
Using three-body term ABC
Active option DFTDOPT                   ...         5   

-------------------------   ----------------
Dispersion correction           -0.021379242
-------------------------   ----------------

------------------   -----------------
gCP correction             0.046502492
------------------   -----------------

-------------------------   --------------------
FINAL SINGLE POINT ENERGY     -2932.463583206938
-------------------------   --------------------


------------------------------------------------------------------------------
                              ORCA PROPERTY CALCULATIONS
------------------------------------------------------------------------------

GBWName                                 ... sp_gas.gbw
Number of atoms                         ...     41
Number of basis functions               ...    539
Max core memory                         ...   1024 MB

Electric properties:
Dipole moment                           ... YES
Quadrupole moment                       ...  NO
Static polarizability (Dipole/Dipole)   ...  NO
Static polarizability (Dipole/Quad.)    ...  NO
Static polarizability (Quad./Quad.)     ...  NO
Static polarizability (Velocity)        ...  NO

Atomic electric properties:
Dipole moment                           ...  NO
Quadrupole moment                       ...  NO
Static polarizability                   ...  NO

Choice of electric origin               ... Center of mass
Position of electric origin             ...     0.000003    -0.000004     0.000006

General magnetic properties:
Magnetizability                         ...  NO

EPR properties:
g-Tensor (aka g-matrix)                 ...  NO
Zero-Field splitting spin-orbit         ...  NO
Zero-field splitting spin-spin          ...  NO
Hyperfine couplings                     ...  NO (   0 nuclei)
Quadrupole couplings                    ...  NO (   0 nuclei)
Contact density                         ...  NO (   0 nuclei)

NMR properties:
Chemical shifts                         ...  NO (   0 nuclei)
Spin-rotation constants                 ...  NO (   0 nuclei)
Spin-spin couplings                     ...  NO (   0 nuclei,    0 pairs)

Choice of magnetic origin               ... GIAO
Position of magnetic origin             ...     0.000000     0.000000     0.000000

Properties with geometric perturbations:
SCF Hessian                             ...  NO
IR spectrum                             ...  NO
VCD spectrum                            ...  NO
X-ray spectroscopy properties:
SCF XES/XAS/RIXS spectra                ...  NO


-------------
DIPOLE MOMENT
-------------

Method             : SCF
Type of density    : Electron Density
Multiplicity       :   1
Irrep              :   0
Energy             : -2932.4887064565809851 Eh
Relativity type    : 
Basis              : AO
                                X                 Y                 Z
Electronic contribution:     -4.092891201      -2.839317227     -17.992762206
Nuclear contribution   :      4.284182345       3.182186092      19.604674994
                        -----------------------------------------
Total Dipole Moment    :      0.191291144       0.342868865       1.611912787
                        -----------------------------------------
Magnitude (a.u.)       :      1.659040143
Magnitude (Debye)      :      4.216944916



--------------------
Rotational spectrum 
--------------------
 
Rotational constants in cm-1:             0.013184             0.004689             0.004442 
Rotational constants in MHz :           395.253683           140.583453           133.176163 

Dipole components along the rotational axes: 
x,y,z [a.u.] :     0.311634     1.628472    -0.058112 
x,y,z [Debye]:     0.792110     4.139247    -0.147709 

 

Dipole moment calculation done in   0.0 sec 

Maximum memory used throughout the entire PROP-calculation: 51.2 MB

--------------------------------
SUGGESTED CITATIONS FOR THIS RUN
--------------------------------

Below you find a list of papers that are relevant to this ORCA run
We neither can nor want to force you to cite these papers, but we appreciate if you do
You receive ORCA, which is the product of decades of hard work by many enthusiastic individuals, for free
The only thing we kindly ask in return is that you cite our papers,
We deeply appreciate it, if you show your appreciation for ORCA by not just citing the generic ORCA reference.

Please note that relegating all ORCA citations to the supporting information does *not* help us.
SI sections are not indexed - citations you put there will not count into any citation statistics
But we need these citations in order to attract the funding resources that allow us to do what we are doing

Therefore, if you are a happy ORCA user, please consider citing a few of the papers listed below in the main body of your paper

In addition to the list printed below, the program has created the file sp_gas.bibtex that contains the list in bibtex format
You can import this file easily into all common literature databanks and citation aid programs


List of essential papers. We consider these as the minimum necessary citations

  1. Neese,F.
     Software update: the ORCA program system, version 5.0
     WIRES Comput. Molec. Sci., 2022 12(1)e1606
     doi.org/10.1002/wcms.1606
  2. Grimme,S.; Hansen,A.; Ehlert,S.; Mewes,J.
     r2SCAN-3c: A 'Swiss army knife' composite electronic-structure method
     J. Chem. Phys., 2021 154 064103
     doi.org/10.1063/5.0040021

List of papers to cite with high priority. The work reported in these papers was absolutely
necessary for this run to complete.
Our perspective: the developers of density functionals and basis sets usually get cited in chemistry papers
Good! But without the algorithms to do something with them, the functionals or basis sets would not do anything.
Hence, in our opinion, the algorithm design and method developments papers are equally worthy of getting cited

  1. Neese,F.
     An improvement of the resolution of the identity approximation for the formation of the Coulomb matrix
     J. Comp. Chem., 2003 24(14)1740-1747
     doi.org/10.1002/jcc.10318
  2. Neese,F.
     The SHARK Integral Generation and Digestion System
     J. Comp. Chem., 2022  1-16
     doi.org/10.1002/jcc.26942
  3. Lehtola,S.; Steigemann,C.; Oliveira,M.; Marques,M.
     Recent developments in Libxc - A comprehensive library of functionals for density functional theory
     Software X, 2018 7 
     doi.org/10.1016/j.softx.2017.11.002
  4. Caldeweyher,E.; Bannwarth,C.; Grimme,S.
     Extension of the D3 dispersion coefficient model
     J. Chem. Phys., 2017 147 034112-XXXX
     doi.org/10.1063/1.4993215
  5. Caldeweyher,E.; Ehlert,S.; Hansen,A.; Neugebauer,H.; Spicher,S.; Bannwarth,C.; Grimme,S.
     A generally applicable atomic-charge dependent London dispersion correction
     J. Chem. Phys., 2019 150 154122-XXXX
     doi.org/10.1063/1.5090222
  6. Caldeweyher,E.; Mewes,J.; Ehlert,S.; Grimme,S.
     Extension and evaluation of the D4 London-dispersion model for periodic systems
     Phys. Chem. Chem. Phys., 2020 22(16)8499-8512
     doi.org/10.1039/D0CP00502A

List of suggested additional citations. These are papers that are important in the 'surrounding' of 
of this run, or papers that preceded the highly important papers. If you like your results we are grateful for a citation.

  1. Neese,F.
     The ORCA program system
     WIRES Comput. Molec. Sci., 2012 2(1)73-78
     doi.org/10.1002/wcms.81
  2. Neese,F.
     Software update: the ORCA program system, version 4.0
     WIRES Comput. Molec. Sci., 2018 8(1)1-6
     doi.org/10.1002/wcms.1327
  3. Neese,F.; Wennmohs,F.; Becker,U.; Riplinger,C.
     The ORCA quantum chemistry program package
     J. Chem. Phys., 2020 152 Art. No. L224108
     doi.org/10.1063/5.0004608

List of optional additional citations

  1. Neese,F.
     Approximate second-order SCF convergence for spin unrestricted wavefunctions
     Chem. Phys. Lett., 2000 325(1-3)93-98
     doi.org/10.1016/s0009-2614(00)00662-x

Timings for individual modules:

Sum of individual times          ...       78.548 sec (=   1.309 min)
Startup calculation              ...        2.991 sec (=   0.050 min)   3.8 %
SCF iterations                   ...       75.410 sec (=   1.257 min)  96.0 %
Property calculations            ...        0.147 sec (=   0.002 min)   0.2 %
                             ****ORCA TERMINATED NORMALLY****
TOTAL RUN TIME: 0 days 0 hours 1 minutes 19 seconds 247 msec
