
                                 *****************
                                 * O   R   C   A *
                                 *****************

                                            #,                                       
                                            ###                                      
                                            ####                                     
                                            #####                                    
                                            ######                                   
                                           ########,                                 
                                     ,,################,,,,,                         
                               ,,#################################,,                 
                          ,,##########################################,,             
                       ,#########################################, ''#####,          
                    ,#############################################,,   '####,        
                  ,##################################################,,,,####,       
                ,###########''''           ''''###############################       
              ,#####''   ,,,,##########,,,,          '''####'''          '####       
            ,##' ,,,,###########################,,,                        '##       
           ' ,,###''''                  '''############,,,                           
         ,,##''                                '''############,,,,        ,,,,,,###''
      ,#''                                            '''#######################'''  
     '                                                          ''''####''''         
             ,#######,   #######,   ,#######,      ##                                
            ,#'     '#,  ##    ##  ,#'     '#,    #''#        ,####,   ,####,        
            ##       ##  ##   ,#'  ##            #'  '#       #'       #'  '#        
            ##       ##  #######   ##           ,######,      #####,   #    #        
            '#,     ,#'  ##    ##  '#,     ,#' ,#      #,     #,   #   #,  ,#        
             '#######'   ##     ##  '#######'  #'      '#     '####' # '####'        



                #########################################################
                #                        -***-                          #
                #          Department of theory and spectroscopy        #
                #                                                       #
                #                      Frank Neese                      #
                #                                                       #
                #     Directorship, Architecture, Infrastructure        #
                #                    SHARK, DRIVERS                     #
                #        Core code/Algorithms in most modules           #
                #                                                       #
                #        Max Planck Institute fuer Kohlenforschung      #
                #                Kaiser Wilhelm Platz 1                 #
                #                 D-45470 Muelheim/Ruhr                 #
                #                      Germany                          #
                #                                                       #
                #                  All rights reserved                  #
                #                        -***-                          #
                #########################################################


                         Program Version 6.0.0  -   RELEASE  -


 With contributions from (in alphabetic order):
   Daniel Aravena         : Magnetic Suceptibility
   Michael Atanasov       : Ab Initio Ligand Field Theory (pilot matlab implementation)
   Alexander A. Auer      : GIAO ZORA, VPT2 properties, NMR spectrum
   Ute Becker             : All parallelization in ORCA, NUMFREQ, NUMCALC
   Giovanni Bistoni       : ED, misc. LED, open-shell LED, HFLD
   Martin Brehm           : Molecular dynamics
   Dmytro Bykov           : pre 5.0 version of the SCF Hessian
   Marcos Casanova-Páez   : Triplet and SCS-CIS(D). UHF-(DLPNO)-IP/EA/STEOM-CCSD. UHF-CVS-IP/STEOM-CCSD
   Vijay G. Chilkuri      : MRCI spin determinant printing, contributions to CSF-ICE
   Pauline Colinet        : FMM embedding
   Dipayan Datta          : RHF DLPNO-CCSD density
   Achintya Kumar Dutta   : EOM-CC, STEOM-CC
   Nicolas Foglia         : Exact transition moments, OPA infrastructure, MCD improvements
   Dmitry Ganyushin       : Spin-Orbit,Spin-Spin,Magnetic field MRCI
   Miquel Garcia          : C-PCM and meta-GGA Hessian, CCSD/C-PCM, Gaussian charge scheme
   Tiago L. C. Gouveia    : GS-ROHF, GS-ROCIS
   Yang Guo               : DLPNO-NEVPT2, F12-NEVPT2, CIM, IAO-localization
   Andreas Hansen         : Spin unrestricted coupled pair/coupled cluster methods
   Ingolf Harden          : AUTO-CI MPn and infrastructure 
   Benjamin Helmich-Paris : MC-RPA, TRAH-(SCF,CASSCF), AVAS, COSX integrals, SCF dyn. polar.
   Lee Huntington         : MR-EOM, pCC
   Robert Izsak           : Overlap fitted RIJCOSX, COSX-SCS-MP3, EOM
   Riya Kayal             : Wick's Theorem for AUTO-CI, AUTO-CI UHF-CCSDT
   Emily Kempfer          : AUTO-CI, RHF CISDT and CCSDT
   Christian Kollmar      : KDIIS, OOCD, Brueckner-CCSD(T), CCSD density, CASPT2, CASPT2-K, improved NEVPT2
   Axel Koslowski         : Symmetry handling
   Simone Kossmann        : Meta GGA functionals, TD-DFT gradient, OOMP2, (MP2 Hessian; deprecated post 5.0)
   Lucas Lang             : DCDCAS
   Marvin Lechner         : AUTO-CI (C++ implementation), FIC-MRCC
   Spencer Leger          : CASSCF response
   Dagmar Lenk            : GEPOL surface, SMD, ORCA-2-JSON
   Dimitrios Liakos       : Extrapolation schemes; Compound Job, initial MDCI parallelization
   Dimitrios Manganas     : Further ROCIS development; embedding schemes. LFT, Crystal Embedding
   Dimitrios Pantazis     : SARC Basis sets
   Anastasios Papadopoulos: AUTO-CI, single reference methods and gradients
   Taras Petrenko         : pre 6.0 DFT Hessian and TD-DFT gradient, (ASA, deprecated), ECA, 1-Electron XAS/XES, NRVS
   Peter Pinski           : DLPNO-MP2, DLPNO-MP2 Gradient
   Christoph Reimann      : Effective Core Potentials
   Marius Retegan         : Local ZFS, SOC
   Christoph Riplinger    : Optimizer, TS searches, QM/MM, DLPNO-CCSD(T), (RO)-DLPNO pert. Triples
   Michael Roemelt        : Original ROCIS implementation
   Masaaki Saitow         : Open-shell DLPNO-CCSD energy and density
   Barbara Sandhoefer     : DKH picture change effects
   Kantharuban Sivalingam : CASSCF convergence/infrastructure, NEVPT2 and variants, FIC-MRCI
   Bernardo de Souza      : ESD, SOC TD-DFT
   Georgi Stoychev        : AutoAux, RI-MP2 NMR, DLPNO-MP2 response, X2C
   Van Anh Tran           : RI-MP2 g-tensors
   Willem Van den Heuvel  : Paramagnetic NMR
   Zikuan Wang            : NOTCH, Electric field optimization 
   Frank Wennmohs         : Technical directorship and infrastructure
   Hang Xu                : AUTO-CI-Response properties 


 We gratefully acknowledge several colleagues who have allowed us to
 interface, adapt or use parts of their codes:
   Stefan Grimme, W. Hujo, H. Kruse, P. Pracht,  : VdW corrections, initial TS optimization,
                  C. Bannwarth, S. Ehlert,         DFT functionals, gCP, sTDA/sTD-DF
                  L. Wittmann, M. Mueller
   Ed Valeev, F. Pavosevic, A. Kumar             : LibInt (2-el integral package), F12 methods
   Garnet Chan, S. Sharma, J. Yang, R. Olivares  : DMRG
   Ulf Ekstrom                                   : XCFun DFT Library
   Mihaly Kallay                                 : mrcc  (arbitrary order and MRCC methods)
   Frank Weinhold                                : gennbo (NPA and NBO analysis)
   Simon Mueller                                 : openCOSMO-RS
   Christopher J. Cramer and Donald G. Truhlar   : smd solvation model
   Lars Goerigk                                  : TD-DFT with DH, B97 family of functionals
   V. Asgeirsson, H. Jonsson                     : NEB implementation
   FAccTs GmbH                                   : IRC, NEB, NEB-TS, DLPNO-Multilevel, CI-OPT
                                                   MM, QMMM, 2- and 3-layer-ONIOM, Crystal-QMMM,
                                                   LR-CPCM, SF, NACMEs, symmetry and pop. for TD-DFT,
                                                   nearIR, NL-DFT gradient (VV10), updates on ESD,
                                                   ML-optimized integration grids, MBIS, APM,
                                                   GOAT, DOCKER, SOLVATOR, interface openCOSMO-RS
   S Lehtola, MJT Oliveira, MAL Marques          : LibXC Library
   Liviu Ungur et al                             : ANISO software


 Your calculation uses the libint2 library for the computation of 2-el integrals
 For citations please refer to: http://libint.valeyev.net

 Your ORCA version has been built with support for libXC version: 6.2.2
 For citations please refer to: https://libxc.gitlab.io

 This ORCA versions uses:
   CBLAS   interface :  Fast vector & matrix operations
   LAPACKE interface :  Fast linear algebra routines
   SCALAPACK package :  Parallel linear algebra routines
   Shared memory     :  Shared parallel matrices
   BLAS/LAPACK       :  OpenBLAS 0.3.27  USE64BITINT DYNAMIC_ARCH NO_AFFINITY SapphireRapids SINGLE_THREADED
        Core in use  :  SapphireRapids
   Copyright (c) 2011-2014, The OpenBLAS Project


Your calculation utilizes the geometrical counterpoise correction gCP
Please cite in your paper:
H.Kruse, S. Grimme J.Chem.Phys., 136, (2012), 154101 
   

Your calculation utilizes the atom-pairwise dispersion correction
based on EEQ partial charges (D4)


================================================================================

----- Orbital basis set information -----
Your calculation utilizes the basis: def2-SV(P)
   F. Weigend and R. Ahlrichs, Phys. Chem. Chem. Phys. 7, 3297 (2005).

----- AuxJ basis set information -----
Your calculation utilizes the auxiliary basis: def2/J
   F. Weigend, Phys. Chem. Chem. Phys. 8, 1057 (2006).

================================================================================
                                        WARNINGS
                       Please study these warnings very carefully!
================================================================================


================================================================================
                                       INPUT FILE
================================================================================
NAME = sp.inp
|  1> ! pbe def2-sv(p) def2/J RI DEFGRID1 loosescf d4 GCP(DFT/SV(P)) printgap
|  2> %output
|  3>     printlevel normal
|  4> end
|  5> * xyz 0 1
|  6> C 1.1150813918 0.7513691399 2.957075455
|  7> C 2.3500458215 0.8321814833 2.0824243077
|  8> O 2.7332886438 -0.4578406957 1.5765516909
|  9> P 2.1025844303 -1.1834910217 0.3067040681
| 10> S 0.2849865354 -1.9066790478 0.4540352119
| 11> O 3.1102916198 -2.3727021506 0.105594497
| 12> C 4.5463621724 -2.3093084361 0.2941717004
| 13> C 5.2196696284 -1.3708698402 -0.6839719364
| 14> S 2.3896945359 0.1837272943 -1.3071983309
| 15> C 0.6816749293 0.5586042222 -1.7305018295
| 16> S -0.1291637752 1.6517961255 -0.503156135
| 17> P -1.9953664452 0.6913327133 -0.3045786387
| 18> S -2.4520113183 -0.6427741374 -1.6729859868
| 19> O -3.0050193978 1.9191803835 -0.2364436245
| 20> C -3.3816449746 2.6507971422 -1.4185672401
| 21> C -4.6235531454 3.4558775494 -1.0929065884
| 22> O -1.9907216971 0.2527155019 1.2133096292
| 23> C -2.8171349813 -0.8184195618 1.7076614474
| 24> C -4.2876358583 -0.4678531539 1.6374940234
| 25> H 0.9113669615 1.7300679991 3.3793114787
| 26> H 0.2523471707 0.4372186367 2.3725242735
| 27> H 1.2682622338 0.0343630145 3.7593373073
| 28> H 3.2192840029 1.1560115524 2.6581414125
| 29> H 2.1891573889 1.516403076 1.2429676963
| 30> H 4.7412782148 -2.0110392212 1.3255486451
| 31> H 4.8596916248 -3.3429938297 0.140129099
| 32> H 6.295657041 -1.4430039172 -0.5589092322
| 33> H 4.9593837161 -1.6364667751 -1.7051867263
| 34> H 4.9102723431 -0.3430095063 -0.5025932292
| 35> H 0.0992414513 -0.3629805848 -1.8065833991
| 36> H 0.7202341928 1.080291736 -2.6833096815
| 37> H -2.5476349669 3.3008049113 -1.698447162
| 38> H -3.5656700382 1.9350127738 -2.2272796491
| 39> H -4.9062739806 4.041061483 -1.9616892077
| 40> H -5.4410267518 2.7922096055 -0.826040751
| 41> H -4.4232632072 4.1212002311 -0.2582657025
| 42> H -2.5939629465 -1.7208871347 1.1284154086
| 43> H -2.4770162722 -0.9566701128 2.7348829076
| 44> H -4.8695798243 -1.2626163896 2.0933338725
| 45> H -4.4732881266 0.467593385 2.1586451651
| 46> H -4.5901876851 -0.3591518595 0.5963732189
| 47> *
| 48> 
| 49>                          ****END OF INPUT****
================================================================================

                       ****************************
                       * Single Point Calculation *
                       ****************************

---------------------------------
CARTESIAN COORDINATES (ANGSTROEM)
---------------------------------
  C      1.115081    0.751369    2.957075
  C      2.350046    0.832181    2.082424
  O      2.733289   -0.457841    1.576552
  P      2.102584   -1.183491    0.306704
  S      0.284987   -1.906679    0.454035
  O      3.110292   -2.372702    0.105594
  C      4.546362   -2.309308    0.294172
  C      5.219670   -1.370870   -0.683972
  S      2.389695    0.183727   -1.307198
  C      0.681675    0.558604   -1.730502
  S     -0.129164    1.651796   -0.503156
  P     -1.995366    0.691333   -0.304579
  S     -2.452011   -0.642774   -1.672986
  O     -3.005019    1.919180   -0.236444
  C     -3.381645    2.650797   -1.418567
  C     -4.623553    3.455878   -1.092907
  O     -1.990722    0.252716    1.213310
  C     -2.817135   -0.818420    1.707661
  C     -4.287636   -0.467853    1.637494
  H      0.911367    1.730068    3.379311
  H      0.252347    0.437219    2.372524
  H      1.268262    0.034363    3.759337
  H      3.219284    1.156012    2.658141
  H      2.189157    1.516403    1.242968
  H      4.741278   -2.011039    1.325549
  H      4.859692   -3.342994    0.140129
  H      6.295657   -1.443004   -0.558909
  H      4.959384   -1.636467   -1.705187
  H      4.910272   -0.343010   -0.502593
  H      0.099241   -0.362981   -1.806583
  H      0.720234    1.080292   -2.683310
  H     -2.547635    3.300805   -1.698447
  H     -3.565670    1.935013   -2.227280
  H     -4.906274    4.041061   -1.961689
  H     -5.441027    2.792210   -0.826041
  H     -4.423263    4.121200   -0.258266
  H     -2.593963   -1.720887    1.128415
  H     -2.477016   -0.956670    2.734883
  H     -4.869580   -1.262616    2.093334
  H     -4.473288    0.467593    2.158645
  H     -4.590188   -0.359152    0.596373

----------------------------
CARTESIAN COORDINATES (A.U.)
----------------------------
  NO LB      ZA    FRAG     MASS         X           Y           Z
   0 C     6.0000    0    12.011    2.107198    1.419882    5.588063
   1 C     6.0000    0    12.011    4.440943    1.572595    3.935212
   2 O     8.0000    0    15.999    5.165167   -0.865194    2.979251
   3 P    15.0000    0    30.974    3.973309   -2.236474    0.579587
   4 S    16.0000    0    32.060    0.538547   -3.603101    0.858002
   5 O     8.0000    0    15.999    5.877599   -4.483757    0.199545
   6 C     6.0000    0    12.011    8.591379   -4.363961    0.555904
   7 C     6.0000    0    12.011    9.863746   -2.590569   -1.292520
   8 S    16.0000    0    32.060    4.515868    0.347194   -2.470247
   9 C     6.0000    0    12.011    1.288179    1.055609   -3.270175
  10 S    16.0000    0    32.060   -0.244084    3.121442   -0.950827
  11 P    15.0000    0    30.974   -3.770696    1.306429   -0.575570
  12 S    16.0000    0    32.060   -4.633630   -1.214667   -3.161485
  13 O     8.0000    0    15.999   -5.678664    3.626725   -0.446814
  14 C     6.0000    0    12.011   -6.390383    5.009281   -2.680704
  15 C     6.0000    0    12.011   -8.737249    6.530662   -2.065294
  16 O     8.0000    0    15.999   -3.761919    0.477563    2.292823
  17 C     6.0000    0    12.011   -5.323614   -1.546589    3.227012
  18 C     6.0000    0    12.011   -8.102458   -0.884114    3.094415
  19 H     1.0000    0     1.008    1.722234    3.269355    6.385973
  20 H     1.0000    0     1.008    0.476867    0.826223    4.483421
  21 H     1.0000    0     1.008    2.396668    0.064937    7.104118
  22 H     1.0000    0     1.008    6.083565    2.184545    5.023159
  23 H     1.0000    0     1.008    4.136908    2.865587    2.348869
  24 H     1.0000    0     1.008    8.959717   -3.800313    2.504924
  25 H     1.0000    0     1.008    9.183486   -6.317343    0.264806
  26 H     1.0000    0     1.008   11.897068   -2.726882   -1.056185
  27 H     1.0000    0     1.008    9.371877   -3.092474   -3.222336
  28 H     1.0000    0     1.008    9.279070   -0.648194   -0.949764
  29 H     1.0000    0     1.008    0.187539   -0.685934   -3.413948
  30 H     1.0000    0     1.008    1.361045    2.041456   -5.070720
  31 H     1.0000    0     1.008   -4.814332    6.237617   -3.209600
  32 H     1.0000    0     1.008   -6.738140    3.656644   -4.208949
  33 H     1.0000    0     1.008   -9.271514    7.636499   -3.707055
  34 H     1.0000    0     1.008  -10.282050    5.276511   -1.560991
  35 H     1.0000    0     1.008   -8.358756    7.787940   -0.488051
  36 H     1.0000    0     1.008   -4.901880   -3.252005    2.132396
  37 H     1.0000    0     1.008   -4.680882   -1.807845    5.168180
  38 H     1.0000    0     1.008   -9.202172   -2.385999    3.955828
  39 H     1.0000    0     1.008   -8.453289    0.883623    4.079248
  40 H     1.0000    0     1.008   -8.674198   -0.678699    1.126982

--------------------------------
INTERNAL COORDINATES (ANGSTROEM)
--------------------------------
 C      0   0   0     0.000000000000     0.00000000     0.00000000
 C      1   0   0     1.515480916060     0.00000000     0.00000000
 O      2   1   0     1.437685427200   111.86722522     0.00000000
 P      3   2   1     1.592755218381   125.71643575    82.04545343
 S      4   3   2     1.961726151779   118.35724813   287.92497234
 O      4   3   2     1.571668523722   101.11930806   169.09877656
 C      6   4   3     1.449785762354   125.82948991   322.21759602
 C      7   6   4     1.513530608476   112.56310040   295.79780341
 S      4   3   2     2.134572343548   104.93475675    57.34605409
 C      9   4   3     1.799180240979   100.58266565   243.67204841
 S     10   9   4     1.832731675932   112.75103109    73.67483565
 P     11  10   9     2.108230393891   100.54247772   223.96977776
 S     12  11  10     1.964918395137   116.70795086   345.63779033
 O     12  11  10     1.591116389856   102.36725644   220.47170722
 C     14  12  11     1.440321543708   121.51791896    76.86581416
 C     15  14  12     1.515435655784   107.92487706   163.64968319
 O     12  11  10     1.579997286596   102.37786637   117.08684307
 C     17  12  11     1.440372507773   122.30833254   202.18329494
 C     18  17  12     1.513338396723   111.67416859   293.17546859
 H      1   2   3     1.085188594587   109.23504966   175.45400009
 H      1   2   3     1.088439689974   110.56990055   295.02308669
 H      1   2   3     1.086823920363   110.26458840    55.04467515
 H      2   1   3     1.091737658239   111.11776706   244.43014122
 H      2   1   3     1.094866054860   110.85996376   122.25033577
 H      7   6   4     1.091189804846   108.16967792    59.08431465
 H      7   6   4     1.091059100933   102.98353604   175.45075794
 H      8   7   6     1.085630193537   108.98139121   185.63930259
 H      8   7   6     1.086816513990   110.43788253   305.63205106
 H      8   7   6     1.088632987550   110.56759706    65.87676511
 H     10   9   4     1.092856677713   110.28047805   312.49212363
 H     10   9   4     1.086962502430   105.81683826   192.06292682
 H     15  14  12     1.093807827508   108.20904993   284.26715354
 H     15  14  12     1.095549289877   108.53591906    42.55366620
 H     16  15  14     1.084967532416   109.14772428   178.15585708
 H     16  15  14     1.086248411779   110.17848215   298.15207275
 H     16  15  14     1.085999879625   109.84529363    58.14814569
 H     18  17  12     1.095344443871   108.31889036    56.16913380
 H     18  17  12     1.090861072468   103.80076516   172.22895651
 H     19  18  17     1.085401929431   109.38318703   184.67686235
 H     19  18  17     1.086795981020   110.06870989   305.28672513
 H     19  18  17     1.089626591483   109.70742864    65.17201897

---------------------------
INTERNAL COORDINATES (A.U.)
---------------------------
 C      0   0   0     0.000000000000     0.00000000     0.00000000
 C      1   0   0     2.863843892538     0.00000000     0.00000000
 O      2   1   0     2.716831724138   111.86722522     0.00000000
 P      3   2   1     3.009871161115   125.71643575    82.04545343
 S      4   3   2     3.707125176613   118.35724813   287.92497234
 O      4   3   2     2.970023083138   101.11930806   169.09877656
 C      6   4   3     2.739698043708   125.82948991   322.21759602
 C      7   6   4     2.860158345326   112.56310040   295.79780341
 S      4   3   2     4.033757142349   104.93475675    57.34605409
 C      9   4   3     3.399957921012   100.58266565   243.67204841
 S     10   9   4     3.463360944474   112.75103109    73.67483565
 P     11  10   9     3.983978071663   100.54247772   223.96977776
 S     12  11  10     3.713157642313   116.70795086   345.63779033
 O     12  11  10     3.006774224022   102.36725644   220.47170722
 C     14  12  11     2.721813262395   121.51791896    76.86581416
 C     15  14  12     2.863758363012   107.92487706   163.64968319
 O     12  11  10     2.985762164005   102.37786637   117.08684307
 C     17  12  11     2.721909570520   122.30833254   202.18329494
 C     18  17  12     2.859795117754   111.67416859   293.17546859
 H      1   2   3     2.050709247424   109.23504966   175.45400009
 H      1   2   3     2.056852927341   110.56990055   295.02308669
 H      1   2   3     2.053799565280   110.26458840    55.04467515
 H      2   1   3     2.063085184159   111.11776706   244.43014122
 H      2   1   3     2.068996997012   110.85996376   122.25033577
 H      7   6   4     2.062049891287   108.16967792    59.08431465
 H      7   6   4     2.061802896686   102.98353604   175.45075794
 H      8   7   6     2.051543748502   108.98139121   185.63930259
 H      8   7   6     2.053785569263   110.43788253   305.63205106
 H      8   7   6     2.057218206822   110.56759706    65.87676511
 H     10   9   4     2.065199824504   110.28047805   312.49212363
 H     10   9   4     2.054061447435   105.81683826   192.06292682
 H     15  14  12     2.066997237129   108.20904993   284.26715354
 H     15  14  12     2.070288124079   108.53591906    42.55366620
 H     16  15  14     2.050291500463   109.14772428   178.15585708
 H     16  15  14     2.052712011669   110.17848215   298.15207275
 H     16  15  14     2.052242353962   109.84529363    58.14814569
 H     18  17  12     2.069901021228   108.31889036    56.16913380
 H     18  17  12     2.061428677121   103.80076516   172.22895651
 H     19  18  17     2.051112391854   109.38318703   184.67686235
 H     19  18  17     2.053746767573   110.06870989   305.28672513
 H     19  18  17     2.059095846141   109.70742864    65.17201897

---------------------
BASIS SET INFORMATION
---------------------
There are 5 groups of distinct atoms

 Group   1 Type C   : 7s4p1d contracted to 3s2p1d pattern {511/31/1}
 Group   2 Type O   : 7s4p1d contracted to 3s2p1d pattern {511/31/1}
 Group   3 Type P   : 10s7p1d contracted to 4s3p1d pattern {5311/511/1}
 Group   4 Type S   : 10s7p1d contracted to 4s3p1d pattern {5311/511/1}
 Group   5 Type H   : 4s contracted to 2s pattern {31}

Atom   0C    basis set group =>   1
Atom   1C    basis set group =>   1
Atom   2O    basis set group =>   2
Atom   3P    basis set group =>   3
Atom   4S    basis set group =>   4
Atom   5O    basis set group =>   2
Atom   6C    basis set group =>   1
Atom   7C    basis set group =>   1
Atom   8S    basis set group =>   4
Atom   9C    basis set group =>   1
Atom  10S    basis set group =>   4
Atom  11P    basis set group =>   3
Atom  12S    basis set group =>   4
Atom  13O    basis set group =>   2
Atom  14C    basis set group =>   1
Atom  15C    basis set group =>   1
Atom  16O    basis set group =>   2
Atom  17C    basis set group =>   1
Atom  18C    basis set group =>   1
Atom  19H    basis set group =>   5
Atom  20H    basis set group =>   5
Atom  21H    basis set group =>   5
Atom  22H    basis set group =>   5
Atom  23H    basis set group =>   5
Atom  24H    basis set group =>   5
Atom  25H    basis set group =>   5
Atom  26H    basis set group =>   5
Atom  27H    basis set group =>   5
Atom  28H    basis set group =>   5
Atom  29H    basis set group =>   5
Atom  30H    basis set group =>   5
Atom  31H    basis set group =>   5
Atom  32H    basis set group =>   5
Atom  33H    basis set group =>   5
Atom  34H    basis set group =>   5
Atom  35H    basis set group =>   5
Atom  36H    basis set group =>   5
Atom  37H    basis set group =>   5
Atom  38H    basis set group =>   5
Atom  39H    basis set group =>   5
Atom  40H    basis set group =>   5
---------------------------------
AUXILIARY/J BASIS SET INFORMATION
---------------------------------
There are 5 groups of distinct atoms

 Group   1 Type C   : 12s5p4d2f1g contracted to 6s4p3d1f1g pattern {711111/2111/211/2/1}
 Group   2 Type O   : 12s5p4d2f1g contracted to 6s4p3d1f1g pattern {711111/2111/211/2/1}
 Group   3 Type P   : 14s5p5d2f1g contracted to 8s4p3d1f1g pattern {71111111/2111/311/2/1}
 Group   4 Type S   : 14s5p5d2f1g contracted to 8s4p3d1f1g pattern {71111111/2111/311/2/1}
 Group   5 Type H   : 5s2p1d contracted to 3s1p1d pattern {311/2/1}

Atom   0C    basis set group =>   1
Atom   1C    basis set group =>   1
Atom   2O    basis set group =>   2
Atom   3P    basis set group =>   3
Atom   4S    basis set group =>   4
Atom   5O    basis set group =>   2
Atom   6C    basis set group =>   1
Atom   7C    basis set group =>   1
Atom   8S    basis set group =>   4
Atom   9C    basis set group =>   1
Atom  10S    basis set group =>   4
Atom  11P    basis set group =>   3
Atom  12S    basis set group =>   4
Atom  13O    basis set group =>   2
Atom  14C    basis set group =>   1
Atom  15C    basis set group =>   1
Atom  16O    basis set group =>   2
Atom  17C    basis set group =>   1
Atom  18C    basis set group =>   1
Atom  19H    basis set group =>   5
Atom  20H    basis set group =>   5
Atom  21H    basis set group =>   5
Atom  22H    basis set group =>   5
Atom  23H    basis set group =>   5
Atom  24H    basis set group =>   5
Atom  25H    basis set group =>   5
Atom  26H    basis set group =>   5
Atom  27H    basis set group =>   5
Atom  28H    basis set group =>   5
Atom  29H    basis set group =>   5
Atom  30H    basis set group =>   5
Atom  31H    basis set group =>   5
Atom  32H    basis set group =>   5
Atom  33H    basis set group =>   5
Atom  34H    basis set group =>   5
Atom  35H    basis set group =>   5
Atom  36H    basis set group =>   5
Atom  37H    basis set group =>   5
Atom  38H    basis set group =>   5
Atom  39H    basis set group =>   5
Atom  40H    basis set group =>   5
------------------------------------------------------------------------------
                             ORCA STARTUP CALCULATIONS
                           -- RI-GTO INTEGRALS CHOSEN --
------------------------------------------------------------------------------
------------------------------------------------------------------------------
                   ___                                                        
                  /   \      - P O W E R E D   B Y -                         
                 /     \                                                     
                 |  |  |   _    _      __       _____    __    __             
                 |  |  |  | |  | |    /  \     |  _  \  |  |  /  |          
                  \  \/   | |  | |   /    \    | | | |  |  | /  /          
                 / \  \   | |__| |  /  /\  \   | |_| |  |  |/  /          
                |  |  |   |  __  | /  /__\  \  |    /   |      \           
                |  |  |   | |  | | |   __   |  |    \   |  |\   \          
                \     /   | |  | | |  |  |  |  | |\  \  |  | \   \       
                 \___/    |_|  |_| |__|  |__|  |_| \__\ |__|  \__/        
                                                                              
                      - O R C A' S   B I G   F R I E N D -                    
                                      &                                       
                       - I N T E G R A L  F E E D E R -                       
                                                                              
 v1 FN, 2020, v2 2021, v3 2022-2024                                           
------------------------------------------------------------------------------


----------------------
SHARK INTEGRAL PACKAGE
----------------------

Number of atoms                             ...     41
Number of basis functions                   ...    334
Number of shells                            ...    170
Maximum angular momentum                    ...      2
Integral batch strategy                     ... SHARK/LIBINT Hybrid
RI-J (if used) integral strategy            ... SPLIT-RIJ (Revised 2003 algorithm where possible)
Printlevel                                  ...      1
Contraction scheme used                     ... SEGMENTED contraction
Prescreening option                         ... SCHWARTZ
   Thresh                                   ... 1.000e-09
   Tcut                                     ... 1.000e-10
   Tpresel                                  ... 1.000e-10 
Coulomb Range Separation                    ... NOT USED
Exchange Range Separation                   ... NOT USED
Multipole approximations                    ... NOT USED
Finite Nucleus Model                        ... NOT USED
CABS basis                                  ... NOT available
Auxiliary Coulomb fitting basis             ... AVAILABLE
   # of basis functions in Aux-J            ...   1185
   # of shells in Aux-J                     ...    407
   Maximum angular momentum in Aux-J        ...      4
Auxiliary J/K fitting basis                 ... NOT available
Auxiliary Correlation fitting basis         ... NOT available
Auxiliary 'external' fitting basis          ... NOT available

Checking pre-screening integrals            ... done (  0.0 sec) Dimension = 170
Check shell pair data                       ... done (  0.0 sec)
Shell pair information
Shell pair cut-off parameter TPreSel        ...   1.0e-10
Total number of shell pairs                 ...     14535
Shell pairs after pre-screening             ...     10062
Total number of primitive shell pairs       ...     62501
Primitive shell pairs kept                  ...     25038
          la=0 lb=0:   3881 shell pairs
          la=1 lb=0:   3417 shell pairs
          la=1 lb=1:    793 shell pairs
          la=2 lb=0:   1275 shell pairs
          la=2 lb=1:    585 shell pairs
          la=2 lb=2:    111 shell pairs

Calculating one electron integrals          ... done (  0.0 sec)
Calculating RI/J V-Matrix + Cholesky decomp.... done (  0.1 sec)
Calculating Nuclear repulsion               ... done (  0.0 sec) ENN=   2767.855646221327 Eh

Diagonalization of the overlap matrix:
Smallest eigenvalue                        ... 3.184e-03
Time for diagonalization                   ...    0.010 sec
Threshold for overlap eigenvalues          ... 1.000e-07
Number of eigenvalues below threshold      ... 0
Time for construction of square roots      ...    0.022 sec
Total time needed                          ...    0.040 sec

-------------------
DFT GRID GENERATION
-------------------

General Integration Accuracy     IntAcc      ... 4.159
Radial Grid Type                 RadialGrid  ... OptM3 with GC (2021)
Angular Grid (max. ang.)         AngularGrid ... 3 (Lebedev-194)
Angular grid pruning method      GridPruning ... 4 (adaptive)
Weight generation scheme         WeightScheme... mBecke (2022)
Basis function cutoff            BFCut       ... 1.0000e-10
Integration weight cutoff        WCut        ... 1.0000e-14
Partially contracted basis set               ... off
Rotationally invariant grid construction     ... off
Angular grids for H and He will be reduced by one unit

Total number of grid points                  ...    97505
Total number of batches                      ...     1543
Average number of points per batch           ...       63
Average number of grid points per atom       ...     2378
Initializing property integral containers    ... done (  0.0 sec)

SHARK setup successfully completed in   1.5 seconds

Maximum memory used throughout the entire STARTUP-calculation: 51.4 MB
-------------------------------------------------------------------------------
                                 ORCA GUESS
                   Start orbitals & Density for SCF / CASSCF
-------------------------------------------------------------------------------

------------
SCF SETTINGS
------------
Hamiltonian:
 Density Functional     Method          .... DFT(GTOs)
 Exchange Functional    Exchange        .... PBE
   PBE kappa parameter   XKappa         ....  0.804000
   PBE mue parameter    XMuePBE         ....  0.219520
 Correlation Functional Correlation     .... PBE
   PBE beta parameter  CBetaPBE         ....  0.066725
 LDA part of GGA corr.  LDAOpt          .... PW91-LDA
 Gradients option       PostSCFGGA      .... off
   NL short-range parameter             ....  6.400000
 RI-approximation to the Coulomb term is turned on
   Number of AuxJ basis functions       .... 1185


General Settings:
 Integral files         IntName         .... sp
 Hartree-Fock type      HFTyp           .... RHF
 Total Charge           Charge          ....    0
 Multiplicity           Mult            ....    1
 Number of Electrons    NEL             ....  202
 Basis Dimension        Dim             ....  334
 Nuclear Repulsion      ENuc            ....   2767.8556462213 Eh

Convergence Acceleration:
 AO-DIIS                CNVDIIS         .... on
   Start iteration      DIISMaxIt       ....    12
   Startup error        DIISStart       ....  0.200000
   # of expansion vecs  DIISMaxEq       ....     5
   Bias factor          DIISBfac        ....   1.050
   Max. coefficient     DIISMaxC        ....  10.000
 MO-DIIS                CNVKDIIS        .... off
 Trust-Rad. Augm. Hess. CNVTRAH         .... auto
   Auto Start mean grad. ratio tolernc. ....  1.125000
   Auto Start start iteration           ....    50
   Auto Start num. interpolation iter.  ....    10
   Max. Number of Micro iterations      ....    24
   Max. Number of Macro iterations      .... Maxiter - #DIIS iter
   Number of Davidson start vectors     ....     2
   Converg. threshold    (grad. norm)   ....   1.000e-04
   Grad. Scal. Fac. for Micro threshold ....   0.100
   Minimum threshold for Micro iter.    ....   1.000e-02
   NR start threshold (gradient norm)   ....   1.000e-04
   Initial trust radius                 ....   0.400
   Minimum AH scaling param. (alpha)    ....   1.000
   Maximum AH scaling param. (alpha)    .... 1000.000
   Quad. conv. algorithm                .... NR
   White noise on init. David. guess    .... on
   Maximum white noise                  ....   0.010
   Pseudo random numbers                .... off
   Inactive MOs                         .... canonical
   Orbital update algorithm             .... Taylor
   Preconditioner                       .... Diag
   Full preconditioner red. dimension   ....   250
 SOSCF                  CNVSOSCF        .... on
   Start iteration      SOSCFMaxIt      ....   150
   Startup grad/error   SOSCFStart      ....  0.003300
   Hessian update       SOSCFHessUp     .... L-BFGS
 Level Shifting         CNVShift        .... on
   Level shift para.    LevelShift      ....    0.2500
   Turn off err/grad.   ShiftErr        ....    0.0010
 Zerner damping         CNVZerner       .... off
 Static damping         CNVDamp         .... on
   Fraction old density DampFac         ....    0.7000
   Max. Damping (<1)    DampMax         ....    0.9800
   Min. Damping (>=0)   DampMin         ....    0.0000
   Turn off err/grad.   DampErr         ....    0.1000

SCF Procedure:
 Maximum # iterations   MaxIter         ....   125
 SCF integral mode      SCFMode         .... Direct
   Integral package                     .... SHARK and LIBINT hybrid scheme
 Reset frequency        DirectResetFreq ....    20
 Integral Threshold     Thresh          ....  1.000e-09 Eh
 Primitive CutOff       TCut            ....  1.000e-10 Eh

Convergence Tolerance:
 Convergence Check Mode ConvCheckMode   .... Total+1el-Energy
 Convergence forced     ConvForced      .... 0
 Energy Change          TolE            ....  1.000e-05 Eh
 1-El. energy change                    ....  1.000e-02 Eh
 Orbital Gradient       TolG            ....  1.000e-04
 Orbital Rotation angle TolX            ....  1.000e-04
 DIIS Error             TolErr          ....  5.000e-04

------------------------------
INITIAL GUESS: MODEL POTENTIAL
------------------------------
Loading Hartree-Fock densities                     ... done
Calculating cut-offs                               ... done
Initializing the effective Hamiltonian             ... done
Setting up the integral package (SHARK)            ... done
Starting the Coulomb interaction                   ... done (   0.6 sec)
Making the grid                                    ... done (   0.5 sec)
Mapping shells                                     ... done
Starting the XC term evaluation                    ... done (   0.4 sec)
  promolecular density results
     # of electrons  =    201.982571718
     EX              =   -229.996711183
     EC              =     -7.288039896
     EX+EC           =   -237.284751079
Transforming the Hamiltonian                       ... done (   0.0 sec)
Diagonalizing the Hamiltonian                      ... done (   0.0 sec)
Back transforming the eigenvectors                 ... done (   0.0 sec)
Now organizing SCF variables                       ... done
                      ------------------
                      INITIAL GUESS DONE (   1.6 sec)
                      ------------------
             **** ENERGY FILE WAS UPDATED (sp.en.tmp) ****
Finished Guess after   1.9 sec
Maximum memory used throughout the entire GUESS-calculation: 39.0 MB

-------------------------------------------------------------------------------------------
                                      ORCA LEAN-SCF
                              memory conserving SCF solver
-------------------------------------------------------------------------------------------

----------------------------------------D-I-I-S--------------------------------------------
Iteration    Energy (Eh)           Delta-E    RMSDP     MaxDP     DIISErr   Damp  Time(sec)
-------------------------------------------------------------------------------------------
               ***  Starting incremental Fock matrix formation  ***
    1    -2929.1878566362147467     0.00e+00  2.72e-03  1.39e-01  1.88e-01  0.700   2.2
    2    -2929.4150220424480722    -2.27e-01  1.77e-03  7.24e-02  7.69e-02  0.700   2.1
                               ***Turning on AO-DIIS***
    3    -2929.4865592618771188    -7.15e-02  6.87e-04  1.88e-02  2.28e-02  0.700   2.0
    4    -2929.5317321221309612    -4.52e-02  1.04e-03  3.61e-02  1.11e-02  0.000   2.0
    5    -2929.6374239412079987    -1.06e-01  3.17e-04  1.30e-02  8.13e-03  0.000   2.0
                              *** Initializing SOSCF ***
---------------------------------------S-O-S-C-F--------------------------------------
Iteration    Energy (Eh)           Delta-E    RMSDP     MaxDP     MaxGrad    Time(sec)
--------------------------------------------------------------------------------------
    6    -2929.6385413143525511    -1.12e-03  1.13e-04  3.53e-03  2.10e-03     1.9
               *** Restarting incremental Fock matrix formation ***
    7    -2929.6386843124901134    -1.43e-04  7.74e-05  2.10e-03  2.61e-04     2.2
    8    -2929.6386880836189448    -3.77e-06  3.19e-05  7.97e-04  2.52e-04     1.8
                 **** Energy Check signals convergence ****

               *****************************************************
               *                     SUCCESS                       *
               *           SCF CONVERGED AFTER   8 CYCLES          *
               *****************************************************

             **** ENERGY FILE WAS UPDATED (sp.en.tmp) ****

----------------
TOTAL SCF ENERGY
----------------

Total Energy       :      -2929.63868808361894 Eh          -79719.52156 eV

Components:
Nuclear Repulsion  :       2767.85564622132733 Eh           75317.18119 eV
Electronic Energy  :      -5697.49433430494537 Eh         -155036.70275 eV
One Electron Energy:      -9554.79476111330405 Eh         -259999.18355 eV
Two Electron Energy:       3857.30042680835822 Eh          104962.48080 eV

Virial components:
Potential Energy   :      -5848.89859639270253 Eh         -159156.62217 eV
Kinetic Energy     :       2919.25990830908313 Eh           79437.10061 eV
Virial Ratio       :          2.00355527774180

DFT components:
N(Alpha)           :      100.999976035244 electrons
N(Beta)            :      100.999976035244 electrons
N(Total)           :      201.999952070488 electrons
E(X)               :     -231.804371709124 Eh       
E(C)               :       -7.296587815306 Eh       
E(XC)              :     -239.100959524430 Eh       

---------------
SCF CONVERGENCE
---------------

  Last Energy change         ...    3.7711e-06  Tolerance :   1.0000e-05
  Last MAX-Density change    ...    7.9656e-04  Tolerance :   1.0000e-03
  Last RMS-Density change    ...    3.1945e-05  Tolerance :   1.0000e-04
  Last DIIS Error            ...    2.1043e-03  Tolerance :   5.0000e-04
  Last Orbital Gradient      ...    2.5214e-04  Tolerance :   1.0000e-04
  Last Orbital Rotation      ...    4.1368e-04  Tolerance :   1.0000e-04


----------------
ORBITAL ENERGIES
----------------

  NO   OCC          E(Eh)            E(eV) 
   0   2.0000     -88.045496     -2395.8397 
   1   2.0000     -88.041199     -2395.7228 
   2   2.0000     -87.984958     -2394.1924 
   3   2.0000     -87.977796     -2393.9975 
   4   2.0000     -76.424045     -2079.6040 
   5   2.0000     -76.423689     -2079.5943 
   6   2.0000     -18.791170      -511.3337 
   7   2.0000     -18.790282      -511.3096 
   8   2.0000     -18.787556      -511.2354 
   9   2.0000     -18.786783      -511.2144 
  10   2.0000      -9.957364      -270.9536 
  11   2.0000      -9.952531      -270.8221 
  12   2.0000      -9.950405      -270.7643 
  13   2.0000      -9.949176      -270.7308 
  14   2.0000      -9.946296      -270.6525 
  15   2.0000      -9.892753      -269.1955 
  16   2.0000      -9.886700      -269.0308 
  17   2.0000      -9.878862      -268.8175 
  18   2.0000      -9.873632      -268.6752 
  19   2.0000      -7.690164      -209.2600 
  20   2.0000      -7.686129      -209.1502 
  21   2.0000      -7.629825      -207.6181 
  22   2.0000      -7.622604      -207.4216 
  23   2.0000      -6.421226      -174.7304 
  24   2.0000      -6.421102      -174.7271 
  25   2.0000      -5.718167      -155.5992 
  26   2.0000      -5.714366      -155.4958 
  27   2.0000      -5.713928      -155.4839 
  28   2.0000      -5.710709      -155.3963 
  29   2.0000      -5.707417      -155.3067 
  30   2.0000      -5.703097      -155.1892 
  31   2.0000      -5.658737      -153.9821 
  32   2.0000      -5.651749      -153.7919 
  33   2.0000      -5.650526      -153.7586 
  34   2.0000      -5.649925      -153.7423 
  35   2.0000      -5.642934      -153.5520 
  36   2.0000      -5.642825      -153.5491 
  37   2.0000      -4.644095      -126.3722 
  38   2.0000      -4.643295      -126.3505 
  39   2.0000      -4.643092      -126.3449 
  40   2.0000      -4.642858      -126.3386 
  41   2.0000      -4.641916      -126.3130 
  42   2.0000      -4.641366      -126.2980 
  43   2.0000      -0.986928       -26.8557 
  44   2.0000      -0.983995       -26.7759 
  45   2.0000      -0.941984       -25.6327 
  46   2.0000      -0.941648       -25.6235 
  47   2.0000      -0.760556       -20.6958 
  48   2.0000      -0.720790       -19.6137 
  49   2.0000      -0.710670       -19.3383 
  50   2.0000      -0.689059       -18.7502 
  51   2.0000      -0.684741       -18.6327 
  52   2.0000      -0.673488       -18.3265 
  53   2.0000      -0.648338       -17.6422 
  54   2.0000      -0.632979       -17.2242 
  55   2.0000      -0.597688       -16.2639 
  56   2.0000      -0.587359       -15.9829 
  57   2.0000      -0.576929       -15.6990 
  58   2.0000      -0.564298       -15.3553 
  59   2.0000      -0.559890       -15.2354 
  60   2.0000      -0.502851       -13.6833 
  61   2.0000      -0.495541       -13.4844 
  62   2.0000      -0.472871       -12.8675 
  63   2.0000      -0.471959       -12.8427 
  64   2.0000      -0.450057       -12.2467 
  65   2.0000      -0.448189       -12.1958 
  66   2.0000      -0.440985       -11.9998 
  67   2.0000      -0.431524       -11.7424 
  68   2.0000      -0.426290       -11.5999 
  69   2.0000      -0.418095       -11.3769 
  70   2.0000      -0.412583       -11.2269 
  71   2.0000      -0.397651       -10.8206 
  72   2.0000      -0.392999       -10.6941 
  73   2.0000      -0.386892       -10.5279 
  74   2.0000      -0.382395       -10.4055 
  75   2.0000      -0.372302       -10.1309 
  76   2.0000      -0.361211        -9.8290 
  77   2.0000      -0.356248        -9.6940 
  78   2.0000      -0.352085        -9.5807 
  79   2.0000      -0.350270        -9.5313 
  80   2.0000      -0.344371        -9.3708 
  81   2.0000      -0.341784        -9.3004 
  82   2.0000      -0.341240        -9.2856 
  83   2.0000      -0.333352        -9.0710 
  84   2.0000      -0.328992        -8.9523 
  85   2.0000      -0.314364        -8.5543 
  86   2.0000      -0.310506        -8.4493 
  87   2.0000      -0.297863        -8.1053 
  88   2.0000      -0.294151        -8.0043 
  89   2.0000      -0.288973        -7.8633 
  90   2.0000      -0.281881        -7.6704 
  91   2.0000      -0.275676        -7.5015 
  92   2.0000      -0.270843        -7.3700 
  93   2.0000      -0.262158        -7.1337 
  94   2.0000      -0.255331        -6.9479 
  95   2.0000      -0.237795        -6.4707 
  96   2.0000      -0.219382        -5.9697 
  97   2.0000      -0.211223        -5.7477 
  98   2.0000      -0.200299        -5.4504 
  99   2.0000      -0.192931        -5.2499 
 100   2.0000      -0.186448        -5.0735 
 101   0.0000      -0.042371        -1.1530 
 102   0.0000      -0.032414        -0.8820 
 103   0.0000      -0.009468        -0.2576 
 104   0.0000       0.007595         0.2067 
 105   0.0000       0.018669         0.5080 
 106   0.0000       0.029237         0.7956 
 107   0.0000       0.037364         1.0167 
 108   0.0000       0.039224         1.0673 
 109   0.0000       0.045227         1.2307 
 110   0.0000       0.049681         1.3519 
 111   0.0000       0.057848         1.5741 
*Only the first 10 virtual orbitals were printed.

                    ********************************
                    * MULLIKEN POPULATION ANALYSIS *
                    ********************************

-----------------------
MULLIKEN ATOMIC CHARGES
-----------------------
   0 C :   -0.323644
   1 C :   -0.009962
   2 O :   -0.382389
   3 P :    0.613541
   4 S :   -0.308604
   5 O :   -0.356384
   6 C :    0.002882
   7 C :   -0.332119
   8 S :   -0.135301
   9 C :   -0.326421
  10 S :   -0.117542
  11 P :    0.624682
  12 S :   -0.318471
  13 O :   -0.374805
  14 C :   -0.009017
  15 C :   -0.280027
  16 O :   -0.356714
  17 C :   -0.004057
  18 C :   -0.303284
  19 H :    0.103498
  20 H :    0.160033
  21 H :    0.109112
  22 H :    0.098778
  23 H :    0.107963
  24 H :    0.112071
  25 H :    0.112464
  26 H :    0.118241
  27 H :    0.130168
  28 H :    0.129856
  29 H :    0.214501
  30 H :    0.178315
  31 H :    0.096821
  32 H :    0.102295
  33 H :    0.110724
  34 H :    0.118948
  35 H :    0.116057
  36 H :    0.123481
  37 H :    0.105596
  38 H :    0.111485
  39 H :    0.114143
  40 H :    0.123084
Sum of atomic charges:   -0.0000000

--------------------------------
MULLIKEN REDUCED ORBITAL CHARGES
--------------------------------
  0 C s       :     3.105618  s :     3.105618
      pz      :     1.067903  p :     3.190307
      px      :     1.065507
      py      :     1.056897
      dz2     :     0.003184  d :     0.027719
      dxz     :     0.006955
      dyz     :     0.007528
      dx2y2   :     0.007556
      dxy     :     0.002496

  1 C s       :     3.080082  s :     3.080082
      pz      :     1.023309  p :     2.869504
      px      :     1.060521
      py      :     0.785674
      dz2     :     0.007406  d :     0.060376
      dxz     :     0.010384
      dyz     :     0.016270
      dx2y2   :     0.014653
      dxy     :     0.011662

  2 O s       :     3.755053  s :     3.755053
      pz      :     1.510752  p :     4.614794
      px      :     1.691719
      py      :     1.412324
      dz2     :     0.002883  d :     0.012541
      dxz     :     0.002567
      dyz     :     0.002327
      dx2y2   :     0.002057
      dxy     :     0.002708

  3 P s       :     5.201857  s :     5.201857
      pz      :     2.849221  p :     8.598189
      px      :     2.889824
      py      :     2.859144
      dz2     :     0.108661  d :     0.586414
      dxz     :     0.107052
      dyz     :     0.128500
      dx2y2   :     0.101905
      dxy     :     0.140295

  4 S s       :     5.915196  s :     5.915196
      pz      :     3.668970  p :    10.350376
      px      :     3.128602
      py      :     3.552804
      dz2     :     0.006060  d :     0.043032
      dxz     :     0.008261
      dyz     :     0.001948
      dx2y2   :     0.013782
      dxy     :     0.012980

  5 O s       :     3.749055  s :     3.749055
      pz      :     1.767372  p :     4.594209
      px      :     1.262127
      py      :     1.564710
      dz2     :     0.001903  d :     0.013120
      dxz     :     0.001895
      dyz     :     0.001816
      dx2y2   :     0.003574
      dxy     :     0.003931

  6 C s       :     3.074704  s :     3.074704
      pz      :     1.067301  p :     2.862879
      px      :     0.710939
      py      :     1.084640
      dz2     :     0.014230  d :     0.059534
      dxz     :     0.011300
      dyz     :     0.004514
      dx2y2   :     0.018486
      dxy     :     0.011005

  7 C s       :     3.116538  s :     3.116538
      pz      :     1.065394  p :     3.187424
      px      :     1.060311
      py      :     1.061718
      dz2     :     0.009475  d :     0.028157
      dxz     :     0.002881
      dyz     :     0.004016
      dx2y2   :     0.008866
      dxy     :     0.002920

  8 S s       :     5.875404  s :     5.875404
      pz      :     3.445997  p :    10.183352
      px      :     3.188738
      py      :     3.548618
      dz2     :     0.013235  d :     0.076544
      dxz     :     0.012784
      dyz     :     0.015929
      dx2y2   :     0.021849
      dxy     :     0.012747

  9 C s       :     3.206553  s :     3.206553
      pz      :     1.040482  p :     3.080397
      px      :     0.939078
      py      :     1.100837
      dz2     :     0.009114  d :     0.039471
      dxz     :     0.006253
      dyz     :     0.007533
      dx2y2   :     0.006673
      dxy     :     0.009899

 10 S s       :     5.879360  s :     5.879360
      pz      :     3.502562  p :    10.165371
      px      :     3.194616
      py      :     3.468192
      dz2     :     0.012146  d :     0.072811
      dxz     :     0.010361
      dyz     :     0.015560
      dx2y2   :     0.014325
      dxy     :     0.020418

 11 P s       :     5.201323  s :     5.201323
      pz      :     2.831035  p :     8.587177
      px      :     2.895163
      py      :     2.860979
      dz2     :     0.156203  d :     0.586817
      dxz     :     0.086292
      dyz     :     0.112505
      dx2y2   :     0.103444
      dxy     :     0.128374

 12 S s       :     5.923398  s :     5.923398
      pz      :     3.375887  p :    10.351725
      px      :     3.597630
      py      :     3.378209
      dz2     :     0.008283  d :     0.043348
      dxz     :     0.005951
      dyz     :     0.016350
      dx2y2   :     0.006659
      dxy     :     0.006105

 13 O s       :     3.767976  s :     3.767976
      pz      :     1.510859  p :     4.593815
      px      :     1.602674
      py      :     1.480282
      dz2     :     0.003759  d :     0.013014
      dxz     :     0.001856
      dyz     :     0.002632
      dx2y2   :     0.001991
      dxy     :     0.002776

 14 C s       :     3.069362  s :     3.069362
      pz      :     0.850225  p :     2.879687
      px      :     1.051064
      py      :     0.978398
      dz2     :     0.012020  d :     0.059968
      dxz     :     0.010318
      dyz     :     0.018335
      dx2y2   :     0.007326
      dxy     :     0.011969

 15 C s       :     3.090752  s :     3.090752
      pz      :     1.063049  p :     3.161414
      px      :     1.035814
      py      :     1.062551
      dz2     :     0.004330  d :     0.027861
      dxz     :     0.003093
      dyz     :     0.008874
      dx2y2   :     0.004157
      dxy     :     0.007407

 16 O s       :     3.753182  s :     3.753182
      pz      :     1.396759  p :     4.590312
      px      :     1.655903
      py      :     1.537650
      dz2     :     0.004604  d :     0.013220
      dxz     :     0.002207
      dyz     :     0.002299
      dx2y2   :     0.001627
      dxy     :     0.002484

 17 C s       :     3.086415  s :     3.086415
      pz      :     1.038328  p :     2.857016
      px      :     0.932903
      py      :     0.885784
      dz2     :     0.010959  d :     0.060626
      dxz     :     0.009798
      dyz     :     0.010454
      dx2y2   :     0.014307
      dxy     :     0.015108

 18 C s       :     3.097082  s :     3.097082
      pz      :     1.096017  p :     3.178272
      px      :     1.015302
      py      :     1.066954
      dz2     :     0.006129  d :     0.027930
      dxz     :     0.005236
      dyz     :     0.005188
      dx2y2   :     0.005833
      dxy     :     0.005544

 19 H s       :     0.896502  s :     0.896502

 20 H s       :     0.839967  s :     0.839967

 21 H s       :     0.890888  s :     0.890888

 22 H s       :     0.901222  s :     0.901222

 23 H s       :     0.892037  s :     0.892037

 24 H s       :     0.887929  s :     0.887929

 25 H s       :     0.887536  s :     0.887536

 26 H s       :     0.881759  s :     0.881759

 27 H s       :     0.869832  s :     0.869832

 28 H s       :     0.870144  s :     0.870144

 29 H s       :     0.785499  s :     0.785499

 30 H s       :     0.821685  s :     0.821685

 31 H s       :     0.903179  s :     0.903179

 32 H s       :     0.897705  s :     0.897705

 33 H s       :     0.889276  s :     0.889276

 34 H s       :     0.881052  s :     0.881052

 35 H s       :     0.883943  s :     0.883943

 36 H s       :     0.876519  s :     0.876519

 37 H s       :     0.894404  s :     0.894404

 38 H s       :     0.888515  s :     0.888515

 39 H s       :     0.885857  s :     0.885857

 40 H s       :     0.876916  s :     0.876916


------------------------
MULLIKEN OVERLAP CHARGES
------------------------
B(  0-C ,  1-C ) :   0.9153 B(  0-C ,  2-O ) :  -0.1124 B(  0-C , 19-H ) :   0.6877 
B(  0-C , 20-H ) :   0.7150 B(  0-C , 21-H ) :   0.7227 B(  0-C , 22-H ) :  -0.0520 
B(  0-C , 23-H ) :  -0.0662 B(  1-C ,  2-O ) :   0.5756 B(  1-C ,  3-P ) :  -0.0882 
B(  1-C , 22-H ) :   0.7241 B(  1-C , 23-H ) :   0.7030 B(  2-O ,  3-P ) :   0.5967 
B(  2-O ,  4-S ) :  -0.0633 B(  2-O ,  5-O ) :  -0.0715 B(  2-O ,  8-S ) :  -0.0781 
B(  2-O , 22-H ) :  -0.0593 B(  2-O , 23-H ) :  -0.0611 B(  3-P ,  4-S ) :   0.9645 
B(  3-P ,  5-O ) :   0.6558 B(  3-P ,  6-C ) :  -0.0618 B(  3-P ,  8-S ) :   0.5088 
B(  3-P ,  9-C ) :  -0.0637 B(  4-S ,  5-O ) :  -0.0758 B(  4-S ,  8-S ) :  -0.0907 
B(  4-S , 29-H ) :   0.0518 B(  5-O ,  6-C ) :   0.5359 B(  5-O ,  7-C ) :  -0.0955 
B(  5-O ,  8-S ) :  -0.0616 B(  5-O , 24-H ) :  -0.0576 B(  5-O , 25-H ) :  -0.0550 
B(  6-C ,  7-C ) :   0.9104 B(  6-C , 24-H ) :   0.7366 B(  6-C , 25-H ) :   0.7328 
B(  7-C , 24-H ) :  -0.0681 B(  7-C , 26-H ) :   0.6852 B(  7-C , 27-H ) :   0.7385 
B(  7-C , 28-H ) :   0.7236 B(  8-S ,  9-C ) :   0.4814 B(  8-S , 10-S ) :  -0.1505 
B(  8-S , 23-H ) :   0.0579 B(  8-S , 30-H ) :  -0.0650 B(  9-C , 10-S ) :   0.4715 
B(  9-C , 11-P ) :  -0.0605 B(  9-C , 29-H ) :   0.6153 B(  9-C , 30-H ) :   0.7128 
B( 10-S , 11-P ) :   0.4907 B( 10-S , 12-S ) :  -0.0851 B( 10-S , 13-O ) :  -0.0674 
B( 10-S , 16-O ) :  -0.0672 B( 10-S , 29-H ) :  -0.0577 B( 10-S , 30-H ) :  -0.0610 
B( 11-P , 12-S ) :   0.9415 B( 11-P , 13-O ) :   0.6334 B( 11-P , 14-C ) :  -0.0908 
B( 11-P , 16-O ) :   0.6646 B( 11-P , 17-C ) :  -0.0928 B( 12-S , 13-O ) :  -0.0722 
B( 12-S , 16-O ) :  -0.0599 B( 12-S , 29-H ) :   0.0914 B( 12-S , 32-H ) :   0.0751 
B( 13-O , 14-C ) :   0.5643 B( 13-O , 15-C ) :  -0.1142 B( 13-O , 16-O ) :  -0.0689 
B( 13-O , 31-H ) :  -0.0662 B( 13-O , 32-H ) :  -0.0720 B( 14-C , 15-C ) :   0.8672 
B( 14-C , 31-H ) :   0.7165 B( 14-C , 32-H ) :   0.6937 B( 15-C , 33-H ) :   0.7026 
B( 15-C , 34-H ) :   0.7484 B( 15-C , 35-H ) :   0.7405 B( 16-O , 17-C ) :   0.5529 
B( 16-O , 18-C ) :  -0.0872 B( 16-O , 20-H ) :   0.0539 B( 16-O , 36-H ) :  -0.0660 
B( 16-O , 37-H ) :  -0.0641 B( 17-C , 18-C ) :   0.9115 B( 17-C , 36-H ) :   0.7357 
B( 17-C , 37-H ) :   0.7268 B( 18-C , 36-H ) :  -0.0755 B( 18-C , 37-H ) :  -0.0530 
B( 18-C , 38-H ) :   0.7024 B( 18-C , 39-H ) :   0.7249 B( 18-C , 40-H ) :   0.7201 
B( 22-H , 23-H ) :  -0.0673 B( 24-H , 25-H ) :  -0.0685 B( 27-H , 28-H ) :  -0.0632 
B( 31-H , 32-H ) :  -0.0758 B( 34-H , 35-H ) :  -0.0545 B( 36-H , 37-H ) :  -0.0654 
B( 39-H , 40-H ) :  -0.0525 


                     *******************************
                     * LOEWDIN POPULATION ANALYSIS *
                     *******************************

----------------------
LOEWDIN ATOMIC CHARGES
----------------------
   0 C :   -0.370340
   1 C :   -0.118541
   2 O :   -0.246376
   3 P :    0.562490
   4 S :   -0.292902
   5 O :   -0.234133
   6 C :   -0.109838
   7 C :   -0.370837
   8 S :    0.075161
   9 C :   -0.478783
  10 S :    0.072532
  11 P :    0.574425
  12 S :   -0.306388
  13 O :   -0.249166
  14 C :   -0.123564
  15 C :   -0.350253
  16 O :   -0.229574
  17 C :   -0.114961
  18 C :   -0.366322
  19 H :    0.127898
  20 H :    0.125594
  21 H :    0.124195
  22 H :    0.114984
  23 H :    0.097631
  24 H :    0.115257
  25 H :    0.123706
  26 H :    0.134002
  27 H :    0.130113
  28 H :    0.116501
  29 H :    0.126610
  30 H :    0.135171
  31 H :    0.106598
  32 H :    0.106154
  33 H :    0.130134
  34 H :    0.127713
  35 H :    0.126696
  36 H :    0.111980
  37 H :    0.119484
  38 H :    0.130499
  39 H :    0.125255
  40 H :    0.121194

-------------------------------
LOEWDIN REDUCED ORBITAL CHARGES
-------------------------------
  0 C s       :     2.953031  s :     2.953031
      pz      :     1.116929  p :     3.348715
      px      :     1.107901
      py      :     1.123885
      dz2     :     0.006519  d :     0.068594
      dxz     :     0.019027
      dyz     :     0.018400
      dx2y2   :     0.018818
      dxy     :     0.005831

  1 C s       :     2.927224  s :     2.927224
      pz      :     1.086693  p :     3.055977
      px      :     1.104451
      py      :     0.864832
      dz2     :     0.014071  d :     0.135340
      dxz     :     0.026714
      dyz     :     0.036301
      dx2y2   :     0.034261
      dxy     :     0.023993

  2 O s       :     3.495198  s :     3.495198
      pz      :     1.562680  p :     4.727858
      px      :     1.704924
      py      :     1.460255
      dz2     :     0.005213  d :     0.023319
      dxz     :     0.004489
      dyz     :     0.004951
      dx2y2   :     0.003797
      dxy     :     0.004869

  3 P s       :     5.055590  s :     5.055590
      pz      :     2.841970  p :     8.560737
      px      :     2.884846
      py      :     2.833921
      dz2     :     0.154668  d :     0.821183
      dxz     :     0.143583
      dyz     :     0.185593
      dx2y2   :     0.134378
      dxy     :     0.202962

  4 S s       :     5.765185  s :     5.765185
      pz      :     3.676373  p :    10.469896
      px      :     3.213663
      py      :     3.579860
      dz2     :     0.009101  d :     0.057821
      dxz     :     0.009378
      dyz     :     0.001957
      dx2y2   :     0.018664
      dxy     :     0.018721

  5 O s       :     3.497058  s :     3.497058
      pz      :     1.762050  p :     4.713223
      px      :     1.335811
      py      :     1.615362
      dz2     :     0.003286  d :     0.023852
      dxz     :     0.003521
      dyz     :     0.001993
      dx2y2   :     0.006909
      dxy     :     0.008143

  6 C s       :     2.926955  s :     2.926955
      pz      :     1.117917  p :     3.050054
      px      :     0.804648
      py      :     1.127489
      dz2     :     0.031480  d :     0.132828
      dxz     :     0.025287
      dyz     :     0.011700
      dx2y2   :     0.040432
      dxy     :     0.023928

  7 C s       :     2.953697  s :     2.953697
      pz      :     1.116616  p :     3.347708
      px      :     1.119285
      py      :     1.111807
      dz2     :     0.022069  d :     0.069432
      dxz     :     0.007449
      dyz     :     0.011078
      dx2y2   :     0.021235
      dxy     :     0.007601

  8 S s       :     5.633084  s :     5.633084
      pz      :     3.432463  p :    10.194910
      px      :     3.225158
      py      :     3.537289
      dz2     :     0.016716  d :     0.096844
      dxz     :     0.015406
      dyz     :     0.020939
      dx2y2   :     0.028407
      dxy     :     0.015376

  9 C s       :     3.067968  s :     3.067968
      pz      :     1.107402  p :     3.323821
      px      :     1.058881
      py      :     1.157539
      dz2     :     0.020688  d :     0.086993
      dxz     :     0.013316
      dyz     :     0.016565
      dx2y2   :     0.014715
      dxy     :     0.021709

 10 S s       :     5.644555  s :     5.644555
      pz      :     3.500418  p :    10.191536
      px      :     3.196973
      py      :     3.494145
      dz2     :     0.014472  d :     0.091377
      dxz     :     0.013679
      dyz     :     0.019232
      dx2y2   :     0.017585
      dxy     :     0.026408

 11 P s       :     5.056857  s :     5.056857
      pz      :     2.832746  p :     8.556222
      px      :     2.869025
      py      :     2.854451
      dz2     :     0.229166  d :     0.812495
      dxz     :     0.106418
      dyz     :     0.153977
      dx2y2   :     0.136165
      dxy     :     0.186769

 12 S s       :     5.767709  s :     5.767709
      pz      :     3.425874  p :    10.480555
      px      :     3.616493
      py      :     3.438188
      dz2     :     0.009580  d :     0.058124
      dxz     :     0.007580
      dyz     :     0.024893
      dx2y2   :     0.008398
      dxy     :     0.007672

 13 O s       :     3.506498  s :     3.506498
      pz      :     1.557906  p :     4.718840
      px      :     1.631034
      py      :     1.529901
      dz2     :     0.006819  d :     0.023828
      dxz     :     0.002958
      dyz     :     0.004848
      dx2y2   :     0.003192
      dxy     :     0.006010

 14 C s       :     2.930058  s :     2.930058
      pz      :     0.923618  p :     3.060015
      px      :     1.094189
      py      :     1.042209
      dz2     :     0.027189  d :     0.133491
      dxz     :     0.021589
      dyz     :     0.041434
      dx2y2   :     0.014067
      dxy     :     0.029213

 15 C s       :     2.950329  s :     2.950329
      pz      :     1.124257  p :     3.330758
      px      :     1.091938
      py      :     1.114563
      dz2     :     0.011015  d :     0.069166
      dxz     :     0.007642
      dyz     :     0.021633
      dx2y2   :     0.008946
      dxy     :     0.019930

 16 O s       :     3.493268  s :     3.493268
      pz      :     1.481209  p :     4.712232
      px      :     1.659725
      py      :     1.571298
      dz2     :     0.009660  d :     0.024074
      dxz     :     0.003358
      dyz     :     0.003991
      dx2y2   :     0.002624
      dxy     :     0.004441

 17 C s       :     2.927789  s :     2.927789
      pz      :     1.091919  p :     3.052723
      px      :     1.007725
      py      :     0.953079
      dz2     :     0.025516  d :     0.134449
      dxz     :     0.019167
      dyz     :     0.022748
      dx2y2   :     0.034858
      dxy     :     0.032159

 18 C s       :     2.952785  s :     2.952785
      pz      :     1.140681  p :     3.344235
      px      :     1.076961
      py      :     1.126592
      dz2     :     0.015701  d :     0.069302
      dxz     :     0.011346
      dyz     :     0.012541
      dx2y2   :     0.016096
      dxy     :     0.013618

 19 H s       :     0.872102  s :     0.872102

 20 H s       :     0.874406  s :     0.874406

 21 H s       :     0.875805  s :     0.875805

 22 H s       :     0.885016  s :     0.885016

 23 H s       :     0.902369  s :     0.902369

 24 H s       :     0.884743  s :     0.884743

 25 H s       :     0.876294  s :     0.876294

 26 H s       :     0.865998  s :     0.865998

 27 H s       :     0.869887  s :     0.869887

 28 H s       :     0.883499  s :     0.883499

 29 H s       :     0.873390  s :     0.873390

 30 H s       :     0.864829  s :     0.864829

 31 H s       :     0.893402  s :     0.893402

 32 H s       :     0.893846  s :     0.893846

 33 H s       :     0.869866  s :     0.869866

 34 H s       :     0.872287  s :     0.872287

 35 H s       :     0.873304  s :     0.873304

 36 H s       :     0.888020  s :     0.888020

 37 H s       :     0.880516  s :     0.880516

 38 H s       :     0.869501  s :     0.869501

 39 H s       :     0.874745  s :     0.874745

 40 H s       :     0.878806  s :     0.878806


---------------------------------
LOEWDIN BOND ORDERS (THRESH 0.050000)
---------------------------------
B(  0-C ,  1-C ) :   1.1561 B(  0-C ,  2-O ) :   0.0582 B(  0-C , 19-H ) :   0.9259 
B(  0-C , 20-H ) :   0.9201 B(  0-C , 21-H ) :   0.9358 B(  1-C ,  2-O ) :   1.0908 
B(  1-C ,  3-P ) :   0.0606 B(  1-C , 22-H ) :   0.9175 B(  1-C , 23-H ) :   0.9042 
B(  2-O ,  3-P ) :   1.2618 B(  2-O ,  4-S ) :   0.0879 B(  2-O ,  5-O ) :   0.0551 
B(  2-O ,  8-S ) :   0.0668 B(  3-P ,  4-S ) :   1.7706 B(  3-P ,  5-O ) :   1.3127 
B(  3-P ,  6-C ) :   0.0599 B(  3-P ,  8-S ) :   1.0231 B(  4-S ,  5-O ) :   0.0744 
B(  4-S ,  8-S ) :   0.1327 B(  5-O ,  6-C ) :   1.0781 B(  5-O ,  7-C ) :   0.0583 
B(  5-O ,  8-S ) :   0.0592 B(  6-C ,  7-C ) :   1.1599 B(  6-C , 24-H ) :   0.9155 
B(  6-C , 25-H ) :   0.9172 B(  7-C , 26-H ) :   0.9228 B(  7-C , 27-H ) :   0.9341 
B(  7-C , 28-H ) :   0.9267 B(  8-S ,  9-C ) :   1.1881 B(  8-S , 10-S ) :   0.0861 
B(  9-C , 10-S ) :   1.1433 B(  9-C , 29-H ) :   0.8910 B(  9-C , 30-H ) :   0.9234 
B( 10-S , 11-P ) :   1.0696 B( 10-S , 12-S ) :   0.1301 B( 10-S , 13-O ) :   0.0639 
B( 11-P , 12-S ) :   1.7021 B( 11-P , 13-O ) :   1.2622 B( 11-P , 14-C ) :   0.0667 
B( 11-P , 16-O ) :   1.2930 B( 11-P , 17-C ) :   0.0657 B( 12-S , 13-O ) :   0.0875 
B( 12-S , 16-O ) :   0.0909 B( 12-S , 29-H ) :   0.0578 B( 13-O , 14-C ) :   1.0846 
B( 13-O , 15-C ) :   0.0584 B( 13-O , 16-O ) :   0.0509 B( 14-C , 15-C ) :   1.1557 
B( 14-C , 31-H ) :   0.9148 B( 14-C , 32-H ) :   0.9054 B( 15-C , 33-H ) :   0.9294 
B( 15-C , 34-H ) :   0.9374 B( 15-C , 35-H ) :   0.9370 B( 16-O , 17-C ) :   1.0794 
B( 16-O , 18-C ) :   0.0588 B( 17-C , 18-C ) :   1.1581 B( 17-C , 36-H ) :   0.9082 
B( 17-C , 37-H ) :   0.9167 B( 18-C , 38-H ) :   0.9258 B( 18-C , 39-H ) :   0.9358 
B( 18-C , 40-H ) :   0.9269 

------------------------------------------
LOEWDIN REDUCED ORBITAL POPULATIONS PER MO
-------------------------------------------
THRESHOLD FOR PRINTING IS 0.1%%
                      0         1         2         3         4         5   
                 -88.04550 -88.04120 -87.98496 -87.97780 -76.42404 -76.42369
                   2.00000   2.00000   2.00000   2.00000   2.00000   2.00000
                  --------  --------  --------  --------  --------  --------
 3 P  s               0.0       0.0       0.0       0.0      99.9       0.1
 4 S  s               0.0       0.0       0.0     100.0       0.0       0.0
 8 S  s             100.0       0.0       0.0       0.0       0.0       0.0
10 S  s               0.0     100.0       0.0       0.0       0.0       0.0
11 P  s               0.0       0.0       0.0       0.0       0.1      99.9
12 S  s               0.0       0.0     100.0       0.0       0.0       0.0

                      6         7         8         9        10        11   
                 -18.79117 -18.79028 -18.78756 -18.78678  -9.95736  -9.95253
                   2.00000   2.00000   2.00000   2.00000   2.00000   2.00000
                  --------  --------  --------  --------  --------  --------
 2 O  s              99.7       0.3       0.0       0.0       0.0       0.0
 5 O  s               0.3      99.7       0.0       0.0       0.0       0.0
 6 C  s               0.0       0.0       0.0       0.0      99.7       0.0
 9 C  s               0.0       0.0       0.0       0.0       0.0      99.8
13 O  s               0.0       0.0      99.7       0.2       0.0       0.0
16 O  s               0.0       0.0       0.2      99.7       0.0       0.0

                     12        13        14        15        16        17   
                  -9.95040  -9.94918  -9.94630  -9.89275  -9.88670  -9.87886
                   2.00000   2.00000   2.00000   2.00000   2.00000   2.00000
                  --------  --------  --------  --------  --------  --------
 1 C  s              99.6       0.0       0.0       0.0       0.0       0.0
 7 C  s               0.0       0.0       0.0      99.7       0.0       0.0
14 C  s               0.0      99.7       0.0       0.0       0.0       0.0
15 C  s               0.0       0.0       0.0       0.0      99.7       0.0
17 C  s               0.0       0.0      99.7       0.0       0.0       0.0
17 C  px              0.0       0.0       0.0       0.0       0.0       0.1
18 C  s               0.0       0.0       0.0       0.0       0.0      99.7
18 C  px              0.0       0.0       0.1       0.0       0.0       0.0

                     18        19        20        21        22        23   
                  -9.87363  -7.69016  -7.68613  -7.62982  -7.62260  -6.42123
                   2.00000   2.00000   2.00000   2.00000   2.00000   2.00000
                  --------  --------  --------  --------  --------  --------
 0 C  s              99.7       0.0       0.0       0.0       0.0       0.0
 2 O  pz              0.0       0.0       0.0       0.0       0.0       0.1
 3 P  s               0.0       0.0       0.0       0.0       0.0      99.2
 4 S  s               0.0       0.0       0.0       0.0      99.9       0.0
 5 O  px              0.0       0.0       0.0       0.0       0.0       0.1
 5 O  py              0.0       0.0       0.0       0.0       0.0       0.2
 8 S  s               0.0      99.7       0.0       0.0       0.0       0.0
 9 C  px              0.0       0.2       0.0       0.0       0.0       0.0
10 S  s               0.0       0.0      99.8       0.0       0.0       0.0
12 S  s               0.0       0.0       0.0      99.9       0.0       0.0

                     24        25        26        27        28        29   
                  -6.42110  -5.71817  -5.71437  -5.71393  -5.71071  -5.70742
                   2.00000   2.00000   2.00000   2.00000   2.00000   2.00000
                  --------  --------  --------  --------  --------  --------
 8 S  pz              0.0      39.9      18.5       0.0       0.0      41.5
 8 S  px              0.0      29.2      70.6       0.0       0.0       0.1
 8 S  py              0.0      30.9      10.8       0.0       0.0      58.4
10 S  pz              0.0       0.0       0.0      25.4      20.5       0.0
10 S  px              0.0       0.0       0.0      73.9      12.0       0.0
10 S  py              0.0       0.0       0.0       0.7      67.5       0.0
11 P  s              99.2       0.0       0.0       0.0       0.0       0.0
13 O  py              0.1       0.0       0.0       0.0       0.0       0.0
16 O  pz              0.2       0.0       0.0       0.0       0.0       0.0

                     30        31        32        33        34        35   
                  -5.70310  -5.65874  -5.65175  -5.65053  -5.64993  -5.64293
                   2.00000   2.00000   2.00000   2.00000   2.00000   2.00000
                  --------  --------  --------  --------  --------  --------
 4 S  pz              0.0       0.0       1.6       0.0       0.0      50.1
 4 S  px              0.0       0.0      78.7       0.0       0.0      15.6
 4 S  py              0.0       0.0      19.7       0.0       0.0      34.3
10 S  pz             54.1       0.0       0.0       0.0       0.0       0.0
10 S  px             14.1       0.0       0.0       0.0       0.0       0.0
10 S  py             31.8       0.0       0.0       0.0       0.0       0.0
12 S  pz              0.0      46.0       0.0      28.3      25.7       0.0
12 S  px              0.0       9.2       0.0      69.1      21.7       0.0
12 S  py              0.0      44.8       0.0       2.6      52.6       0.0

                     36        37        38        39        40        41   
                  -5.64283  -4.64409  -4.64330  -4.64309  -4.64286  -4.64192
                   2.00000   2.00000   2.00000   2.00000   2.00000   2.00000
                  --------  --------  --------  --------  --------  --------
 3 P  pz              0.0      33.2       0.0      60.2       0.0       0.0
 3 P  px              0.0       4.1       0.0      19.2       0.0       0.0
 3 P  py              0.0      62.6       0.0      20.5       0.0       0.0
 4 S  pz             48.2       0.0       0.0       0.0       0.0       0.0
 4 S  px              5.7       0.0       0.0       0.0       0.0       0.0
 4 S  py             46.1       0.0       0.0       0.0       0.0       0.0
11 P  pz              0.0       0.0      51.5       0.0      37.4      11.0
11 P  px              0.0       0.0      14.3       0.0      55.2      30.4
11 P  py              0.0       0.0      34.1       0.0       7.3      58.5

                     42        43        44        45        46        47   
                  -4.64137  -0.98693  -0.98400  -0.94198  -0.94165  -0.76056
                   2.00000   2.00000   2.00000   2.00000   2.00000   2.00000
                  --------  --------  --------  --------  --------  --------
 0 C  s               0.0       0.2       0.0       0.4       0.0       0.0
 0 C  pz              0.0       0.1       0.0       0.2       0.0       0.0
 0 C  px              0.0       0.2       0.0       0.3       0.0       0.0
 1 C  s               0.0       3.0       0.0       5.1       0.1       0.2
 1 C  pz              0.0       0.5       0.0       0.6       0.0       0.0
 1 C  px              0.0       0.1       0.0       0.2       0.0       0.0
 1 C  py              0.0       2.7       0.0       3.6       0.0       0.1
 1 C  dyz             0.0       0.1       0.0       0.1       0.0       0.0
 1 C  dx2y2           0.0       0.1       0.0       0.2       0.0       0.0
 2 O  s               0.0      27.1       0.0      32.3       0.3       0.3
 2 O  pz              0.0       0.8       0.0       0.1       0.0       0.2
 2 O  px              0.0       0.5       0.0       0.5       0.0       0.0
 2 O  py              0.0       0.0       0.0       0.7       0.0       0.1
 3 P  s               0.0      13.9       0.0       0.0       0.0       2.7
 3 P  pz              6.5       1.2       0.0       3.6       0.0       1.3
 3 P  px             76.6       3.8       0.0       0.3       0.0       0.2
 3 P  py             16.8       0.2       0.0       6.4       0.1       0.7
 3 P  dz2             0.0       0.0       0.0       1.0       0.0       0.0
 3 P  dxz             0.0       0.1       0.0       0.5       0.0       0.0
 3 P  dyz             0.0       0.5       0.0       0.3       0.0       0.2
 3 P  dxy             0.0       0.3       0.0       1.6       0.0       0.0
 4 S  s               0.0       0.3       0.0       0.0       0.0       0.7
 4 S  px              0.0       0.4       0.0       0.0       0.0       0.2
 5 O  s               0.0      29.9       0.0      28.7       0.3       0.2
 5 O  pz              0.0       0.2       0.0       0.0       0.0       0.0
 5 O  px              0.0       0.0       0.0       0.3       0.0       0.5
 5 O  py              0.0       1.7       0.0       0.5       0.0       0.1
 6 C  s               0.0       3.6       0.0       4.0       0.0       0.4
 6 C  pz              0.0       0.0       0.0       0.1       0.0       0.0
 6 C  px              0.0       4.0       0.0       3.3       0.0       0.0
 6 C  dx2y2           0.0       0.2       0.0       0.2       0.0       0.0
 7 C  s               0.0       0.2       0.0       0.3       0.0       0.1
 7 C  pz              0.0       0.1       0.0       0.1       0.0       0.0
 7 C  px              0.0       0.2       0.0       0.2       0.0       0.0
 7 C  py              0.0       0.1       0.0       0.1       0.0       0.0
 8 S  s               0.0       0.3       0.0       0.0       0.0      20.3
 8 S  pz              0.0       0.2       0.0       0.0       0.0       0.0
 8 S  px              0.0       0.0       0.0       0.0       0.0       2.9
 8 S  py              0.0       0.1       0.0       0.0       0.0       0.0
 8 S  dx2y2           0.0       0.0       0.0       0.0       0.0       0.1
 9 C  s               0.0       0.0       0.0       0.0       0.0      26.3
 9 C  pz              0.0       0.0       0.0       0.0       0.0       1.7
 9 C  px              0.0       0.0       0.0       0.0       0.0       0.6
 9 C  py              0.0       0.0       0.0       0.0       0.0       0.2
10 S  s               0.0       0.0       0.3       0.0       0.0      17.6
10 S  pz              0.0       0.0       0.0       0.0       0.0       0.9
10 S  px              0.0       0.0       0.3       0.0       0.0       0.1
10 S  py              0.0       0.0       0.1       0.0       0.0       1.5
10 S  dyz             0.0       0.0       0.0       0.0       0.0       0.1
11 P  s               0.0       0.0      14.2       0.0       0.0       2.4
11 P  pz              0.0       0.0       3.1       0.0       3.9       0.3
11 P  px              0.0       0.0       1.2       0.0       1.6       1.7
11 P  py              0.0       0.0       0.7       0.1       5.1       0.1
11 P  dz2             0.0       0.0       0.2       0.0       2.2       0.0
[...]
 2 O  py              0.9       0.0       2.7       0.0
 2 O  dz2             4.1       0.0       9.3       0.0
 2 O  dxz             3.3       0.0       7.1       0.0
 2 O  dyz             3.6       0.4       4.1       0.0
 2 O  dx2y2           0.1       0.2      16.2       0.0
 2 O  dxy             3.8       0.0      12.1       0.0
 3 P  s               0.3       0.0       0.1       0.0
 3 P  pz              0.8       0.0       0.4       0.0
 3 P  px              0.1       0.0       0.3       0.0
 3 P  py              0.8       0.0       1.3       0.0
 3 P  dz2             0.3       0.0       0.3       0.0
 3 P  dxz             0.2       0.0       0.0       0.0
 3 P  dyz             0.0       0.0       0.3       0.0
 3 P  dx2y2           0.4       0.0       0.2       0.0
 3 P  dxy             0.1       0.0       0.9       0.0
 5 O  s               5.0       0.1       0.1       0.0
 5 O  px              1.3       0.0       1.9       0.0
 5 O  py              0.1       0.0       0.5       0.0
 5 O  dz2            19.5       0.2       0.0       0.0
 5 O  dxz             1.6       0.0       1.6       0.0
 5 O  dyz             0.1       0.0       1.3       0.0
 5 O  dx2y2          34.2       0.2      10.9       0.0
 5 O  dxy             2.3       0.1      10.9       0.0
 6 C  s               1.2       0.0       0.4       0.0
 6 C  px              2.4       0.0       0.6       0.0
 6 C  dz2             2.3       0.0       0.3       0.0
 6 C  dxz             0.7       0.0       0.1       0.0
 6 C  dx2y2           6.5       0.0       1.5       0.0
 6 C  dxy             0.3       0.0       0.1       0.0
 7 C  px              0.1       0.0       0.0       0.0
 7 C  dxz             0.2       0.0       0.0       0.0
 7 C  dxy             0.1       0.0       0.0       0.0
11 P  s               0.0       0.4       0.0       0.0
11 P  pz              0.0       0.2       0.0       1.2
11 P  px              0.0       0.1       0.0       0.4
11 P  py              0.0       0.0       0.0       1.4
11 P  dz2             0.0       0.0       0.0       1.4
11 P  dxz             0.0       0.1       0.0       0.1
11 P  dyz             0.0       0.5       0.0       0.0
11 P  dxy             0.0       0.1       0.0       0.4
13 O  s               0.0       0.1       0.0       0.2
13 O  pz              0.0       0.2       0.0       1.3
13 O  px              0.0       0.2       0.0       1.4
13 O  py              0.0       0.4       0.0       2.9
13 O  dz2             0.0       4.5       0.1      22.6
13 O  dxz             0.0       1.6       0.0       5.3
13 O  dyz             0.0       4.2       0.1      20.6
13 O  dx2y2           0.0       0.0       0.0       0.1
13 O  dxy             0.0       0.1       0.0       3.2
14 C  s               0.0       0.2       0.0       1.1
14 C  pz              0.0       0.2       0.0       1.1
14 C  px              0.0       0.1       0.0       0.4
14 C  py              0.0       0.1       0.0       0.7
14 C  dz2             0.0       0.3       0.0       1.0
14 C  dxz             0.0       0.3       0.0       1.8
14 C  dyz             0.0       1.0       0.0       4.0
14 C  dx2y2           0.0       0.1       0.0       0.3
14 C  dxy             0.0       0.0       0.0       0.2
15 C  s               0.0       0.0       0.0       0.1
15 C  dz2             0.0       0.0       0.0       0.1
15 C  dxy             0.0       0.1       0.0       0.3
16 O  s               0.0       2.4       0.0       0.4
16 O  pz              0.0       1.4       0.0       1.5
16 O  px              0.0       1.1       0.0       0.1
16 O  py              0.0       1.9       0.0       0.7
16 O  dz2             0.1      12.6       0.0      15.1
16 O  dxz             0.0       6.3       0.0       1.1
16 O  dyz             0.0       8.3       0.0       1.3
16 O  dx2y2           0.0       2.0       0.0       0.0
16 O  dxy             0.2      30.6       0.0       3.5
17 C  s               0.0       1.7       0.0       0.2
17 C  pz              0.0       0.4       0.0       0.1
17 C  px              0.0       1.3       0.0       0.1
17 C  py              0.0       1.5       0.0       0.2
17 C  dz2             0.0       0.8       0.0       0.0
17 C  dxz             0.0       1.4       0.0       0.3
17 C  dyz             0.0       2.1       0.0       0.4
17 C  dx2y2           0.0       0.6       0.0       0.1
17 C  dxy             0.0       6.0       0.0       0.3
18 C  px              0.0       0.1       0.0       0.0
18 C  dx2y2           0.0       0.3       0.0       0.0


                      *****************************
                      * MAYER POPULATION ANALYSIS *
                      *****************************

  NA   - Mulliken gross atomic population
  ZA   - Total nuclear charge
  QA   - Mulliken gross atomic charge
  VA   - Mayer's total valence
  BVA  - Mayer's bonded valence
  FA   - Mayer's free valence

  ATOM       NA         ZA         QA         VA         BVA        FA
  0 C      6.3236     6.0000    -0.3236     3.9775     3.9775    -0.0000
  1 C      6.0100     6.0000    -0.0100     3.9967     3.9967     0.0000
  2 O      8.3824     8.0000    -0.3824     2.1699     2.1699     0.0000
  3 P     14.3865    15.0000     0.6135     4.9592     4.9592    -0.0000
  4 S     16.3086    16.0000    -0.3086     2.0692     2.0692    -0.0000
  5 O      8.3564     8.0000    -0.3564     2.1764     2.1764     0.0000
  6 C      5.9971     6.0000     0.0029     4.0300     4.0300    -0.0000
  7 C      6.3321     6.0000    -0.3321     3.9992     3.9992    -0.0000
  8 S     16.1353    16.0000    -0.1353     2.2820     2.2820     0.0000
  9 C      6.3264     6.0000    -0.3264     3.8170     3.8170     0.0000
 10 S     16.1175    16.0000    -0.1175     2.2595     2.2595     0.0000
 11 P     14.3753    15.0000     0.6247     4.9719     4.9719     0.0000
 12 S     16.3185    16.0000    -0.3185     2.0786     2.0786    -0.0000
 13 O      8.3748     8.0000    -0.3748     2.1680     2.1680     0.0000
 14 C      6.0090     6.0000    -0.0090     3.9636     3.9636     0.0000
 15 C      6.2800     6.0000    -0.2800     4.0063     4.0063     0.0000
 16 O      8.3567     8.0000    -0.3567     2.2089     2.2089    -0.0000
 17 C      6.0041     6.0000    -0.0041     3.9916     3.9916     0.0000
 18 C      6.3033     6.0000    -0.3033     3.9909     3.9909    -0.0000
 19 H      0.8965     1.0000     0.1035     0.9557     0.9557     0.0000
 20 H      0.8400     1.0000     0.1600     1.0008     1.0008    -0.0000
 21 H      0.8909     1.0000     0.1091     0.9598     0.9598     0.0000
 22 H      0.9012     1.0000     0.0988     0.9473     0.9473    -0.0000
 23 H      0.8920     1.0000     0.1080     0.9859     0.9859     0.0000
 24 H      0.8879     1.0000     0.1121     0.9613     0.9613     0.0000
 25 H      0.8875     1.0000     0.1125     0.9482     0.9482    -0.0000
 26 H      0.8818     1.0000     0.1182     0.9543     0.9543    -0.0000
 27 H      0.8698     1.0000     0.1302     0.9597     0.9597    -0.0000
 28 H      0.8701     1.0000     0.1299     0.9629     0.9629    -0.0000
 29 H      0.7855     1.0000     0.2145     0.9949     0.9949    -0.0000
 30 H      0.8217     1.0000     0.1783     0.9361     0.9361     0.0000
 31 H      0.9032     1.0000     0.0968     0.9660     0.9660     0.0000
 32 H      0.8977     1.0000     0.1023     0.9942     0.9942     0.0000
 33 H      0.8893     1.0000     0.1107     0.9545     0.9545    -0.0000
 34 H      0.8811     1.0000     0.1189     0.9598     0.9598    -0.0000
 35 H      0.8839     1.0000     0.1161     0.9587     0.9587    -0.0000
 36 H      0.8765     1.0000     0.1235     0.9722     0.9722    -0.0000
 37 H      0.8944     1.0000     0.1056     0.9485     0.9485     0.0000
 38 H      0.8885     1.0000     0.1115     0.9542     0.9542    -0.0000
 39 H      0.8859     1.0000     0.1141     0.9604     0.9604    -0.0000
 40 H      0.8769     1.0000     0.1231     0.9859     0.9859    -0.0000

  Mayer bond orders larger than 0.100000
B(  0-C ,  1-C ) :   1.1677 B(  0-C , 19-H ) :   0.9385 B(  0-C , 20-H ) :   0.9199 
B(  0-C , 21-H ) :   0.9451 B(  1-C ,  2-O ) :   0.9122 B(  1-C , 22-H ) :   0.9348 
B(  1-C , 23-H ) :   0.9062 B(  2-O ,  3-P ) :   1.0729 B(  3-P ,  4-S ) :   1.6728 
B(  3-P ,  5-O ) :   1.1430 B(  3-P ,  8-S ) :   0.9265 B(  4-S ,  8-S ) :   0.1114 
B(  5-O ,  6-C ) :   0.9006 B(  6-C ,  7-C ) :   1.1690 B(  6-C , 24-H ) :   0.9263 
B(  6-C , 25-H ) :   0.9336 B(  7-C , 26-H ) :   0.9356 B(  7-C , 27-H ) :   0.9431 
B(  7-C , 28-H ) :   0.9315 B(  8-S ,  9-C ) :   1.0138 B(  9-C , 10-S ) :   0.9835 
B(  9-C , 29-H ) :   0.8462 B(  9-C , 30-H ) :   0.9084 B( 10-S , 11-P ) :   0.9562 
B( 10-S , 12-S ) :   0.1155 B( 11-P , 12-S ) :   1.6023 B( 11-P , 13-O ) :   1.0983 
B( 11-P , 16-O ) :   1.1353 B( 13-O , 14-C ) :   0.9098 B( 14-C , 15-C ) :   1.1603 
B( 14-C , 31-H ) :   0.9254 B( 14-C , 32-H ) :   0.9087 B( 15-C , 33-H ) :   0.9423 
B( 15-C , 34-H ) :   0.9518 B( 15-C , 35-H ) :   0.9506 B( 16-O , 17-C ) :   0.8957 
B( 17-C , 18-C ) :   1.1635 B( 17-C , 36-H ) :   0.9166 B( 17-C , 37-H ) :   0.9343 
B( 18-C , 38-H ) :   0.9388 B( 18-C , 39-H ) :   0.9451 B( 18-C , 40-H ) :   0.9333 


-------
TIMINGS
-------

Total SCF time: 0 days 0 hours 0 min 16 sec 

Total time                  ....      16.723 sec
Sum of individual times     ....      16.238 sec  ( 97.1%)

SCF preparation             ....       0.256 sec  (  1.5%)
Fock matrix formation       ....      14.862 sec  ( 88.9%)
  Startup                   ....       0.068 sec  (  0.5% of F)
  Split-RI-J                ....       8.830 sec  ( 59.4% of F)
  XC integration            ....       5.491 sec  ( 36.9% of F)
    Basis function eval.    ....       2.092 sec  ( 38.1% of XC)
    Density eval.           ....       1.028 sec  ( 18.7% of XC)
    XC-Functional eval.     ....       0.409 sec  (  7.5% of XC)
    XC-Potential eval.      ....       1.241 sec  ( 22.6% of XC)
Diagonalization             ....       0.000 sec  (  0.0%)
Density matrix formation    ....       0.235 sec  (  1.4%)
Total Energy calculation    ....       0.034 sec  (  0.2%)
Population analysis         ....       0.198 sec  (  1.2%)
Orbital Transformation      ....       0.081 sec  (  0.5%)
Orbital Orthonormalization  ....       0.000 sec  (  0.0%)
DIIS solution               ....       0.450 sec  (  2.7%)
  MO trafo                  ....       0.000 sec  (  0.0 % of DIIS)
  Orb grad                  ....       0.000 sec  (  0.0 % of DIIS)
  Energy W gradient         ....       0.000 sec  (  0.0 % of DIIS)
  DIIS error                ....       0.021 sec  (  4.7 % of DIIS)
  DIIS work                 ....       0.373 sec  ( 82.9 % of DIIS)
  Form Q                    ....       0.000 sec  (  0.0 % of DIIS)
  Form QpQm                 ....       0.000 sec  (  0.0 % of DIIS)
  Exp/Cayley                ....       0.000 sec  (  0.0 % of DIIS)
  Orb update                ....       0.000 sec  (  0.0 % of DIIS)
  Wake-sleep                ....       0.014 sec  (  3.2 % of DIIS)
SOSCF solution              ....       0.123 sec  (  0.7%)
  MO trafo                  ....       0.070 sec  ( 56.6 % of SOSCF)
  Orb grad                  ....       0.001 sec  (  1.1 % of SOSCF)
  Rot update                ....       0.018 sec  ( 14.6 % of SOSCF)
  Step                      ....       0.034 sec  ( 27.6 % of SOSCF)
Finished LeanSCF after  16.8 sec

Maximum memory used throughout the entire LEANSCF-calculation: 34.5 MB


-------------------------------------------------------------------------------
                          DFT DISPERSION CORRECTION                            
                                                                               
                                DFTD4 V3.4.0                                   
-------------------------------------------------------------------------------
The PBE functional is recognized
Active option DFTDOPT                   ...         5   

-------------------------   ----------------
Dispersion correction           -0.066163315
-------------------------   ----------------

------------------   -----------------
gCP correction             0.185542785
------------------   -----------------

-------------------------   --------------------
FINAL SINGLE POINT ENERGY     -2929.519308613625
-------------------------   --------------------


------------------------------------------------------------------------------
                              ORCA PROPERTY CALCULATIONS
------------------------------------------------------------------------------

GBWName                                 ... sp.gbw
Number of atoms                         ...     41
Number of basis functions               ...    334
Max core memory                         ...   1024 MB

Electric properties:
Dipole moment                           ... YES
Quadrupole moment                       ...  NO
Static polarizability (Dipole/Dipole)   ...  NO
Static polarizability (Dipole/Quad.)    ...  NO
Static polarizability (Quad./Quad.)     ...  NO
Static polarizability (Velocity)        ...  NO

Atomic electric properties:
Dipole moment                           ...  NO
Quadrupole moment                       ...  NO
Static polarizability                   ...  NO

Choice of electric origin               ... Center of mass
Position of electric origin             ...    -0.000004     0.000005    -0.000001

General magnetic properties:
Magnetizability                         ...  NO

EPR properties:
g-Tensor (aka g-matrix)                 ...  NO
Zero-Field splitting spin-orbit         ...  NO
Zero-field splitting spin-spin          ...  NO
Hyperfine couplings                     ...  NO (   0 nuclei)
Quadrupole couplings                    ...  NO (   0 nuclei)
Contact density                         ...  NO (   0 nuclei)

NMR properties:
Chemical shifts                         ...  NO (   0 nuclei)
Spin-rotation constants                 ...  NO (   0 nuclei)
Spin-spin couplings                     ...  NO (   0 nuclei,    0 pairs)

Choice of magnetic origin               ... GIAO
Position of magnetic origin             ...     0.000000     0.000000     0.000000

Properties with geometric perturbations:
SCF Hessian                             ...  NO
IR spectrum                             ...  NO
VCD spectrum                            ...  NO
X-ray spectroscopy properties:
SCF XES/XAS/RIXS spectra                ...  NO


-------------
DIPOLE MOMENT
-------------

Method             : SCF
Type of density    : Electron Density
Multiplicity       :   1
Irrep              :   0
Energy             : -2929.6386880836189448 Eh
Relativity type    : 
Basis              : AO
                                X                 Y                 Z
Electronic contribution:      5.949974296      -7.958477254      -8.467648519
Nuclear contribution   :     -5.209988463       9.056900718       8.907684505
                        -----------------------------------------
Total Dipole Moment    :      0.739985833       1.098423464       0.440035986
                        -----------------------------------------
Magnitude (a.u.)       :      1.395616282
Magnitude (Debye)      :      3.547374675



--------------------
Rotational spectrum 
--------------------
 
Rotational constants in cm-1:             0.014492             0.004646             0.004414 
Rotational constants in MHz :           434.447055           139.269274           132.340779 

Dipole components along the rotational axes: 
x,y,z [a.u.] :    -0.346563    -0.466790     1.268758 
x,y,z [Debye]:    -0.880893    -1.186485     3.224926 

 

Dipole moment calculation done in   0.0 sec 

Maximum memory used throughout the entire PROP-calculation: 23.6 MB

--------------------------------
SUGGESTED CITATIONS FOR THIS RUN
--------------------------------

Below you find a list of papers that are relevant to this ORCA run
We neither can nor want to force you to cite these papers, but we appreciate if you do
You receive ORCA, which is the product of decades of hard work by many enthusiastic individuals, for free
The only thing we kindly ask in return is that you cite our papers,
We deeply appreciate it, if you show your appreciation for ORCA by not just citing the generic ORCA reference.

Please note that relegating all ORCA citations to the supporting information does *not* help us.
SI sections are not indexed - citations you put there will not count into any citation statistics
But we need these citations in order to attract the funding resources that allow us to do what we are doing

Therefore, if you are a happy ORCA user, please consider citing a few of the papers listed below in the main body of your paper

In addition to the list printed below, the program has created the file sp.bibtex that contains the list in bibtex format
You can import this file easily into all common literature databanks and citation aid programs


List of essential papers. We consider these as the minimum necessary citations

  1. Neese,F.
     Software update: the ORCA program system, version 5.0
     WIRES Comput. Molec. Sci., 2022 12(1)e1606
     doi.org/10.1002/wcms.1606

List of papers to cite with high priority. The work reported in these papers was absolutely
necessary for this run to complete.
Our perspective: the developers of density functionals and basis sets usually get cited in chemistry papers
Good! But without the algorithms to do something with them, the functionals or basis sets would not do anything.
Hence, in our opinion, the algorithm design and method developments papers are equally worthy of getting cited

  1. Neese,F.
     An improvement of the resolution of the identity approximation for the formation of the Coulomb matrix
     J. Comp. Chem., 2003 24(14)1740-1747
     doi.org/10.1002/jcc.10318
  2. Neese,F.
     The SHARK Integral Generation and Digestion System
     J. Comp. Chem., 2022  1-16
     doi.org/10.1002/jcc.26942
  3. Caldeweyher,E.; Bannwarth,C.; Grimme,S.
     Extension of the D3 dispersion coefficient model
     J. Chem. Phys., 2017 147 034112-XXXX
     doi.org/10.1063/1.4993215
  4. Caldeweyher,E.; Ehlert,S.; Hansen,A.; Neugebauer,H.; Spicher,S.; Bannwarth,C.; Grimme,S.
     A generally applicable atomic-charge dependent London dispersion correction
     J. Chem. Phys., 2019 150 154122-XXXX
     doi.org/10.1063/1.5090222
  5. Caldeweyher,E.; Mewes,J.; Ehlert,S.; Grimme,S.
     Extension and evaluation of the D4 London-dispersion model for periodic systems
     Phys. Chem. Chem. Phys., 2020 22(16)8499-8512
     doi.org/10.1039/D0CP00502A

List of suggested additional citations. These are papers that are important in the 'surrounding' of 
of this run, or papers that preceded the highly important papers. If you like your results we are grateful for a citation.

  1. Neese,F.
     The ORCA program system
     WIRES Comput. Molec. Sci., 2012 2(1)73-78
     doi.org/10.1002/wcms.81
  2. Neese,F.
     Software update: the ORCA program system, version 4.0
     WIRES Comput. Molec. Sci., 2018 8(1)1-6
     doi.org/10.1002/wcms.1327
  3. Neese,F.; Wennmohs,F.; Becker,U.; Riplinger,C.
     The ORCA quantum chemistry program package
     J. Chem. Phys., 2020 152 Art. No. L224108
     doi.org/10.1063/5.0004608

List of optional additional citations

  1. Neese,F.
     Approximate second-order SCF convergence for spin unrestricted wavefunctions
     Chem. Phys. Lett., 2000 325(1-3)93-98
     doi.org/10.1016/s0009-2614(00)00662-x

Timings for individual modules:

Sum of individual times          ...       20.396 sec (=   0.340 min)
Startup calculation              ...        1.569 sec (=   0.026 min)   7.7 %
SCF iterations                   ...       18.715 sec (=   0.312 min)  91.8 %
Property calculations            ...        0.111 sec (=   0.002 min)   0.5 %
                             ****ORCA TERMINATED NORMALLY****
TOTAL RUN TIME: 0 days 0 hours 0 minutes 21 seconds 171 msec
