      -----------------------------------------------------------      
     |                   =====================                   |     
     |                           x T B                           |     
     |                   =====================                   |     
     |                         S. Grimme                         |     
     |          Mulliken Center for Theoretical Chemistry        |     
     |                    University of Bonn                     |     
      -----------------------------------------------------------      

   * xtb version 6.7.1 (edcfbbe) compiled by 'albert@albert-system' on 2024-07-22

   xtb is free software: you can redistribute it and/or modify it under
   the terms of the GNU Lesser General Public License as published by
   the Free Software Foundation, either version 3 of the License, or
   (at your option) any later version.
   
   xtb is distributed in the hope that it will be useful,
   but WITHOUT ANY WARRANTY; without even the implied warranty of
   MERCHANTABILITY or FITNESS FOR A PARTICULAR PURPOSE.  See the
   GNU Lesser General Public License for more details.
   
   Cite this work as:
   * C. Bannwarth, E. Caldeweyher, S. Ehlert, A. Hansen, P. Pracht,
     J. Seibert, S. Spicher, S. Grimme, WIREs Comput. Mol. Sci., 2020, 11,
     e01493. DOI: 10.1002/wcms.1493
   
   for GFN2-xTB:
   * C. Bannwarth, S. Ehlert and S. Grimme., J. Chem. Theory Comput., 2019,
     15, 1652-1671. DOI: 10.1021/acs.jctc.8b01176
   for GFN1-xTB:
   * S. Grimme, C. Bannwarth, P. Shushkov, J. Chem. Theory Comput., 2017,
     13, 1989-2009. DOI: 10.1021/acs.jctc.7b00118
   for GFN0-xTB:
   * P. Pracht, E. Caldeweyher, S. Ehlert, S. Grimme, ChemRxiv, 2019, preprint.
     DOI: 10.26434/chemrxiv.8326202.v1
   for GFN-FF:
   * S. Spicher and S. Grimme, Angew. Chem. Int. Ed., 2020, 59, 15665-15673.
     DOI: 10.1002/anie.202004239
   
   for ALPB and GBSA implicit solvation:
   * S. Ehlert, M. Stahn, S. Spicher, S. Grimme, J. Chem. Theory Comput.,
     2021, 17, 4250-4261. DOI: 10.1021/acs.jctc.1c00471
   
   for ddCOSMO and CPCM-X implicit solvation:
   * M. Stahn, S. Ehlert, S. Grimme, J. Phys. Chem. A,
     2023, XX, XXXX-XXXX. DOI: 10.1021/acs.jpca.3c04382
   
   for DFT-D4:
   * E. Caldeweyher, C. Bannwarth and S. Grimme, J. Chem. Phys., 2017,
     147, 034112. DOI: 10.1063/1.4993215
   * E. Caldeweyher, S. Ehlert, A. Hansen, H. Neugebauer, S. Spicher,
     C. Bannwarth and S. Grimme, J. Chem. Phys., 2019, 150, 154122.
     DOI: 10.1063/1.5090222
   * E. Caldeweyher, J.-M. Mewes, S. Ehlert and S. Grimme, Phys. Chem. Chem. Phys.
     2020, 22, 8499-8512. DOI: 10.1039/D0CP00502A
   
   for sTDA-xTB:
   * S. Grimme and C. Bannwarth, J. Chem. Phys., 2016, 145, 054103.
     DOI: 10.1063/1.4959605
   
   in the mass-spec context:
   * V. Asgeirsson, C. Bauer and S. Grimme, Chem. Sci., 2017, 8, 4879.
     DOI: 10.1039/c7sc00601b
   * J. Koopman and S. Grimme, ACS Omega 2019, 4, 12, 15120-15133.
     DOI: 10.1021/acsomega.9b02011
   
   for metadynamics refer to:
   * S. Grimme, J. Chem. Theory Comput., 2019, 155, 2847-2862
     DOI: 10.1021/acs.jctc.9b00143
   
   for SPH calculations refer to:
   * S. Spicher and S. Grimme, J. Chem. Theory Comput., 2021, 17, 1701-1714
     DOI: 10.1021/acs.jctc.0c01306
   
   for ONIOM refer to:
   * C. Plett, A. Katbashev, S. Ehlert, S. Grimme, M. Bursch,
     Phys. Chem. Chem. Phys., 2023, 25, 17860-17868. DOI: 10.1039/D3CP02178E
   
   for DIPRO refer to:
   * J. Kohn, N. Gildemeister, S. Grimme, D. Fazzi, A. Hansen,
     J. Chem. Phys., 2023, just accepted.
   
   for PTB refer to:
   * S. Grimme, M. Mueller, A. Hansen, J. Chem. Phys., 2023, 158, 124111.
     DOI: 10.1063/5.0137838
   
   with help from (in alphabetical order)
   P. Atkinson, C. Bannwarth, F. Bohle, G. Brandenburg, E. Caldeweyher
   M. Checinski, S. Dohm, S. Ehlert, S. Ehrlich, I. Gerasimov, C. Hölzer
   A. Katbashev, J. Kohn, J. Koopman, C. Lavigne, S. Lehtola, F. März, M. Müller,
   F. Musil, H. Neugebauer, J. Pisarek, C. Plett, P. Pracht, F. Pultar,
   J. Seibert, P. Shushkov, S. Spicher, M. Stahn, M. Steiner, T. Strunk,
   J. Stückrath, T. Rose, and J. Unsleber
   
 * started run on 2025/04/09 at 09:46:43.438     
   ID    Z sym.   atoms
    1    6 C      1, 2, 4, 6, 7, 9, 12, 13, 18, 20
    2    8 O      3, 5, 10, 11, 17, 19
    3    1 H      8, 21-38
    4   16 S      14, 16
    5   15 P      15

           -------------------------------------------------
          |                Calculation Setup                |
           -------------------------------------------------

          program call               : /software/projects/pawsey0265/mwang1/xtb/bin/xtb xtb_rrho.coord --gfn2 --bhess vtight --chrg 0 --enso --norestart -I rrho-xcontrol-inp --parallel 1 --alpb water
          hostname                   : nid002043
          coordinate file            : xtb_rrho.coord
          omp threads                :                     1


           -------------------------------------------------
          |                 G F N 2 - x T B                 |
           -------------------------------------------------

        Reference                      10.1021/acs.jctc.8b01176
      * Hamiltonian:
        H0-scaling (s, p, d)           1.850000    2.230000    2.230000
        zeta-weighting                 0.500000
      * Dispersion:
        s8                             2.700000
        a1                             0.520000
        a2                             5.000000
        s9                             5.000000
      * Repulsion:
        kExp                           1.500000    1.000000
        rExp                           1.000000
      * Coulomb:
        alpha                          2.000000
        third order                    shell-resolved
        anisotropic                    true
        a3                             3.000000
        a5                             4.000000
        cn-shift                       1.200000
        cn-exp                         4.000000
        max-rad                        5.000000

      * Solvation model:               ALPB
        Solvent                        water
        Parameter file                 internal GFN2-xTB/ALPB
        Dielectric constant                8.0200E+01
        Reference state                gsolv [1 M gas/solution]
        Free energy shift                  1.0808E-03 Eh       6.7819E-01 kcal/mol
        Temperature                        2.9815E+02 K
        Density                            1.0000E+00 kg/L
        Solvent mass                       1.8000E+01 g/mol
        Interaction kernel             P16
        Born radius scaling (c1)           1.4744E+00
        Born radii integrator          GBOBC
        Born offset                        0.0000E+00 a0       0.0000E+00 AA
        H-bond correction              true
        Ion screening                  false
        Surface tension                    1.0000E-05 Eh       1.5569E+01 dyn/cm
        Grid points                               974 per atom

          ...................................................
          :                      SETUP                      :
          :.................................................:
          :  # basis functions                 113          :
          :  # atomic orbitals                 110          :
          :  # shells                           60          :
          :  # electrons                       112          :
          :  max. iterations                   250          :
          :  Hamiltonian                  GFN2-xTB          :
          :  restarted?                      false          :
          :  GBSA solvation                   true          :
          :  PC potential                    false          :
          :  electronic temp.          300.0000000     K    :
          :  accuracy                    1.0000000          :
          :  -> integral cutoff          0.2500000E+02      :
          :  -> integral neglect         0.1000000E-07      :
          :  -> SCF convergence          0.1000000E-05 Eh   :
          :  -> wf. convergence          0.1000000E-03 e    :
          :  Broyden damping             0.4000000          :
          :  net charge                          0          :
          :  unpaired electrons                  0          :
          ...................................................

 iter      E             dE          RMSdq      gap      omega  full diag
   1    -65.0660049 -0.650660E+02  0.591E+00    4.27       0.0  T
   2    -65.1989672 -0.132962E+00  0.309E+00    3.22       1.0  T
   3    -65.2085667 -0.959946E-02  0.121E+00    3.31       1.0  T
   4    -65.2149840 -0.641730E-02  0.463E-01    3.15       1.0  T
   5    -65.2157225 -0.738549E-03  0.211E-01    3.25       1.0  T
   6    -65.2158594 -0.136907E-03  0.951E-02    3.24       1.0  T
   7    -65.2158778 -0.183421E-04  0.339E-02    3.26       1.0  T
   8    -65.2158797 -0.196504E-05  0.132E-02    3.25       1.2  T
   9    -65.2158805 -0.758841E-06  0.426E-03    3.26       3.8  T
  10    -65.2158806 -0.742676E-07  0.201E-03    3.26       8.1  T
  11    -65.2158806 -0.856296E-08  0.574E-04    3.26      28.3  T
  12    -65.2158806 -0.894005E-09  0.231E-04    3.26      70.2  T

   *** convergence criteria satisfied after 12 iterations ***

         #    Occupation            Energy/Eh            Energy/eV
      -------------------------------------------------------------
         1        2.0000           -0.7703687             -20.9628
       ...           ...                  ...                  ...
        50        2.0000           -0.4539703             -12.3532
        51        2.0000           -0.4442926             -12.0898
        52        2.0000           -0.4408698             -11.9967
        53        2.0000           -0.4366624             -11.8822
        54        2.0000           -0.4145070             -11.2793
        55        2.0000           -0.3958639             -10.7720
        56        2.0000           -0.3937691             -10.7150 (HOMO)
        57                         -0.2741189              -7.4592 (LUMO)
        58                         -0.2576398              -7.0107
        59                         -0.2484977              -6.7620
        60                         -0.2086736              -5.6783
        61                         -0.1779376              -4.8419
       ...                                ...                  ...
       110                          1.2723522              34.6225
      -------------------------------------------------------------
                  HL-Gap            0.1196502 Eh            3.2558 eV
             Fermi-level           -0.3339440 Eh           -9.0871 eV

 SCC (total)                   0 d,  0 h,  0 min,  0.103 sec
 SCC setup                      ...        0 min,  0.004 sec (  4.159%)
 Dispersion                     ...        0 min,  0.000 sec (  0.460%)
 classical contributions        ...        0 min,  0.000 sec (  0.092%)
 integral evaluation            ...        0 min,  0.029 sec ( 28.112%)
 iterations                     ...        0 min,  0.035 sec ( 33.683%)
 molecular gradient             ...        0 min,  0.034 sec ( 33.076%)
 printout                       ...        0 min,  0.000 sec (  0.391%)

         :::::::::::::::::::::::::::::::::::::::::::::::::::::
         ::                     SUMMARY                     ::
         :::::::::::::::::::::::::::::::::::::::::::::::::::::
         :: total energy             -64.666251328673 Eh    ::
         :: total w/o Gsasa/hb       -64.666497004897 Eh    ::
         :: gradient norm              0.054996701472 Eh/a0 ::
         :: HOMO-LUMO gap              3.255847019725 eV    ::
         ::.................................................::
         :: SCC energy               -65.215260184210 Eh    ::
         :: -> isotropic ES            0.174282018639 Eh    ::
         :: -> anisotropic ES         -0.014355077462 Eh    ::
         :: -> anisotropic XC          0.018141770655 Eh    ::
         :: -> dispersion             -0.040799891021 Eh    ::
         :: -> Gsolv                  -0.030500334017 Eh    ::
         ::    -> Gelec               -0.030746010241 Eh    ::
         ::    -> Gsasa                0.004763421470 Eh    ::
         ::    -> Ghb                 -0.005598504944 Eh    ::
         ::    -> Gshift               0.001080759698 Eh    ::
         :: repulsion energy           0.549008855536 Eh    ::
         :: add. restraining           0.000000000000 Eh    ::
         :: total charge              -0.000000000000 e     ::
         :::::::::::::::::::::::::::::::::::::::::::::::::::::

metadynamics with 1 initial structures loaded
           -------------------------------------------------
          |           Optimal kpush determination           |
           -------------------------------------------------
      ----------------------------------------------------------- 
     |                   =====================                   |
     |                        A N C O P T                        |
     |                   =====================                   |
     |               Approximate Normal Coordinate               |
     |                Rational Function Optimizer                |
      ----------------------------------------------------------- 
target rmsd / Å         0.100000
unbiased initial rmsd   0.212248
 
iter. min.        max.        rmsd       kpush
      ----------------------------------------------------------- 
     |                   =====================                   |
     |                        A N C O P T                        |
     |                   =====================                   |
     |               Approximate Normal Coordinate               |
     |                Rational Function Optimizer                |
      ----------------------------------------------------------- 
 1    0.000000    1.727273    0.014454   -0.863636
      ----------------------------------------------------------- 
     |                   =====================                   |
     |                        A N C O P T                        |
     |                   =====================                   |
     |               Approximate Normal Coordinate               |
     |                Rational Function Optimizer                |
      ----------------------------------------------------------- 
 2    0.000000    0.863636    0.020881   -0.431818
      ----------------------------------------------------------- 
     |                   =====================                   |
     |                        A N C O P T                        |
     |                   =====================                   |
     |               Approximate Normal Coordinate               |
     |                Rational Function Optimizer                |
      ----------------------------------------------------------- 
 3    0.000000    0.431818    0.031016   -0.215909
      ----------------------------------------------------------- 
     |                   =====================                   |
     |                        A N C O P T                        |
     |                   =====================                   |
     |               Approximate Normal Coordinate               |
     |                Rational Function Optimizer                |
      ----------------------------------------------------------- 
 4    0.000000    0.215909    0.046724   -0.107955
      ----------------------------------------------------------- 
     |                   =====================                   |
     |                        A N C O P T                        |
     |                   =====================                   |
     |               Approximate Normal Coordinate               |
     |                Rational Function Optimizer                |
      ----------------------------------------------------------- 
 5    0.000000    0.107955    0.068836   -0.053977
      ----------------------------------------------------------- 
     |                   =====================                   |
     |                        A N C O P T                        |
     |                   =====================                   |
     |               Approximate Normal Coordinate               |
     |                Rational Function Optimizer                |
      ----------------------------------------------------------- 
 6    0.000000    0.053977    0.097013   -0.026989
      ----------------------------------------------------------- 
     |                   =====================                   |
     |                        A N C O P T                        |
     |                   =====================                   |
     |               Approximate Normal Coordinate               |
     |                Rational Function Optimizer                |
      ----------------------------------------------------------- 
 7    0.000000    0.026989    0.126939   -0.013494
      ----------------------------------------------------------- 
     |                   =====================                   |
     |                        A N C O P T                        |
     |                   =====================                   |
     |               Approximate Normal Coordinate               |
     |                Rational Function Optimizer                |
      ----------------------------------------------------------- 
 8    0.013494    0.026989    0.109477   -0.020241
      ----------------------------------------------------------- 
     |                   =====================                   |
     |                        A N C O P T                        |
     |                   =====================                   |
     |               Approximate Normal Coordinate               |
     |                Rational Function Optimizer                |
      ----------------------------------------------------------- 
 9    0.020241    0.026989    0.102768   -0.023615
      ----------------------------------------------------------- 
     |                   =====================                   |
     |                        A N C O P T                        |
     |                   =====================                   |
     |               Approximate Normal Coordinate               |
     |                Rational Function Optimizer                |
      ----------------------------------------------------------- 
10    0.023615    0.026989    0.099821   -0.025302
final kpush: -0.025302
           -------------------------------------------------
          |            Biased Numerical Hessian             |
           -------------------------------------------------
kpush                :  -0.02530
alpha                :   1.00000
step length          :   0.00500
SCC accuracy         :   0.30000
Hessian scale factor :   1.00000
frozen atoms in %    :   0.00000    0
RMS gradient         :   0.00010
estimated CPU  time      0.15 min
estimated wall time      0.15 min

writing file <hessian>.

 projected vibrational frequencies (cm⁻¹)
eigval :       -0.00    -0.00    -0.00    -0.00     0.00     0.00
eigval :       53.20    54.89    62.89    63.74    69.43    84.92
eigval :       80.95    83.27    89.60    90.00   110.22   113.88
eigval :      117.95   139.80   154.84   151.56   162.42   133.45
eigval :      156.04   124.48   208.04   235.92   219.16   235.36
eigval :      285.44   288.08   320.36   331.36   358.66   366.72
eigval :      398.92   424.05   441.84   452.60   543.46   599.33
eigval :      639.46   686.66   701.41   742.74   770.72   789.07
eigval :      815.71   822.02   879.03   896.58   901.89   962.50
eigval :      984.41   978.47  1022.28  1041.71  1059.10  1090.37
eigval :     1097.32  1095.33  1103.13  1106.78  1106.21  1117.77
eigval :     1113.56  1132.01  1137.19  1146.70  1176.92  1199.58
eigval :     1227.14  1227.79  1249.83  1291.36  1311.52  1316.01
eigval :     1368.30  1377.62  1391.82  1396.87  1410.49  1420.22
eigval :     1424.06  1431.54  1436.31  1443.67  1456.55  1457.78
eigval :     1466.27  1477.82  1487.80  1692.95  1704.64  2906.80
eigval :     2928.72  2945.66  2948.08  2978.74  2983.98  2985.22
eigval :     2989.78  2994.13  3001.95  3008.34  3025.50  3031.51
eigval :     3038.05  3048.76  3056.28  3058.56  3060.71  3064.84
           -------------------------------------------------
          |                Property Printout                |
           -------------------------------------------------

    * Orbital Energies and Occupations

         #    Occupation            Energy/Eh            Energy/eV
      -------------------------------------------------------------
         1        2.0000           -0.7755174             -21.1029
       ...           ...                  ...                  ...
        44        2.0000           -0.4760858             -12.9550
        45        2.0000           -0.4758366             -12.9482
        46        2.0000           -0.4666823             -12.6991
        47        2.0000           -0.4650337             -12.6542
        48        2.0000           -0.4634432             -12.6109
        49        2.0000           -0.4573150             -12.4442
        50        2.0000           -0.4538034             -12.3486
        51        2.0000           -0.4437640             -12.0754
        52        2.0000           -0.4409379             -11.9985
        53        2.0000           -0.4359560             -11.8630
        54        2.0000           -0.4129491             -11.2369
        55        2.0000           -0.3937272             -10.7139
        56        2.0000           -0.3914662             -10.6523 (HOMO)
        57                         -0.2699327              -7.3452 (LUMO)
        58                         -0.2588256              -7.0430
        59                         -0.2428615              -6.6086
        60                         -0.2003839              -5.4527
        61                         -0.1758342              -4.7847
        62                         -0.1614730              -4.3939
        63                         -0.1211404              -3.2964
        64                         -0.0504341              -1.3724
        65                         -0.0476306              -1.2961
        66                         -0.0377531              -1.0273
        67                         -0.0230367              -0.6269
       ...                                ...                  ...
       110                          1.2609244              34.3115
      -------------------------------------------------------------
                  HL-Gap            0.1215336 Eh            3.3071 eV
             Fermi-level           -0.3306995 Eh           -8.9988 eV

     #   Z          covCN         q      C6AA      α(0)
     1   6 C        3.752    -0.135    23.155     6.862
     2   6 C        3.698     0.076    19.467     6.311
     3   8 O        1.703    -0.253    18.197     5.759
     4   6 C        2.719     0.373    20.686     7.445
     5   8 O        0.856    -0.487    23.492     6.498
     6   6 C        3.830    -0.094    22.262     6.713
     7   6 C        3.856     0.008    20.400     6.424
     8   1 H        0.924     0.117     1.641     2.003
     9   6 C        2.740     0.371    20.719     7.453
    10   8 O        0.856    -0.458    22.879     6.413
    11   8 O        1.702    -0.258    18.280     5.772
    12   6 C        3.696     0.071    19.556     6.326
    13   6 C        3.750    -0.118    22.832     6.814
    14  16 S        1.941    -0.120   146.076    20.342
    15  15 P        3.860     0.386   144.231    21.573
    16  16 S        0.925    -0.472   160.060    21.399
    17   8 O        1.654    -0.253    18.207     5.760
    18   6 C        3.826     0.006    20.457     6.436
    19   8 O        1.656    -0.260    18.330     5.780
    20   6 C        3.811     0.009    20.412     6.431
    21   1 H        0.925     0.074     2.038     2.233
    22   1 H        0.925     0.079     1.990     2.206
    23   1 H        0.925     0.071     2.079     2.255
    24   1 H        0.924     0.064     2.148     2.292
    25   1 H        0.924     0.060     2.199     2.319
    26   1 H        0.924     0.090     1.879     2.144
    27   1 H        0.924     0.118     1.629     1.996
    28   1 H        0.924     0.065     2.142     2.289
    29   1 H        0.925     0.097     1.812     2.105
    30   1 H        0.925     0.080     1.984     2.203
    31   1 H        0.925     0.061     2.185     2.312
    32   1 H        0.925     0.050     2.320     2.382
    33   1 H        0.925     0.093     1.855     2.130
    34   1 H        0.925     0.114     1.663     2.017
    35   1 H        0.925     0.095     1.833     2.117
    36   1 H        0.925     0.113     1.668     2.020
    37   1 H        0.924     0.079     1.994     2.208
    38   1 H        0.925     0.090     1.880     2.144

 Mol. C6AA /au·bohr⁶  :      18241.801949
 Mol. C8AA /au·bohr⁸  :     514285.829642
 Mol. α(0) /au        :        207.886517


Wiberg/Mayer (AO) data.
largest (>0.10) Wiberg bond orders for each atom

 ---------------------------------------------------------------------------
     #   Z sym  total        # sym  WBO       # sym  WBO       # sym  WBO
 ---------------------------------------------------------------------------
     1   6 C    3.983 --     2 C    1.020    23 H    0.984    21 H    0.983
                            22 H    0.979
     2   6 C    3.902 --     1 C    1.020    25 H    0.969    24 H    0.968
                             3 O    0.907
     3   8 O    2.338 --     4 C    1.198     2 C    0.907     5 O    0.175
     4   6 C    3.916 --     5 O    1.683     3 O    1.198     6 C    0.960
     5   8 O    1.968 --     4 C    1.683     3 O    0.175
     6   6 C    3.985 --     7 C    0.996    26 H    0.963     4 C    0.960
                            27 H    0.941
     7   6 C    3.970 --     6 C    0.996    14 S    0.957     9 C    0.957
                             8 H    0.922
     8   1 H    0.986 --     7 C    0.922
     9   6 C    3.919 --    10 O    1.700    11 O    1.183     7 C    0.957
    10   8 O    2.014 --     9 C    1.700    11 O    0.171
    11   8 O    2.342 --     9 C    1.183    12 C    0.898    10 O    0.171
    12   6 C    3.892 --    13 C    1.017    28 H    0.970    29 H    0.966
                            11 O    0.898
    13   6 C    3.988 --    12 C    1.017    32 H    0.985    31 H    0.983
                            30 H    0.978
    14  16 S    2.267 --    15 P    0.970     7 C    0.957    16 S    0.134
    15  15 P    5.272 --    16 S    1.528    17 O    1.333    19 O    1.299
                            14 S    0.970
    16  16 S    1.845 --    15 P    1.528    14 S    0.134
    17   8 O    2.398 --    15 P    1.333    18 C    0.888
    18   6 C    3.871 --    35 H    0.977    33 H    0.973    34 H    0.971
                            17 O    0.888
    19   8 O    2.391 --    15 P    1.299    20 C    0.910
    20   6 C    3.881 --    37 H    0.977    38 H    0.976    36 H    0.971
                            19 O    0.910
    21   1 H    0.994 --     1 C    0.983
    22   1 H    0.993 --     1 C    0.979
    23   1 H    0.995 --     1 C    0.984
    24   1 H    0.996 --     2 C    0.968
    25   1 H    0.996 --     2 C    0.969
    26   1 H    0.992 --     6 C    0.963
    27   1 H    0.985 --     6 C    0.941
    28   1 H    0.996 --    12 C    0.970
    29   1 H    0.990 --    12 C    0.966
    30   1 H    0.993 --    13 C    0.978
    31   1 H    0.996 --    13 C    0.983
    32   1 H    0.997 --    13 C    0.985
    33   1 H    0.991 --    18 C    0.973
    34   1 H    0.987 --    18 C    0.971
    35   1 H    0.991 --    18 C    0.977
    36   1 H    0.987 --    20 C    0.971
    37   1 H    0.994 --    20 C    0.977
    38   1 H    0.992 --    20 C    0.976
 ---------------------------------------------------------------------------

Topologies differ in total number of bonds
Writing topology from bond orders to xtbtopo.mol

molecular dipole:
                 x           y           z       tot (Debye)
 q only:       -2.076       0.153      -0.909
   full:       -1.990       0.412      -0.786       5.537
molecular quadrupole (traceless):
                xx          xy          yy          xz          yz          zz
 q only:       13.474     -12.034      17.360      12.301       7.526     -30.834
  q+dip:       11.871      -9.036      16.980       7.071       8.828     -28.852
   full:       12.014      -9.323      17.132       7.208       8.722     -29.145

           -------------------------------------------------
          |                Geometry Summary                 |
           -------------------------------------------------

      molecular mass/u    :      330.3579996
   center of mass at/Å    :       -0.0172966      -0.0211173       0.0241618
  moments of inertia/u·Å² :        0.1146242E+04   0.2648926E+04   0.3014595E+04
rotational constants/cm⁻¹ :        0.1470687E-01   0.6363951E-02   0.5592006E-02

 * 34 selected distances

     #   Z          #   Z                                           value/Å
     1   6 C        2   6 C                                       1.5159860
     2   6 C        3   8 O                                       1.4413051
     3   8 O        4   6 C                                       1.3140606
     4   6 C        5   8 O                                       1.2139404
     6   6 C        7   6 C                                       1.5224887
     7   6 C        8   1 H                                       1.0979790
     9   6 C       10   8 O                                       1.2095749
     9   6 C       11   8 O                                       1.3185792
    11   8 O       12   6 C                                       1.4456899
    12   6 C       13   6 C                                       1.5181863
    14  16 S       15  15 P                                       2.1263496 (max)
    15  15 P       16  16 S                                       1.9573037
    15  15 P       17   8 O                                       1.5790658
    17   8 O       18   6 C                                       1.4420864
    15  15 P       19   8 O                                       1.6004869
    19   8 O       20   6 C                                       1.4329438
     1   6 C       21   1 H                                       1.0858274
     1   6 C       22   1 H                                       1.0849218 (min)
     1   6 C       23   1 H                                       1.0859005
     2   6 C       24   1 H                                       1.0948757
     2   6 C       25   1 H                                       1.0945040
     6   6 C       26   1 H                                       1.0906326
     6   6 C       27   1 H                                       1.0911437
    12   6 C       28   1 H                                       1.0942721
    12   6 C       29   1 H                                       1.0901005
    13   6 C       30   1 H                                       1.0851689
    13   6 C       31   1 H                                       1.0870437
    13   6 C       32   1 H                                       1.0882696
    18   6 C       33   1 H                                       1.0897552
    18   6 C       34   1 H                                       1.0867432
    18   6 C       35   1 H                                       1.0880242
    20   6 C       36   1 H                                       1.0875470
    20   6 C       37   1 H                                       1.0906248
    20   6 C       38   1 H                                       1.0896668

 * 5 distinct bonds (by element types)

   Z      Z             #   av. dist./Å        max./Å        min./Å
   1 H    6 C          19     1.0896316     1.0979790     1.0849218
   6 C    6 C           3     1.5188870     1.5224887     1.5159860
   6 C    8 O           8     1.3522725     1.4456899     1.2095749
   8 O   15 P           2     1.5897764     1.6004869     1.5790658
  15 P   16 S           2     2.0418267     2.1263496     1.9573037

           -------------------------------------------------
          |               Frequency Printout                |
           -------------------------------------------------
 projected vibrational frequencies (cm⁻¹)
eigval :       -0.00    -0.00    -0.00    -0.00     0.00     0.00
eigval :       53.20    54.89    62.89    63.74    69.43    84.92
eigval :       80.95    83.27    89.60    90.00   110.22   113.88
eigval :      117.95   139.80   154.84   151.56   162.42   133.45
eigval :      156.04   124.48   208.04   235.92   219.16   235.36
eigval :      285.44   288.08   320.36   331.36   358.66   366.72
eigval :      398.92   424.05   441.84   452.60   543.46   599.33
eigval :      639.46   686.66   701.41   742.74   770.72   789.07
eigval :      815.71   822.02   879.03   896.58   901.89   962.50
eigval :      984.41   978.47  1022.28  1041.71  1059.10  1090.37
eigval :     1097.32  1095.33  1103.13  1106.78  1106.21  1117.77
eigval :     1113.56  1132.01  1137.19  1146.70  1176.92  1199.58
eigval :     1227.14  1227.79  1249.83  1291.36  1311.52  1316.01
eigval :     1368.30  1377.62  1391.82  1396.87  1410.49  1420.22
eigval :     1424.06  1431.54  1436.31  1443.67  1456.55  1457.78
eigval :     1466.27  1477.82  1487.80  1692.95  1704.64  2906.80
eigval :     2928.72  2945.66  2948.08  2978.74  2983.98  2985.22
eigval :     2989.78  2994.13  3001.95  3008.34  3025.50  3031.51
eigval :     3038.05  3048.76  3056.28  3058.56  3060.71  3064.84
 reduced masses (amu)
   1: 18.60   2: 15.52   3: 15.49   4: 17.01   5: 15.91   6: 15.93   7: 18.55   8: 19.33
   9: 19.28  10: 14.99  11: 13.59  12: 15.76  13: 13.62  14: 12.20  15: 11.51  16: 10.45
  17: 14.31  18: 12.56  19: 12.49  20: 14.76  21: 18.37  22: 17.03  23: 12.54  24:  5.92
  25:  8.56  26:  1.72  27: 11.77  28: 14.58  29:  5.87  30:  6.84  31: 18.08  32:  8.71
  33: 18.58  34: 11.18  35: 18.65  36: 10.77  37: 19.88  38: 13.09  39: 25.78  40: 16.44
  41: 11.33  42: 10.78  43: 25.12  44: 13.31  45: 11.58  46: 22.40  47: 22.95  48: 10.80
  49:  2.62  50:  5.34  51:  9.17  52: 10.38  53:  9.56  54: 11.98  55: 14.48  56:  8.25
  57: 14.12  58:  8.29  59:  9.20  60:  7.63  61:  7.21  62:  3.50  63:  4.13  64:  6.21
  65:  3.61  66:  8.07  67:  4.26  68:  4.95  69:  5.51  70:  5.15  71:  9.46  72: 11.02
  73:  5.40  74:  2.39  75:  3.41  76:  5.41  77:  3.24  78:  4.05  79:  2.33  80:  2.33
  81:  3.25  82:  2.96  83:  1.94  84:  1.81  85:  1.76  86:  1.52  87:  1.57  88:  1.57
  89:  1.87  90:  1.51  91:  1.48  92:  1.56  93:  1.57  94: 13.34  95: 13.42  96:  1.75
  97:  1.98  98:  1.71  99:  1.46 100:  1.64 101:  1.71 102:  1.62 103:  1.72 104:  1.75
 105:  1.78 106:  1.69 107:  1.81 108:  1.86 109:  1.84 110:  1.54 111:  1.96 112:  1.37
 113:  1.78 114:  1.84
 IR intensities (km·mol⁻¹)
   1:  0.19   2:  0.22   3:  0.17   4:  0.01   5:  0.20   6:  0.31   7:  4.98   8:  8.61
   9:  4.27  10:  1.96  11:  0.71  12:  2.68  13:  3.24  14:  3.85  15:  2.46  16:  4.50
  17:  5.35  18:  0.45  19:  8.71  20:  1.00  21:  0.24  22:  8.02  23:  6.66  24:  4.93
  25:  6.44  26:  0.55  27:  8.29  28:  3.38  29:  4.39  30:  5.80  31: 29.96  32: 24.72
  33: 31.15  34: 19.73  35:  6.36  36:  2.62  37: 14.91  38: 25.26  39: 96.61  40: 14.36
  41: 38.53  42: 13.55  43:226.13  44: 14.53  45: 32.17  46:309.33  47:245.03  48: 30.17
  49:  5.70  50:  3.97  51: 33.10  52:  2.71  53: 13.51  54:  6.88  55:329.38  56:  8.94
  57:181.55  58: 40.27  59: 66.00  60: 20.75  61: 15.86  62:  1.11  63:  9.65  64:132.88
  65:  1.06  66: 30.19  67:  9.11  68: 15.80  69: 74.02  70: 29.55  71:232.09  72:330.96
  73:135.01  74:  4.03  75: 43.27  76:165.41  77:  4.82  78: 21.87  79: 16.88  80: 20.14
  81: 10.57  82:  5.23  83: 10.62  84: 13.90  85:  4.02  86: 12.92  87: 12.57  88:  8.29
  89:  1.37  90:  5.84  91:  8.15  92:  3.99  93:  7.40  94:673.96  95:530.54  96:  5.02
  97: 32.05  98: 22.88  99: 33.63 100: 11.20 101:  0.12 102:  8.91 103:  9.00 104:  4.99
 105:  5.52 106:  4.95 107:  1.03 108:  0.61 109: 35.23 110: 24.00 111: 27.69 112: 17.39
 113: 19.73 114: 21.32
 Raman intensities (Ä⁴*amu⁻¹)
   1:  0.00   2:  0.00   3:  0.00   4:  0.00   5:  0.00   6:  0.00   7:  0.00   8:  0.00
   9:  0.00  10:  0.00  11:  0.00  12:  0.00  13:  0.00  14:  0.00  15:  0.00  16:  0.00
  17:  0.00  18:  0.00  19:  0.00  20:  0.00  21:  0.00  22:  0.00  23:  0.00  24:  0.00
  25:  0.00  26:  0.00  27:  0.00  28:  0.00  29:  0.00  30:  0.00  31:  0.00  32:  0.00
  33:  0.00  34:  0.00  35:  0.00  36:  0.00  37:  0.00  38:  0.00  39:  0.00  40:  0.00
  41:  0.00  42:  0.00  43:  0.00  44:  0.00  45:  0.00  46:  0.00  47:  0.00  48:  0.00
  49:  0.00  50:  0.00  51:  0.00  52:  0.00  53:  0.00  54:  0.00  55:  0.00  56:  0.00
  57:  0.00  58:  0.00  59:  0.00  60:  0.00  61:  0.00  62:  0.00  63:  0.00  64:  0.00
  65:  0.00  66:  0.00  67:  0.00  68:  0.00  69:  0.00  70:  0.00  71:  0.00  72:  0.00
  73:  0.00  74:  0.00  75:  0.00  76:  0.00  77:  0.00  78:  0.00  79:  0.00  80:  0.00
  81:  0.00  82:  0.00  83:  0.00  84:  0.00  85:  0.00  86:  0.00  87:  0.00  88:  0.00
  89:  0.00  90:  0.00  91:  0.00  92:  0.00  93:  0.00  94:  0.00  95:  0.00  96:  0.00
  97:  0.00  98:  0.00  99:  0.00 100:  0.00 101:  0.00 102:  0.00 103:  0.00 104:  0.00
 105:  0.00 106:  0.00 107:  0.00 108:  0.00 109:  0.00 110:  0.00 111:  0.00 112:  0.00
 113:  0.00 114:  0.00
 output can be read by thermo (or use thermo option).
 writing <g98.out> molden fake output.
 recommended (thermochemical) frequency scaling factor: 1.0
           -------------------------------------------------
          |             Thermodynamic Functions             |
           -------------------------------------------------

Molecule has no symmetry elements
It seems to be the C1 point group
c1  symmetry found (for desy threshold:  0.10E+00) used in thermo

          ...................................................
          :                      SETUP                      :
          :.................................................:
          :  # frequencies                         108      :
          :  # imaginary freq.                       0      :
          :  linear?                             false      :
          :  only rotor calc.                    false      :
          :  symmetry                               c1      :
          :  rotational number                       1      :
          :  scaling factor                  1.0000000      :
          :  rotor cutoff                    0.0000000 cm⁻¹ :
          :  imag. cutoff                 -100.0000000 cm⁻¹ :
          :.................................................:

    mode    ω/cm⁻¹     T·S(HO)/kcal·mol⁻¹    T·S(FR)/kcal·mol⁻¹   T·S(vib)
   ------------------------------------------------------------------------
       1     53.20    -1.39976 (100.00%)    -1.03814 (  0.00%)    -1.39976
       2     54.89    -1.38130 (100.00%)    -1.02886 (  0.00%)    -1.38130
       3     62.89    -1.30124 (100.00%)    -0.98857 (  0.00%)    -1.30124
       4     63.74    -1.29338 (100.00%)    -0.98461 (  0.00%)    -1.29338
       5     69.43    -1.24312 (100.00%)    -0.95927 (  0.00%)    -1.24312
       6     84.92    -1.12516 (100.00%)    -0.89961 (  0.00%)    -1.12516
       7     80.95    -1.15313 (100.00%)    -0.91378 (  0.00%)    -1.15313
       8     83.27    -1.13664 (100.00%)    -0.90543 (  0.00%)    -1.13664
       9     89.60    -1.09381 (100.00%)    -0.88370 (  0.00%)    -1.09381
      10     90.00    -1.09127 (100.00%)    -0.88241 (  0.00%)    -1.09127
      11    110.22    -0.97349 (100.00%)    -0.82237 (  0.00%)    -0.97349
      12    113.88    -0.95459 (100.00%)    -0.81269 (  0.00%)    -0.95459
      13    117.95    -0.93429 (100.00%)    -0.80228 (  0.00%)    -0.93429
      14    139.80    -0.83681 (100.00%)    -0.75195 (  0.00%)    -0.83681
      15    154.84    -0.77875 (100.00%)    -0.72168 (  0.00%)    -0.77875
      16    151.56    -0.79087 (100.00%)    -0.72802 (  0.00%)    -0.79087
      17    162.42    -0.75176 (100.00%)    -0.70751 (  0.00%)    -0.75176
      18    133.45    -0.86335 (100.00%)    -0.76571 (  0.00%)    -0.86335
      19    156.04    -0.77437 (100.00%)    -0.71939 (  0.00%)    -0.77437
      20    124.48    -0.90326 (100.00%)    -0.78632 (  0.00%)    -0.90326
      21    208.04    -0.61443 (100.00%)    -0.63419 (  0.00%)    -0.61443
      22    235.92    -0.54663 (100.00%)    -0.59693 (  0.00%)    -0.54663
      23    219.16    -0.58617 (100.00%)    -0.61876 (  0.00%)    -0.58617
      24    235.36    -0.54791 (100.00%)    -0.59764 (  0.00%)    -0.54791
      25    285.44    -0.44747 (100.00%)    -0.54048 (  0.00%)    -0.44747
      26    288.08    -0.44281 (100.00%)    -0.53776 (  0.00%)    -0.44281
   ------------------------------------------------------------------------

   temp. (K)  partition function   enthalpy   heat capacity  entropy
                                   cal/mol     cal/K/mol   cal/K/mol   J/K/mol
 298.15  VIB  0.222E+11            13878.403     79.219     93.893
         ROT  0.731E+07              888.752      2.981     34.389
         INT  0.162E+18            14767.156     82.200    128.281
         TR   0.581E+28             1481.254      4.968     43.260
         TOT                       16248.4095    87.1683   171.5417   717.7303

       T/K    H(0)-H(T)+PV         H(T)/Eh          T*S/Eh         G(T)/Eh
   ------------------------------------------------------------------------
    298.15    0.258935E-01    0.314417E+00    0.815050E-01    0.232912E+00
   ------------------------------------------------------------------------

         :::::::::::::::::::::::::::::::::::::::::::::::::::::
         ::                  THERMODYNAMIC                  ::
         :::::::::::::::::::::::::::::::::::::::::::::::::::::
         :: total free energy         -64.464570031427 Eh   ::
         ::.................................................::
         :: total energy              -64.697482494128 Eh   ::
         :: zero point energy           0.288523954662 Eh   ::
         :: G(RRHO) w/o ZPVE           -0.055611491960 Eh   ::
         :: G(RRHO) contrib.            0.232912462701 Eh   ::
         :::::::::::::::::::::::::::::::::::::::::::::::::::::

optimized geometry written to: xtbopt.coord


           -------------------------------------------------
          | TOTAL ENERGY              -64.697482494128 Eh   |
          | TOTAL ENTHALPY            -64.383065050662 Eh   |
          | TOTAL FREE ENERGY         -64.464570031427 Eh   |
          | GRADIENT NORM               0.000101809557 Eh/α |
          | HOMO-LUMO GAP               3.307096463906 eV   |
           -------------------------------------------------

------------------------------------------------------------------------
 * finished run on 2025/04/09 at 09:47:02.280     
------------------------------------------------------------------------
 total:
 * wall-time:     0 d,  0 h,  0 min, 18.841 sec
 *  cpu-time:     0 d,  0 h,  0 min, 18.754 sec
 * ratio c/w:     0.995 speedup
 SCF:
 * wall-time:     0 d,  0 h,  0 min,  0.103 sec
 *  cpu-time:     0 d,  0 h,  0 min,  0.091 sec
 * ratio c/w:     0.877 speedup
 analytical hessian:
 * wall-time:     0 d,  0 h,  0 min,  8.950 sec
 *  cpu-time:     0 d,  0 h,  0 min,  8.946 sec
 * ratio c/w:     1.000 speedup

