41
 energy: -65.042940964119 gnorm: 0.050170046675 xtb: 6.7.1 (edcfbbe)
C            4.21022702823129       -1.99657870644950       -2.23111414994206
C            4.70853766512651       -1.55865532717645       -0.87650317423170
O            3.60959890864260       -1.29207218108225        0.06250192526180
P            2.75063434977149        0.06728731331853        0.05235774766229
S            3.64134123428929        1.68959561928762       -0.54950860112824
O            2.29835233416355        0.18621354114217        1.58620029685937
C            1.26107342141696       -0.63290618111064        2.23515829138073
C            1.63653978731101       -2.09156009279778        2.34458326040942
S            1.05985388214421       -0.52975280194808       -1.09586588991445
C            0.28712483131262        1.10003512715270       -1.45903369525391
S           -0.65675781818481        1.89113077019601       -0.10610202739975
P           -2.37676915692158        0.64048265946928       -0.08885713056414
S           -3.05850180437570        0.14235810167240       -1.84626190231630
O           -3.24878191437238        1.61076416703059        0.84672828714763
C           -4.38209554143574        1.11505770989708        1.64983681268230
C           -5.66106329334374        1.07849514312727        0.85075826143350
O           -2.02905761452868       -0.58497171220189        0.89001257493849
C           -2.03153401910999       -1.99317431302362        0.48609828848936
C           -3.32059758977918       -2.64355188335526        0.92067358297998
H            3.52318016437793       -2.84367122452741       -2.14116241551009
H            3.70924673385729       -1.18217422972466       -2.76127076388958
H            5.07142777948788       -2.31353031177703       -2.82828473478401
H            5.33019554025615       -0.66014311125782       -0.93856756374231
H            5.27550387496067       -2.34990225377936       -0.38276593467490
H            1.16856116427700       -0.17222417094451        3.22119682225242
H            0.32451917081070       -0.49083183665710        1.68949172301618
H            2.61940883473259       -2.21317102037535        2.81061616829250
H            0.89132319195055       -2.58811432867649        2.97507826090376
H            1.63946236721402       -2.58976582859319        1.37013382512930
H           -0.37054801708040        0.93891699699980       -2.31906378209693
H            1.07632719025474        1.80702293587000       -1.73551468114064
H           -4.12256154357620        0.13322068224358        2.05470200556163
H           -4.44360869245913        1.83112736450419        2.47136001222065
H           -5.85621224753827        2.04568752517894        0.37785909320782
H           -5.63904084308275        0.30069159679196        0.08488304447999
H           -6.48462013863712        0.86140473953000        1.53803430433609
H           -1.88933221091389       -2.05767528672609       -0.59624128169772
H           -1.16159660136000       -2.42797471735166        0.98530512936384
H           -4.17835076685700       -2.17789504130939        0.42408798501527
H           -3.29346316087201       -3.70336105215750        0.64492023270590
H           -3.45073121340974       -2.57106776264352        2.00474378613400
41
 energy: -65.046849914444 gnorm: 0.027355359704 xtb: 6.7.1 (edcfbbe)
C            4.20398999938405       -1.99148417054810       -2.22728780773950
C            4.69795036575751       -1.54854549680391       -0.87047858489693
O            3.60975029807495       -1.28821538128618        0.06078051332811
P            2.72558403668767        0.04804183559798        0.03592836597519
S            3.64094540433612        1.67247068562782       -0.55086672206145
O            2.27652619045166        0.17846525854017        1.56206821733730
C            1.26173965744873       -0.63099722219372        2.22959656348695
C            1.63634354494939       -2.09002210575029        2.33980476973644
S            0.98900190630382       -0.54030629756742       -1.05328848464541
C            0.28228825966201        1.09536291691038       -1.45319404112011
S           -0.61792284302244        1.84980598007533       -0.06028010917915
P           -2.36105242623238        0.63625581172686       -0.08578951900196
S           -3.05828966741052        0.12028553409576       -1.84446569128272
O           -3.23585901003235        1.59779851849296        0.84569001621974
C           -4.36540387203475        1.11692225244842        1.64065121448724
C           -5.65176116252285        1.07694866296516        0.84807842820567
O           -2.02109793017936       -0.58971572480228        0.88732399225777
C           -2.03137203469316       -1.98653630226414        0.48289963170456
C           -3.32014220804945       -2.64378743225948        0.91796264057444
H            3.51741605495455       -2.83059606550221       -2.13212422846880
H            3.69723016615196       -1.17709854370059       -2.74317386243421
H            5.05880102148352       -2.30287560521495       -2.82609789905773
H            5.30817265996461       -0.64363367023559       -0.94295444035187
H            5.26581294553947       -2.33734439054078       -0.37409770328050
H            1.18387060572406       -0.16071707946369        3.21167433001494
H            0.32200411567949       -0.49571598336333        1.68999020744021
H            2.61917235508481       -2.19823041666962        2.79444827843688
H            0.90119710152665       -2.58958413737221        2.97046590494711
H            1.64809871016496       -2.57013910227121        1.36177550655521
H           -0.39183132706331        0.93539909728018       -2.29682780262906
H            1.08769279911405        1.78569786822132       -1.71331359275593
H           -4.10921046680714        0.13463594986530        2.04312819770704
H           -4.42462640407383        1.84046676017889        2.45578324572716
H           -5.83795243693789        2.03920401239905        0.37504924161411
H           -5.61787246306790        0.31079566559996        0.07533251310412
H           -6.47566509148145        0.85644023618685        1.52602046392084
H           -1.89942934670277       -2.04182048701152       -0.60095959538006
H           -1.16407816039915       -2.42416248274584        0.98059145325128
H           -4.17069532239880       -2.17659638703668        0.42234651522652
H           -3.29361641824438       -3.69640733925943        0.64284795442815
H           -3.44849434033942       -2.56569860458364        1.99616591217591
41
 energy: -65.048495117930 gnorm: 0.011006619075 xtb: 6.7.1 (edcfbbe)
C            4.18705490054100       -1.98190844303827       -2.22221630284289
C            4.67844180459456       -1.53545280415242       -0.86197751630368
O            3.60079639125290       -1.28294468790824        0.06060818860636
P            2.69497693998988        0.03038301658720        0.02954272759341
S            3.60034081194863        1.65192715345428       -0.58366010428974
O            2.25071534502775        0.17238284510132        1.54610748866044
C            1.25834296364455       -0.62565865530420        2.23131418248281
C            1.63917926655052       -2.08568489595880        2.33334724467218
S            0.95720563004427       -0.57001198961784       -1.05801437720018
C            0.27971434581707        1.07235224486101       -1.42787459209101
S           -0.59663586038280        1.83902803436694       -0.03268226241000
P           -2.33720844316568        0.62892370496753       -0.07170804593060
S           -3.01905551164388        0.12204682097686       -1.84132441493960
O           -3.21742943122603        1.58296359963391        0.84862671445519
C           -4.34313552322500        1.11935868354394        1.63476556771017
C           -5.63152845145944        1.07771135327944        0.83834875130190
O           -2.01371180260337       -0.60254351874239        0.89125983458387
C           -2.02942420598914       -1.98555599366804        0.48069509862940
C           -3.32168844887699       -2.64509916256827        0.91450263171475
H            3.50282263876503       -2.81776787431363       -2.12274368353654
H            3.67429438660966       -1.16523922331274       -2.72427399603401
H            5.03781435085458       -2.28534499247969       -2.82295495216536
H            5.28162915184588       -0.62656215078844       -0.94524289962586
H            5.25207788859713       -2.32137315076534       -0.36792048312816
H            1.19797979182679       -0.15207560609728        3.21238194570849
H            0.30843285386612       -0.49901733415944        1.70743781805889
H            2.62439560455983       -2.18374497526358        2.77717231568370
H            0.91392925241408       -2.59328622407129        2.96128113162506
H            1.65484663632047       -2.54563719710675        1.34852895773583
H           -0.40831408511548        0.93180206918747       -2.26097681265577
H            1.09529057122939        1.74808764576671       -1.68404017826240
H           -4.09727321431880        0.13685839814843        2.04201115173103
H           -4.40518224231812        1.85099156049199        2.44241768082926
H           -5.81268677629744        2.03852821209778        0.36777255466481
H           -5.58367628585367        0.32026080626361        0.05950332482528
H           -6.45507996450314        0.84962556630093        1.50748846593239
H           -1.90790453628353       -2.03356949565818       -0.60483075203004
H           -1.16525772672749       -2.43248977232215        0.97272899166159
H           -4.16539991585013       -2.17399837229901        0.41745819926997
H           -3.29444407082093       -3.69243419820001        0.63937050761751
H           -3.44802976288822       -2.56106437946767        1.98897389126904
41
 energy: -65.048994728874 gnorm: 0.006120024107 xtb: 6.7.1 (edcfbbe)
C            4.16782244364580       -1.97270468819531       -2.21738103179912
C            4.66541559357011       -1.52753856978200       -0.85631116316462
O            3.59400944376258       -1.27852723476310        0.06498754033093
P            2.67915455875790        0.02308070544614        0.02864015045593
S            3.56190522826782        1.64688019141808       -0.61137295867727
O            2.23212894330164        0.17516208908466        1.53697714988041
C            1.25387996586180       -0.62003179630080        2.23639909678430
C            1.64287060338533       -2.08092129964920        2.32832152663889
S            0.93990932689439       -0.59030881868437       -1.05106951402294
C            0.28030851703919        1.05485389444124       -1.41806898180834
S           -0.57568763376059        1.82390349649538       -0.01196868504054
P           -2.32242920394712        0.62464157330559       -0.06134702219278
S           -2.98734532964674        0.12974625736641       -1.84036228642138
O           -3.20235247730559        1.57621389826843        0.85302682668852
C           -4.32742545000576        1.12328191140968        1.63603227498212
C           -5.61057241200182        1.08030284549655        0.82744955431254
O           -2.00925518175989       -0.61242369075307        0.89344430589263
C           -2.02726572851229       -1.98953229582512        0.47736494720918
C           -3.32318108331521       -2.64662806415148        0.91152122726354
H            3.48615730281045       -2.81116632263221       -2.11566729866231
H            3.64923084920588       -1.15397343705648       -2.71181324990550
H            5.01638673391516       -2.26983233681034       -2.82386865437241
H            5.26758152444105       -0.61796293199194       -0.94666305913418
H            5.24737194375337       -2.31155515079361       -0.36881332445210
H            1.20624638674298       -0.15035768184285        3.22006027275394
H            0.29092165555848       -0.50033620993063        1.73255222928405
H            2.63215295886894       -2.17573326815625        2.76579069580324
H            0.92383790575272       -2.59908858628604        2.95409579445556
H            1.65585375325592       -2.53015298687071        1.33792037233358
H           -0.41895996154198        0.93260640478125       -2.24571662121508
H            1.10325974626098        1.72059787496630       -1.67818852522699
H           -4.09295667073814        0.14112371138982        2.05267708131313
H           -4.39616495078575        1.85896313964693        2.43945612141417
H           -5.79201560215343        2.04368338356403        0.36053043883928
H           -5.55009716825009        0.32640541884419        0.04491326810749
H           -6.43693031449244        0.84274873935224        1.48914600703687
H           -1.91176454801346       -2.03735575341853       -0.60920438286611
H           -1.16432763084707       -2.44732821274408        0.96194239964994
H           -4.16469349039484       -2.17249135279794        0.41218228083045
H           -3.29673204950434       -3.69439631903257        0.63734624589378
H           -3.44903323132509       -2.55908190904255        1.98624294438477
41
 energy: -65.049181449055 gnorm: 0.004954021678 xtb: 6.7.1 (edcfbbe)
C            4.15025644609492       -1.96457890169748       -2.21371338108445
C            4.65611963476667       -1.52085011982644       -0.85440681468695
O            3.58889635951527       -1.27259071874206        0.07175719905478
P            2.66708337353461        0.02147748651788        0.02927992450267
S            3.54091694513936        1.64544715145396       -0.62169774785582
O            2.21811513854728        0.18294927947528        1.53292267415440
C            1.25202739711083       -0.61652652665555        2.24539541930980
C            1.64604288322260       -2.07767209975415        2.32560868147047
S            0.93351937728343       -0.60617654016030       -1.05348160439709
C            0.28176480809829        1.04168391629294       -1.41494241081592
S           -0.56019642836021        1.81754291158139       -0.00279659971072
P           -2.30996184949114        0.62187866371175       -0.05412595310731
S           -2.97232760782537        0.13837182968948       -1.83714265944876
O           -3.18648084807084        1.57382999171169        0.85871893326160
C           -4.31627216755114        1.12790602694470        1.63825412951011
C           -5.59293926460705        1.08279214839303        0.81872008378212
O           -2.00606951061774       -0.62122267073532        0.89466182188841
C           -2.02747930410005       -1.99658657639790        0.47356537455664
C           -3.32526049775504       -2.65033808705333        0.90886102798318
H            3.47127668766507       -2.80639844666366       -2.10999596486537
H            3.62574532145674       -1.14561719256755       -2.70323457211094
H            4.99600309260829       -2.25751547217711       -2.82781212413525
H            5.25902477931695       -0.61168859643722       -0.94884674103925
H            5.24412978138703       -2.30423181805347       -0.37290069954144
H            1.21624557346054       -0.15144121464095        3.23204459275976
H            0.27942988040558       -0.49883679811873        1.75862770979995
H            2.63865258991421       -2.17343985105517        2.75776786982998
H            0.93129230475769       -2.60441515590525        2.95060564616974
H            1.65361853873998       -2.52068890101753        1.33136951476759
H           -0.42458546828370        0.92975161948686       -2.23870305535381
H            1.10782021440565        1.70145857425232       -1.68383990560036
H           -4.08947184683880        0.14696963858122        2.06355360597807
H           -4.39060915614907        1.86630226189043        2.43874096499031
H           -5.77612966243551        2.04852393845240        0.35515722903306
H           -5.52086705241116        0.33211229642499        0.03318302481885
H           -6.42454722279270        0.83633671251254        1.47211034946196
H           -1.91406651101657       -2.04319062313308       -0.61358065843614
H           -1.16423794129236       -2.46113074033100        0.95206825300202
H           -4.16643169964000       -2.17451213000585        0.40856734853300
H           -3.30156467945077       -3.69993490811482        0.63647012503734
H           -3.45126714199085       -2.56098374036313        1.98441338211148
41
 energy: -65.049279987887 gnorm: 0.003879734852 xtb: 6.7.1 (edcfbbe)
C            4.13502995248098       -1.95791037132769       -2.21029290685097
C            4.65118000646963       -1.51703364729995       -0.85427087785991
O            3.58989576181568       -1.26831322967037        0.08131214092518
P            2.66376968249003        0.02141557281574        0.03372403756594
S            3.52995221821374        1.64692011354052       -0.62382091364508
O            2.20858508726911        0.19002317518626        1.53346554451414
C            1.25172176935219       -0.61591967703097        2.25473899767523
C            1.64832359957020       -2.07654993346247        2.32354131389549
S            0.93603448029804       -0.61072782606189       -1.05478275716047
C            0.28257673495277        1.03412071763254       -1.42039983475977
S           -0.55100148675824        1.81022424640506       -0.00315840514206
P           -2.30392240547039        0.61972926930785       -0.04893041687533
S           -2.96940896294424        0.14569160894959       -1.83320903418243
O           -3.17363690917132        1.57347187649241        0.86668835502471
C           -4.30966063811138        1.13217556851596        1.64191491867404
C           -5.57913922110893        1.08483790472492        0.81223999711004
O           -2.00448728428188       -0.62812555498741        0.89507400762627
C           -2.02898031660932       -2.00341477008063        0.46977815504810
C           -3.32700723990168       -2.65447820004212        0.90663621714965
H            3.45834604403524       -2.80203710419367       -2.10436000260930
H            3.60527534991892       -1.13901626035479       -2.69504214221107
H            4.97678562871719       -2.24799509526689       -2.83239300385645
H            5.25429876756121       -0.60810402444294       -0.95065917578342
H            5.24225157544143       -2.30113417300477       -0.37788838870177
H            1.22790305093390       -0.15513468260225        3.24398986519703
H            0.27308657726974       -0.49594914465797        1.78120829624255
H            2.64318508180949       -2.17520992585409        2.75085649147900
H            0.93653454628900       -2.60840082115194        2.94860050158320
H            1.65018718145605       -2.51491850959477        1.32673359481704
H           -0.42826021374078        0.92307909743597       -2.24015360402359
H            1.10757847926873        1.69277236415601       -1.69663201048798
H           -4.08633334719869        0.15296921052550        2.07332929826538
H           -4.38763726311198        1.87375436090815        2.43912688620731
H           -5.76428625133207        2.05201027743923        0.35146970423065
H           -5.49665297657264        0.33764375740491        0.02416185253014
H           -6.41565524155273        0.83072986339038        1.45741675227456
H           -1.91729547052618       -2.04720954629194       -0.61784055510867
H           -1.16466980061458       -2.47111139162407        0.94374431700383
H           -4.16873952287173       -2.17839160106506        0.40667763752188
H           -3.30588547302007       -3.70537517065621        0.63591679329597
H           -3.45262628396351       -2.56434170634019        1.98269234697873
41
 energy: -65.049341027049 gnorm: 0.002597403655 xtb: 6.7.1 (edcfbbe)
C            4.12036426700330       -1.95140050503439       -2.20711040914759
C            4.64675848918545       -1.51344664272975       -0.85517411782293
O            3.59121207926574       -1.26228590783445        0.08998874231012
P            2.66212330226964        0.02484645377990        0.03712507249816
S            3.52925615231173        1.65110785016806       -0.61747282990205
O            2.20030782705488        0.19760815972736        1.53420207845421
C            1.25271194050613       -0.61651718337254        2.26307469621471
C            1.64984528265401       -2.07640734630569        2.32063941279907
S            0.93965908702290       -0.61823879176524       -1.05580115270561
C            0.28400935199770        1.02534261559721       -1.42384112826221
S           -0.54410398315713        1.80480635437873       -0.00535661842118
P           -2.30049616360099        0.61812257055462       -0.04735950241934
S           -2.97684507691405        0.14912714808815       -1.82910438178876
O           -3.16075397382587        1.57416127282415        0.87472759286287
C           -4.30392259971196        1.13622842212208        1.64477684108277
C           -5.56684350143240        1.08662219682949        0.80697969571891
O           -2.00287330399363       -0.63303471239803        0.89338794141001
C           -2.03099967033714       -2.00904953446968        0.46529276315403
C           -3.32809405519962       -2.65842554946407        0.90446380008842
H            3.44514396027467       -2.79641993081990       -2.09849008530704
H            3.58680801369083       -1.13239639562584       -2.68715989236768
H            4.95768121162669       -2.24001171177638       -2.83614290845612
H            5.25065538641694       -0.60538780499698       -0.95270153849825
H            5.23789858314589       -2.29954399647825       -0.38262631754871
H            1.24189869286673       -0.16022621708122        3.25472454930906
H            0.26940232927211       -0.49228835174468        1.80152963058481
H            2.64672648017251       -2.17868870965608        2.74230955634639
H            0.94092248481221       -2.61104939705524        2.94698255023634
H            1.64537212150192       -2.51050660854661        1.32198582381422
H           -0.43014080653756        0.91089674807072       -2.23998526348284
H            1.10601508321348        1.68512466918791       -1.70695592664753
H           -4.08241781674140        0.15898201252109        2.08110036390761
H           -4.38482402802681        1.88148041328602        2.43820515324432
H           -5.75388156379891        2.05458115334602        0.34864937630177
H           -5.47525274519161        0.34313526764908        0.01674198718770
H           -6.40711399761262        0.82594804940641        1.44470455923262
H           -1.92156836432623       -2.04958606115252       -0.62266576392393
H           -1.16544849410880       -2.47763265177123        0.93600211343167
H           -4.17089121617693       -2.18299932666011        0.40573997780730
H           -3.30869887606925       -3.70993634698656        0.63509749274167
H           -3.45238662275154       -2.56787505604557        1.98072005954093
41
 energy: -65.049360925624 gnorm: 0.001832071256 xtb: 6.7.1 (edcfbbe)
C            4.11437436515812       -1.94872401440741       -2.20489891094439
C            4.64656914060680       -1.51314197744351       -0.85502757970682
O            3.59507509725325       -1.26067524225090        0.09535749218299
P            2.66384466137396        0.02513762618954        0.04015828350892
S            3.52896094230565        1.65308072931037       -0.61366856423435
O            2.19839813430061        0.19888743048058        1.53634452117439
C            1.25409437085063       -0.61790348742315        2.26717523955675
C            1.64974931451764       -2.07773057588386        2.31863345062536
S            0.94378292813119       -0.61738523233793       -1.05617470280538
C            0.28265380359482        1.02302349246913       -1.42823839113332
S           -0.54412004311587        1.80318921271463       -0.00999851682590
P           -2.30109873881747        0.61795889837422       -0.04716887908743
S           -2.98287855560774        0.15007164303964       -1.82734728856019
O           -3.15575728769104        1.57489523696169        0.88013185238929
C           -4.30247496642907        1.13774764816447        1.64618254189437
C           -5.56272329708802        1.08713907741455        0.80532771405112
O           -2.00201752841384       -0.63396623175354        0.89233257531706
C           -2.03159372872068       -2.01003954367377        0.46297678554310
C           -3.32769504915825       -2.65972304653315        0.90358506439733
H            3.43875072801882       -2.79274390146809       -2.09465554939295
H            3.57993542171574       -1.12878203964589       -2.68171370040463
H            4.94870655878547       -2.23741698112678       -2.83727541668268
H            5.25087172576418       -0.60569264971905       -0.95330863772729
H            5.23662366922112       -2.30105471558230       -0.38444572147319
H            1.24986611990632       -0.16396738127085        3.25967350069489
H            0.26955201865106       -0.49020861979587        1.81011832631152
H            2.64770480798662       -2.18213695107808        2.73643513425021
H            0.94238066623093       -2.61240681429483        2.94629247280479
H            1.64175442922854       -2.50909051817525        1.31915625233751
H           -0.43220097195424        0.90308558552454       -2.24283848400924
H            1.10278964375069        1.68406808913685       -1.71289572787746
H           -4.08104532943509        0.16136188283198        2.08379272068388
H           -4.38475710542314        1.88486196280523        2.43757397116510
H           -5.75005816500885        2.05511433513866        0.34782290988665
H           -5.46752571470884        0.34555280503785        0.01418785976937
H           -6.40388595180856        0.82414228790345        1.44010674147780
H           -1.92411373050162       -2.04871462429180       -0.62509843312348
H           -1.16545966561170       -2.47807457483156        0.93270776988932
H           -4.17116284147213       -2.18484097171416        0.40610992317423
H           -3.30808795838812       -3.71080235742544        0.63406891264177
H           -3.45056665124685       -2.56932887360416        1.97970648183894
41
 energy: -65.049368398643 gnorm: 0.001109590708 xtb: 6.7.1 (edcfbbe)
C            4.11154688945387       -1.94724367144675       -2.20318766492740
C            4.64647139570592       -1.51332693740373       -0.85401252127628
O            3.59701654285059       -1.25872941657084        0.09751392023063
P            2.66430613949093        0.02642519267451        0.04074508595791
S            3.53013815365149        1.65509067265173       -0.61041924798057
O            2.19829807546093        0.19862508667401        1.53734985000581
C            1.25571472776297       -0.61882641792007        2.26878633535604
C            1.64908670539907       -2.07932844344238        2.31588711297270
S            0.94462180587116       -0.62017263174177       -1.05435109956684
C            0.28320807167014        1.02049960002060       -1.42961627237900
S           -0.54544012023435        1.80312508221752       -0.01458861400950
P           -2.30303435413678        0.61909276956694       -0.04780858767892
S           -2.98916948786036        0.14994177105227       -1.82587685740453
O           -3.15418239210928        1.57578188561120        0.88436467576935
C           -4.30256760500924        1.13825244957328        1.64700632853772
C           -5.56182108436166        1.08696015781876        0.80474349617328
O           -2.00110065779496       -0.63254340694172        0.89126245430245
C           -2.03090738596126       -2.00819433386461        0.46125710722703
C           -3.32613754951571       -2.65924334024067        0.90312336563577
H            3.43415024003343       -2.78929371319287       -2.09186360136293
H            3.57832626126433       -1.12566726678482       -2.67792240668187
H            4.94390655753931       -2.23730715153618       -2.83675478788480
H            5.25244868607951       -0.60728954131292       -0.95288804559732
H            5.23452710807544       -2.30314424460212       -0.38419175202624
H            1.25584266823117       -0.16736859363909        3.26205384819607
H            0.27006784286155       -0.48852790603723        1.81476211607365
H            2.64836992148419       -2.18572100299375        2.72946779583756
H            0.94344618945113       -2.61366351214060        2.94532385061097
H            1.63722881243417       -2.50817123926513        1.31569956449516
H           -0.43153710065857        0.89581460480933       -2.24378577130845
H            1.10236430012282        1.68206052218631       -1.71498650693264
H           -4.08121452598609        0.16214125531869        2.08492687707652
H           -4.38654303420877        1.88606732851506        2.43742648179022
H           -5.74917722735453        2.05478333722139        0.34740468196164
H           -5.46530173630975        0.34614952832850        0.01331569009406
H           -6.40277479515032        0.82315019927853        1.43866272984041
H           -1.92543199630519       -2.04602718920901       -0.62683493244251
H           -1.16438216399430       -2.47569678264456        0.93042027035062
H           -4.17030501605342       -2.18463746196857        0.40708418126266
H           -3.30546127543743       -3.70959117123202        0.63253635701656
H           -3.44738231970109       -2.56947944962116        1.97916848626295
41
 energy: -65.049371348394 gnorm: 0.000634659235 xtb: 6.7.1 (edcfbbe)
C            4.11177095989100       -1.94716751498450       -2.20228682025772
C            4.64705829579044       -1.51417618057680       -0.85260073756336
O            3.59810610189158       -1.25864690985363        0.09830168380310
P            2.66438665324991        0.02595806727034        0.04110339065825
S            3.52838968230108        1.65485965176083       -0.61163631407068
O            2.19956597360734        0.19744143323914        1.53826030057520