      -----------------------------------------------------------      
     |                   =====================                   |     
     |                           x T B                           |     
     |                   =====================                   |     
     |                         S. Grimme                         |     
     |          Mulliken Center for Theoretical Chemistry        |     
     |                    University of Bonn                     |     
      -----------------------------------------------------------      

   * xtb version 6.7.1 (edcfbbe) compiled by 'albert@albert-system' on 2024-07-22

   xtb is free software: you can redistribute it and/or modify it under
   the terms of the GNU Lesser General Public License as published by
   the Free Software Foundation, either version 3 of the License, or
   (at your option) any later version.
   
   xtb is distributed in the hope that it will be useful,
   but WITHOUT ANY WARRANTY; without even the implied warranty of
   MERCHANTABILITY or FITNESS FOR A PARTICULAR PURPOSE.  See the
   GNU Lesser General Public License for more details.
   
   Cite this work as:
   * C. Bannwarth, E. Caldeweyher, S. Ehlert, A. Hansen, P. Pracht,
     J. Seibert, S. Spicher, S. Grimme, WIREs Comput. Mol. Sci., 2020, 11,
     e01493. DOI: 10.1002/wcms.1493
   
   for GFN2-xTB:
   * C. Bannwarth, S. Ehlert and S. Grimme., J. Chem. Theory Comput., 2019,
     15, 1652-1671. DOI: 10.1021/acs.jctc.8b01176
   for GFN1-xTB:
   * S. Grimme, C. Bannwarth, P. Shushkov, J. Chem. Theory Comput., 2017,
     13, 1989-2009. DOI: 10.1021/acs.jctc.7b00118
   for GFN0-xTB:
   * P. Pracht, E. Caldeweyher, S. Ehlert, S. Grimme, ChemRxiv, 2019, preprint.
     DOI: 10.26434/chemrxiv.8326202.v1
   for GFN-FF:
   * S. Spicher and S. Grimme, Angew. Chem. Int. Ed., 2020, 59, 15665-15673.
     DOI: 10.1002/anie.202004239
   
   for ALPB and GBSA implicit solvation:
   * S. Ehlert, M. Stahn, S. Spicher, S. Grimme, J. Chem. Theory Comput.,
     2021, 17, 4250-4261. DOI: 10.1021/acs.jctc.1c00471
   
   for ddCOSMO and CPCM-X implicit solvation:
   * M. Stahn, S. Ehlert, S. Grimme, J. Phys. Chem. A,
     2023, XX, XXXX-XXXX. DOI: 10.1021/acs.jpca.3c04382
   
   for DFT-D4:
   * E. Caldeweyher, C. Bannwarth and S. Grimme, J. Chem. Phys., 2017,
     147, 034112. DOI: 10.1063/1.4993215
   * E. Caldeweyher, S. Ehlert, A. Hansen, H. Neugebauer, S. Spicher,
     C. Bannwarth and S. Grimme, J. Chem. Phys., 2019, 150, 154122.
     DOI: 10.1063/1.5090222
   * E. Caldeweyher, J.-M. Mewes, S. Ehlert and S. Grimme, Phys. Chem. Chem. Phys.
     2020, 22, 8499-8512. DOI: 10.1039/D0CP00502A
   
   for sTDA-xTB:
   * S. Grimme and C. Bannwarth, J. Chem. Phys., 2016, 145, 054103.
     DOI: 10.1063/1.4959605
   
   in the mass-spec context:
   * V. Asgeirsson, C. Bauer and S. Grimme, Chem. Sci., 2017, 8, 4879.
     DOI: 10.1039/c7sc00601b
   * J. Koopman and S. Grimme, ACS Omega 2019, 4, 12, 15120-15133.
     DOI: 10.1021/acsomega.9b02011
   
   for metadynamics refer to:
   * S. Grimme, J. Chem. Theory Comput., 2019, 155, 2847-2862
     DOI: 10.1021/acs.jctc.9b00143
   
   for SPH calculations refer to:
   * S. Spicher and S. Grimme, J. Chem. Theory Comput., 2021, 17, 1701-1714
     DOI: 10.1021/acs.jctc.0c01306
   
   for ONIOM refer to:
   * C. Plett, A. Katbashev, S. Ehlert, S. Grimme, M. Bursch,
     Phys. Chem. Chem. Phys., 2023, 25, 17860-17868. DOI: 10.1039/D3CP02178E
   
   for DIPRO refer to:
   * J. Kohn, N. Gildemeister, S. Grimme, D. Fazzi, A. Hansen,
     J. Chem. Phys., 2023, just accepted.
   
   for PTB refer to:
   * S. Grimme, M. Mueller, A. Hansen, J. Chem. Phys., 2023, 158, 124111.
     DOI: 10.1063/5.0137838
   
   with help from (in alphabetical order)
   P. Atkinson, C. Bannwarth, F. Bohle, G. Brandenburg, E. Caldeweyher
   M. Checinski, S. Dohm, S. Ehlert, S. Ehrlich, I. Gerasimov, C. Hölzer
   A. Katbashev, J. Kohn, J. Koopman, C. Lavigne, S. Lehtola, F. März, M. Müller,
   F. Musil, H. Neugebauer, J. Pisarek, C. Plett, P. Pracht, F. Pultar,
   J. Seibert, P. Shushkov, S. Spicher, M. Stahn, M. Steiner, T. Strunk,
   J. Stückrath, T. Rose, and J. Unsleber
   
 * started run on 2025/04/03 at 19:41:19.250     
   ID    Z sym.   atoms
    1    6 C      1, 2
    2   35 Br     3, 4
    3    1 H      5-8

           -------------------------------------------------
          |                Calculation Setup                |
           -------------------------------------------------

          program call               : /srv/scratch/z5358697/.xtb/bin/xtb xtb_rrho.coord --gfn2 --ohess vtight --chrg 0 --enso --norestart -I rrho-xcontrol-inp --parallel 1 --alpb water
          hostname                   : k146
          coordinate file            : xtb_rrho.coord
          omp threads                :                     1


           -------------------------------------------------
          |                 G F N 2 - x T B                 |
           -------------------------------------------------

        Reference                      10.1021/acs.jctc.8b01176
      * Hamiltonian:
        H0-scaling (s, p, d)           1.850000    2.230000    2.230000
        zeta-weighting                 0.500000
      * Dispersion:
        s8                             2.700000
        a1                             0.520000
        a2                             5.000000
        s9                             5.000000
      * Repulsion:
        kExp                           1.500000    1.000000
        rExp                           1.000000
      * Coulomb:
        alpha                          2.000000
        third order                    shell-resolved
        anisotropic                    true
        a3                             3.000000
        a5                             4.000000
        cn-shift                       1.200000
        cn-exp                         4.000000
        max-rad                        5.000000

      * Solvation model:               ALPB
        Solvent                        water
        Parameter file                 internal GFN2-xTB/ALPB
        Dielectric constant                8.0200E+01
        Reference state                gsolv [1 M gas/solution]
        Free energy shift                  1.0808E-03 Eh       6.7819E-01 kcal/mol
        Temperature                        2.9815E+02 K
        Density                            1.0000E+00 kg/L
        Solvent mass                       1.8000E+01 g/mol
        Interaction kernel             P16
        Born radius scaling (c1)           1.4744E+00
        Born radii integrator          GBOBC
        Born offset                        0.0000E+00 a0       0.0000E+00 AA
        H-bond correction              true
        Ion screening                  false
        Surface tension                    1.0000E-05 Eh       1.5569E+01 dyn/cm
        Grid points                               974 per atom

          ...................................................
          :                      SETUP                      :
          :.................................................:
          :  # basis functions                  32          :
          :  # atomic orbitals                  30          :
          :  # shells                           14          :
          :  # electrons                        26          :
          :  max. iterations                   250          :
          :  Hamiltonian                  GFN2-xTB          :
          :  restarted?                      false          :
          :  GBSA solvation                   true          :
          :  PC potential                    false          :
          :  electronic temp.          300.0000000     K    :
          :  accuracy                    1.0000000          :
          :  -> integral cutoff          0.2500000E+02      :
          :  -> integral neglect         0.1000000E-07      :
          :  -> SCF convergence          0.1000000E-05 Eh   :
          :  -> wf. convergence          0.1000000E-03 e    :
          :  Broyden damping             0.4000000          :
          :  net charge                          0          :
          :  unpaired electrons                  0          :
          ...................................................

 iter      E             dE          RMSdq      gap      omega  full diag
   1    -14.5297714 -0.145298E+02  0.575E+00    5.62       0.0  T
   2    -14.5655452 -0.357738E-01  0.443E+00    4.81       1.0  T
   3    -14.5710973 -0.555209E-02  0.155E+00    4.96       1.0  T
   4    -14.5730116 -0.191433E-02  0.600E-01    4.79       1.0  T
   5    -14.5733463 -0.334733E-03  0.266E-01    4.76       1.0  T
   6    -14.5733821 -0.357769E-04  0.174E-01    4.73       1.0  T
   7    -14.5734478 -0.656301E-04  0.310E-02    4.74       1.1  T
   8    -14.5734482 -0.481284E-06  0.103E-02    4.74       3.4  T
   9    -14.5734483 -0.482661E-07  0.642E-03    4.74       5.5  T
  10    -14.5734483 -0.618872E-07  0.173E-03    4.74      20.5  T
  11    -14.5734483 -0.250006E-08  0.630E-04    4.74      56.1  T
  12    -14.5734483 -0.543313E-09  0.173E-04    4.74     204.3  T

   *** convergence criteria satisfied after 12 iterations ***

         #    Occupation            Energy/Eh            Energy/eV
      -------------------------------------------------------------
         1        2.0000           -0.8562190             -23.2989
       ...           ...                  ...                  ...
         7        2.0000           -0.5359207             -14.5831
         8        2.0000           -0.5002850             -13.6134
         9        2.0000           -0.4941664             -13.4470
        10        2.0000           -0.4287331             -11.6664
        11        2.0000           -0.4246797             -11.5561
        12        2.0000           -0.4239474             -11.5362
        13        2.0000           -0.4226551             -11.5010 (HOMO)
        14                         -0.2485601              -6.7637 (LUMO)
        15                         -0.2366365              -6.4392
        16                         -0.0080375              -0.2187
        17                          0.0132943               0.3618
        18                          0.0226317               0.6158
       ...                                ...                  ...
        30                          0.3467502               9.4356
      -------------------------------------------------------------
                  HL-Gap            0.1740950 Eh            4.7374 eV
             Fermi-level           -0.3356076 Eh           -9.1323 eV

 SCC (total)                   0 d,  0 h,  0 min,  0.007 sec
 SCC setup                      ...        0 min,  0.000 sec (  6.716%)
 Dispersion                     ...        0 min,  0.000 sec (  0.481%)
 classical contributions        ...        0 min,  0.000 sec (  0.187%)
 integral evaluation            ...        0 min,  0.002 sec ( 28.199%)
 iterations                     ...        0 min,  0.003 sec ( 39.715%)
 molecular gradient             ...        0 min,  0.002 sec ( 22.814%)
 printout                       ...        0 min,  0.000 sec (  1.667%)

         :::::::::::::::::::::::::::::::::::::::::::::::::::::
         ::                     SUMMARY                     ::
         :::::::::::::::::::::::::::::::::::::::::::::::::::::
         :: total energy             -14.482445455343 Eh    ::
         :: total w/o Gsasa/hb       -14.480969755821 Eh    ::
         :: gradient norm              0.011881514014 Eh/a0 ::
         :: HOMO-LUMO gap              4.737366599496 eV    ::
         ::.................................................::
         :: SCC energy               -14.573446674855 Eh    ::
         :: -> isotropic ES            0.015529791031 Eh    ::
         :: -> anisotropic ES          0.002966927333 Eh    ::
         :: -> anisotropic XC          0.004790294364 Eh    ::
         :: -> dispersion             -0.005060412893 Eh    ::
         :: -> Gsolv                  -0.004528231551 Eh    ::
         ::    -> Gelec               -0.003052532028 Eh    ::
         ::    -> Gsasa               -0.001068954257 Eh    ::
         ::    -> Ghb                 -0.001487504963 Eh    ::
         ::    -> Gshift               0.001080759698 Eh    ::
         :: repulsion energy           0.091001219512 Eh    ::
         :: add. restraining           0.000000000000 Eh    ::
         :: total charge               0.000000000000 e     ::
         :::::::::::::::::::::::::::::::::::::::::::::::::::::

      ----------------------------------------------------------- 
     |                   =====================                   |
     |                        A N C O P T                        |
     |                   =====================                   |
     |               Approximate Normal Coordinate               |
     |                Rational Function Optimizer                |
      ----------------------------------------------------------- 
      ----------------------------------------------------------- 
     |                   =====================                   |
     |                        A N C O P T                        |
     |                   =====================                   |
     |               Approximate Normal Coordinate               |
     |                Rational Function Optimizer                |
      ----------------------------------------------------------- 

          ...................................................
          :                      SETUP                      :
          :.................................................:
          :   optimization level         verytight          :
          :   max. optcycles                   200          :
          :   ANC micro-cycles                  20          :
          :   degrees of freedom                18          :
          :.................................................:
          :   RF solver                   davidson          :
          :   write xtbopt.log                true          :
          :   linear?                        false          :
          :   energy convergence         0.1000000E-06 Eh   :
          :   grad. convergence          0.2000000E-03 Eh/α :
          :   maxmium RF displ.          1.0000000          :
          :   Hlow (freq-cutoff)         0.1000000E-01      :
          :   Hmax (freq-cutoff)         5.0000000          :
          :   S6 in model hess.         20.0000000          :
          ...................................................

generating ANC from exact Hessian ...
Using Lindh-Hessian (1995)
 Shifting diagonal of input Hessian by   4.009616360883130E-003
 Lowest  eigenvalues of input Hessian
    0.000000    0.000000    0.000000    0.000000    0.000000    0.000000
    0.010000    0.013996    0.019345    0.035197    0.039575    0.049435
    0.056986    0.091273    0.098671    0.109052    0.148835    0.258807
 Highest eigenvalues
    0.445800    0.708701    0.834458    1.048500    1.094920    1.228875
 

........................................................................
.............................. CYCLE    1 ..............................
........................................................................

 iter      E             dE          RMSdq      gap      omega  full diag
   1    -14.5734483 -0.145734E+02  0.774E-05    4.74       0.0  T
   2    -14.5734483 -0.246914E-11  0.641E-05    4.74     551.7  T
   3    -14.5734483 -0.325961E-11  0.295E-05    4.74    1196.5  T
     SCC iter.                  ...        0 min,  0.001 sec
     gradient                   ...        0 min,  0.002 sec
 * total energy  :   -14.4824455 Eh     change       -0.2909673E-10 Eh
   gradient norm :     0.0118815 Eh/α   predicted     0.0000000E+00 (-100.00%)
   displ. norm   :     0.1459202 α      lambda       -0.5427276E-03
   maximum displ.:     0.1073295 α      in ANC's #2, #1, #6, ...

........................................................................
.............................. CYCLE    2 ..............................
........................................................................

 iter      E             dE          RMSdq      gap      omega  full diag
   1    -14.5736608 -0.145737E+02  0.295E-01    4.75       0.0  T
   2    -14.5736659 -0.507354E-05  0.140E-01    4.75       1.0  T
   3    -14.5736677 -0.182138E-05  0.345E-02    4.74       1.0  T
   4    -14.5736684 -0.734757E-06  0.257E-02    4.75       1.4  T
   5    -14.5736692 -0.775586E-06  0.109E-02    4.74       3.3  T
   6    -14.5736694 -0.163679E-06  0.149E-03    4.74      23.8  T
   7    -14.5736694 -0.211319E-08  0.637E-04    4.74      55.5  T
   8    -14.5736694 -0.162608E-09  0.248E-04    4.74     142.4  T
     SCC iter.                  ...        0 min,  0.001 sec
     gradient                   ...        0 min,  0.001 sec
 * total energy  :   -14.4827420 Eh     change       -0.2964980E-03 Eh
   gradient norm :     0.0061505 Eh/α   predicted    -0.2771434E-03 (  -6.53%)
   displ. norm   :     0.0446572 α      lambda       -0.1156990E-03
   maximum displ.:     0.0265014 α      in ANC's #6, #5, #2, ...

........................................................................
.............................. CYCLE    3 ..............................
........................................................................

 iter      E             dE          RMSdq      gap      omega  full diag
   1    -14.5737510 -0.145738E+02  0.792E-02    4.78       0.0  T
   2    -14.5737517 -0.665080E-06  0.469E-02    4.78       1.0  T
   3    -14.5737519 -0.224785E-06  0.166E-02    4.77       2.1  T
   4    -14.5737522 -0.287047E-06  0.110E-02    4.78       3.2  T
   5    -14.5737524 -0.139824E-06  0.544E-03    4.77       6.5  T
   6    -14.5737524 -0.403683E-07  0.539E-04    4.77      65.5  T
   7    -14.5737524 -0.107899E-09  0.348E-04    4.77     101.5  T
     SCC iter.                  ...        0 min,  0.001 sec
     gradient                   ...        0 min,  0.001 sec
 * total energy  :   -14.4827928 Eh     change       -0.5080973E-04 Eh
   gradient norm :     0.0018578 Eh/α   predicted    -0.5796418E-04 (  14.08%)
   displ. norm   :     0.0193214 α      lambda       -0.1397416E-04
   maximum displ.:     0.0128478 α      in ANC's #6, #5, #1, ...

........................................................................
.............................. CYCLE    4 ..............................
........................................................................

 iter      E             dE          RMSdq      gap      omega  full diag
   1    -14.5737612 -0.145738E+02  0.349E-02    4.78       0.0  T
   2    -14.5737614 -0.198977E-06  0.204E-02    4.78       1.7  T
   3    -14.5737614  0.447939E-07  0.683E-03    4.78       5.2  T
   4    -14.5737615 -0.956305E-07  0.185E-03    4.78      19.1  T
   5    -14.5737615 -0.158343E-08  0.762E-04    4.78      46.4  T
   6    -14.5737615 -0.529999E-09  0.169E-04    4.78     209.0  T
     SCC iter.                  ...        0 min,  0.001 sec
     gradient                   ...        0 min,  0.002 sec
 * total energy  :   -14.4827994 Eh     change       -0.6638049E-05 Eh
   gradient norm :     0.0009283 Eh/α   predicted    -0.6989159E-05 (   5.29%)
   displ. norm   :     0.0077859 α      lambda       -0.3389213E-05
   maximum displ.:     0.0056855 α      in ANC's #10, #1, #5, ...

........................................................................
.............................. CYCLE    5 ..............................
........................................................................

 iter      E             dE          RMSdq      gap      omega  full diag
   1    -14.5737253 -0.145737E+02  0.203E-02    4.79       0.0  T
   2    -14.5737253 -0.580261E-07  0.123E-02    4.79       2.9  T
   3    -14.5737253 -0.184673E-07  0.485E-03    4.79       7.3  T
   4    -14.5737254 -0.241357E-07  0.351E-03    4.79      10.1  T
   5    -14.5737254 -0.138892E-07  0.155E-03    4.79      22.8  T
   6    -14.5737254 -0.341860E-08  0.152E-04    4.79     232.8  T
   7    -14.5737254 -0.920508E-11  0.850E-05    4.79     416.1  T
     SCC iter.                  ...        0 min,  0.001 sec
     gradient                   ...        0 min,  0.001 sec
 * total energy  :   -14.4828014 Eh     change       -0.2015927E-05 Eh
   gradient norm :     0.0002413 Eh/α   predicted    -0.1693860E-05 ( -15.98%)
   displ. norm   :     0.0045891 α      lambda       -0.4695859E-06
   maximum displ.:     0.0029564 α      in ANC's #2, #3, #8, ...

........................................................................
.............................. CYCLE    6 ..............................
........................................................................

 iter      E             dE          RMSdq      gap      omega  full diag
   1    -14.5737007 -0.145737E+02  0.789E-03    4.79       0.0  T
   2    -14.5737007 -0.205099E-08  0.432E-03    4.79       8.2  T
   3    -14.5737007 -0.611237E-09  0.657E-04    4.79      53.8  T
   4    -14.5737007 -0.139943E-09  0.385E-04    4.79      91.8  T
     SCC iter.                  ...        0 min,  0.001 sec
     gradient                   ...        0 min,  0.001 sec
 * total energy  :   -14.4828015 Eh     change       -0.6829578E-07 Eh
   gradient norm :     0.0001799 Eh/α   predicted    -0.2347775E-06 ( 243.77%)
   displ. norm   :     0.0033976 α      lambda       -0.2724133E-06
   maximum displ.:     0.0020303 α      in ANC's #2, #3, #1, ...

   *** GEOMETRY OPTIMIZATION CONVERGED AFTER 6 ITERATIONS ***

------------------------------------------------------------------------
 total energy gain   :        -0.0003560 Eh       -0.2234 kcal/mol
 total RMSD          :         0.0535555 a0        0.0283 Å
 total power (kW/mol):        -0.1557928 (step)  -34.0234 (real)
------------------------------------------------------------------------

 ANCopt (total)                0 d,  0 h,  0 min,  0.027 sec
 optimizer setup                ...        0 min,  0.000 sec (  0.946%)
 model hessian                  ...        0 min,  0.000 sec (  1.524%)
 ANC generation                 ...        0 min,  0.000 sec (  0.331%)
 coordinate transformation      ...        0 min,  0.000 sec (  0.093%)
 single point calculation       ...        0 min,  0.021 sec ( 78.123%)
 optimization log               ...        0 min,  0.005 sec ( 17.043%)
 hessian update                 ...        0 min,  0.000 sec (  0.074%)
 rational function              ...        0 min,  0.000 sec (  0.881%)

================
 final structure:
================
$coord
       -1.15684393737653       -0.83491690130719        2.44269870864948      C
        1.15681608903375        0.83259211936191        2.44279780065060      C
        3.38250612717233        0.09984910955185       -0.44723457795417      Br
       -3.38125959517071       -0.09827063492911       -0.44741370441546      Br
       -2.28093647036070       -0.49712407769113        4.13524265097821      H
       -0.66932484645085       -2.82980261507013        2.29697355423107      H
        0.66936829640354        2.82765083575517        2.29926161944917      H
        2.28161070515213        0.49317618809697        4.13453672088031      H
$end
 
 Bond Distances (Angstroems)
 ---------------------------
C1-C2=1.5092         C1-Br4=1.9689        C1-H5=1.0900         C1-H6=1.0894         C2-C1=1.5092         C2-Br3=1.9689        
C2-H7=1.0894         C2-H8=1.0899         Br3-C2=1.9689        Br4-C1=1.9689        H5-C1=1.0900         H6-C1=1.0894         
H7-C2=1.0894         H8-C2=1.0899         
 C  H  Rav=1.0897 sigma=0.0003  Rmin=1.0894  Rmax=1.0900     4
 C  C  Rav=1.5092 sigma=0.0000  Rmin=1.5092  Rmax=1.5092     1
 Br C  Rav=1.9689 sigma=0.0000  Rmin=1.9689  Rmax=1.9689     2
 
 selected bond angles (degree)
 --------------------
Br4-C1-C2=111.67               H5-C1-C2=110.29                H5-C1-Br4=106.23               H6-C1-C2=111.99                
H6-C1-Br4=106.17               H6-C1-H5=110.26                Br3-C2-C1=111.72               H7-C2-C1=111.99                
H7-C2-Br3=106.16               H8-C2-C1=110.29                H8-C2-Br3=106.19               H8-C2-H7=110.26                
 
 selected dihedral angles (degree)
 ---------------------------------
Br3-C2-C1-Br4=293.44          Br3-C2-C1-H5=175.56           Br3-C2-C1-H6= 52.36           H7-C2-C1-Br4= 52.39           
H7-C2-C1-H5=294.51            H7-C2-C1-H6=171.31            H8-C2-C1-Br4=175.58           H8-C2-C1-H5= 57.70            
H8-C2-C1-H6=294.50            
           -------------------------------------------------
          |                Final Singlepoint                |
           -------------------------------------------------

          ...................................................
          :                      SETUP                      :
          :.................................................:
          :  # basis functions                  32          :
          :  # atomic orbitals                  30          :
          :  # shells                           14          :
          :  # electrons                        26          :
          :  max. iterations                   250          :
          :  Hamiltonian                  GFN2-xTB          :
          :  restarted?                      false          :
          :  GBSA solvation                   true          :
          :  PC potential                    false          :
          :  electronic temp.          300.0000000     K    :
          :  accuracy                    1.0000000          :
          :  -> integral cutoff          0.2500000E+02      :
          :  -> integral neglect         0.1000000E-07      :
          :  -> SCF convergence          0.1000000E-05 Eh   :
          :  -> wf. convergence          0.1000000E-03 e    :
          :  Broyden damping             0.4000000          :
          :  net charge                          0          :
          :  unpaired electrons                  0          :
          ...................................................

 iter      E             dE          RMSdq      gap      omega  full diag
   1    -14.5737007 -0.145737E+02  0.190E-04    4.79       0.0  T
   2    -14.5737007 -0.162093E-10  0.160E-04    4.79     220.8  T
   3    -14.5737007 -0.401492E-10  0.273E-05    4.79    1293.0  T

   *** convergence criteria satisfied after 3 iterations ***

         #    Occupation            Energy/Eh            Energy/eV
      -------------------------------------------------------------
         1        2.0000           -0.8572123             -23.3259
       ...           ...                  ...                  ...
         7        2.0000           -0.5353880             -14.5687
         8        2.0000           -0.5015486             -13.6478
         9        2.0000           -0.4960501             -13.4982
        10        2.0000           -0.4289614             -11.6726
        11        2.0000           -0.4254811             -11.5779
        12        2.0000           -0.4244146             -11.5489
        13        2.0000           -0.4226029             -11.4996 (HOMO)
        14                         -0.2464846              -6.7072 (LUMO)
        15                         -0.2335966              -6.3565
        16                         -0.0124950              -0.3400
        17                          0.0113696               0.3094
        18                          0.0227303               0.6185
       ...                                ...                  ...
        30                          0.3593280               9.7778
      -------------------------------------------------------------
                  HL-Gap            0.1761183 Eh            4.7924 eV
             Fermi-level           -0.3345438 Eh           -9.1034 eV

 SCC (total)                   0 d,  0 h,  0 min,  0.003 sec
 SCC setup                      ...        0 min,  0.000 sec ( 10.795%)
 Dispersion                     ...        0 min,  0.000 sec (  0.462%)
 classical contributions        ...        0 min,  0.000 sec (  0.203%)
 integral evaluation            ...        0 min,  0.001 sec ( 22.771%)
 iterations                     ...        0 min,  0.001 sec ( 17.193%)
 molecular gradient             ...        0 min,  0.001 sec ( 45.346%)
 printout                       ...        0 min,  0.000 sec (  2.855%)

         :::::::::::::::::::::::::::::::::::::::::::::::::::::
         ::                     SUMMARY                     ::
         :::::::::::::::::::::::::::::::::::::::::::::::::::::
         :: total energy             -14.482801485560 Eh    ::
         :: total w/o Gsasa/hb       -14.481407992888 Eh    ::
         :: gradient norm              0.000181000384 Eh/a0 ::
         :: HOMO-LUMO gap              4.792423322792 eV    ::
         ::.................................................::
         :: SCC energy               -14.573699141060 Eh    ::
         :: -> isotropic ES            0.014869614189 Eh    ::
         :: -> anisotropic ES          0.003207512113 Eh    ::
         :: -> anisotropic XC          0.004023916384 Eh    ::
         :: -> dispersion             -0.005097487154 Eh    ::
         :: -> Gsolv                  -0.004267592480 Eh    ::
         ::    -> Gelec               -0.002874099808 Eh    ::
         ::    -> Gsasa               -0.001063309112 Eh    ::
         ::    -> Ghb                 -0.001410943259 Eh    ::
         ::    -> Gshift               0.001080759698 Eh    ::
         :: repulsion energy           0.090897655500 Eh    ::
         :: add. restraining           0.000000000000 Eh    ::
         :: total charge               0.000000000000 e     ::
         :::::::::::::::::::::::::::::::::::::::::::::::::::::

           ------------------------------------------------- 
          |                Numerical Hessian                |
           ------------------------------------------------- 
step length          :   0.00500
SCC accuracy         :   0.30000
Hessian scale factor :   1.00000
frozen atoms in %    :   0.00000    0
RMS gradient         :   0.00018
estimated CPU  time      0.00 min
estimated wall time      0.00 min

writing file <hessian>.

 projected vibrational frequencies (cm⁻¹)
eigval :       -0.00    -0.00    -0.00     0.00     0.00     0.00
eigval :       57.59   213.86   332.07   508.80   547.89   838.75
eigval :      913.21  1038.48  1097.06  1149.70  1229.70  1250.63
eigval :     1401.92  1416.21  2991.22  2994.46  2997.33  3008.39
           -------------------------------------------------
          |                Property Printout                |
           -------------------------------------------------

    * Orbital Energies and Occupations

         #    Occupation            Energy/Eh            Energy/eV
      -------------------------------------------------------------
         1        2.0000           -0.8572123             -23.3259
         2        2.0000           -0.8515730             -23.1725
         3        2.0000           -0.6716644             -18.2769
         4        2.0000           -0.6189947             -16.8437
         5        2.0000           -0.5624587             -15.3053
         6        2.0000           -0.5568044             -15.1514
         7        2.0000           -0.5353881             -14.5687
         8        2.0000           -0.5015486             -13.6478
         9        2.0000           -0.4960501             -13.4982
        10        2.0000           -0.4289613             -11.6726
        11        2.0000           -0.4254811             -11.5779
        12        2.0000           -0.4244146             -11.5489
        13        2.0000           -0.4226029             -11.4996 (HOMO)
        14                         -0.2464846              -6.7072 (LUMO)
        15                         -0.2335966              -6.3565
        16                         -0.0124950              -0.3400
        17                          0.0113696               0.3094
        18                          0.0227303               0.6185
        19                          0.0232912               0.6338
        20                          0.0291263               0.7926
        21                          0.0292649               0.7963
        22                          0.0389193               1.0590
        23                          0.0394249               1.0728
        24                          0.0999188               2.7189
       ...                                ...                  ...
        30                          0.3593281               9.7778
      -------------------------------------------------------------
                  HL-Gap            0.1761183 Eh            4.7924 eV
             Fermi-level           -0.3345438 Eh           -9.1034 eV

     #   Z          covCN         q      C6AA      α(0)
     1   6 C        3.793     0.012    20.384     6.430
     2   6 C        3.793     0.012    20.383     6.429
     3  35 Br       0.998    -0.195   190.445    22.251
     4  35 Br       0.999    -0.195   190.445    22.251
     5   1 H        0.926     0.094     1.841     2.122
     6   1 H        0.926     0.089     1.885     2.147
     7   1 H        0.926     0.089     1.885     2.147
     8   1 H        0.926     0.094     1.842     2.122

 Mol. C6AA /au·bohr⁶  :       1767.130352
 Mol. C8AA /au·bohr⁸  :      82203.386992
 Mol. α(0) /au        :         65.898630


Wiberg/Mayer (AO) data.
largest (>0.10) Wiberg bond orders for each atom

 ---------------------------------------------------------------------------
     #   Z sym  total        # sym  WBO       # sym  WBO       # sym  WBO
 ---------------------------------------------------------------------------
     1   6 C    3.951 --     2 C    1.035     6 H    0.971     4 Br   0.967
                             5 H    0.963
     2   6 C    3.951 --     1 C    1.035     7 H    0.971     3 Br   0.967
                             8 H    0.963
     3  35 Br   1.024 --     2 C    0.967
     4  35 Br   1.024 --     1 C    0.967
     5   1 H    0.991 --     1 C    0.963
     6   1 H    0.992 --     1 C    0.971
     7   1 H    0.992 --     2 C    0.971
     8   1 H    0.991 --     2 C    0.963
 ---------------------------------------------------------------------------

Topologies differ in total number of bonds
Writing topology from bond orders to xtbtopo.mol

molecular dipole:
                 x           y           z       tot (Debye)
 q only:       -0.000      -0.001       1.420
   full:       -0.000      -0.001       2.044       5.194
molecular quadrupole (traceless):
                xx          xy          yy          xz          yz          zz
 q only:       -6.230       0.664       1.068      -0.000      -0.002       5.162
  q+dip:      -10.517       1.693       4.502      -0.000      -0.001       6.015
   full:      -10.160       1.493       3.221      -0.000      -0.002       6.939

           -------------------------------------------------
          |                Geometry Summary                 |
           -------------------------------------------------

      molecular mass/u    :      187.8602904
   center of mass at/Å    :        0.0002817       0.0002593       0.0004536
  moments of inertia/u·Å² :        0.7045296E+02   0.5337812E+03   0.5867796E+03
rotational constants/cm⁻¹ :        0.2392750E+00   0.3158154E-01   0.2872907E-01

 * 7 selected distances

     #   Z          #   Z                                           value/Å
     1   6 C        2   6 C                                       1.5091862
     2   6 C        3  35 Br                                      1.9688591
     1   6 C        4  35 Br                                      1.9688966 (max)
     1   6 C        5   1 H                                       1.0899501
     1   6 C        6   1 H                                       1.0894473
     2   6 C        7   1 H                                       1.0894457 (min)
     2   6 C        8   1 H                                       1.0899442

 * 3 distinct bonds (by element types)

   Z      Z             #   av. dist./Å        max./Å        min./Å
   1 H    6 C           4     1.0896968     1.0899501     1.0894457
   6 C    6 C           1     1.5091862     1.5091862     1.5091862
   6 C   35 Br          2     1.9688779     1.9688966     1.9688591

           -------------------------------------------------
          |               Frequency Printout                |
           -------------------------------------------------
 projected vibrational frequencies (cm⁻¹)
eigval :       -0.00    -0.00    -0.00     0.00     0.00     0.00
eigval :       57.59   213.86   332.07   508.80   547.89   838.75
eigval :      913.21  1038.48  1097.06  1149.70  1229.70  1250.63
eigval :     1401.92  1416.21  2991.22  2994.46  2997.33  3008.39
 reduced masses (amu)
   1: 17.58   2: 69.08   3: 75.49   4: 77.52   5: 72.50   6: 63.54   7: 70.59   8: 18.90
   9: 21.65  10: 20.41  11: 15.55  12:  5.44  13:  5.07  14:  8.63  15:  1.40  16:  3.18
  17:  3.14  18:  3.01  19:  1.87  20:  1.98  21:  1.65  22:  1.54  23:  1.96  24:  1.90
 IR intensities (km·mol⁻¹)
   1: 11.09   2:  0.04   3:  0.01   4:  3.05   5:  1.43   6:  2.20   7:  1.79   8:  0.39
   9:  2.54  10: 25.84  11: 36.37  12:  0.92  13:  0.00  14:  0.21  15:  0.39  16:  0.11
  17: 66.61  18: 28.86  19: 32.53  20:  0.88  21:  1.05  22:  0.11  23:  0.16  24:  4.52
 Raman intensities (Ä⁴*amu⁻¹)
   1:  0.00   2:  0.00   3:  0.00   4:  0.00   5:  0.00   6:  0.00   7:  0.00   8:  0.00
   9:  0.00  10:  0.00  11:  0.00  12:  0.00  13:  0.00  14:  0.00  15:  0.00  16:  0.00
  17:  0.00  18:  0.00  19:  0.00  20:  0.00  21:  0.00  22:  0.00  23:  0.00  24:  0.00
 output can be read by thermo (or use thermo option).
 writing <g98.out> molden fake output.
 recommended (thermochemical) frequency scaling factor: 1.0
           -------------------------------------------------
          |             Thermodynamic Functions             |
           -------------------------------------------------

Refinement of some symmetry elements was terminated before convergence was reached.
Some symmetry elements may remain unidentified.
Molecule has the following symmetry elements: (C2) 
It seems to be the C2 point group
c2  symmetry found (for desy threshold:  0.10E+00) used in thermo

          ...................................................
          :                      SETUP                      :
          :.................................................:
          :  # frequencies                          18      :
          :  # imaginary freq.                       0      :
          :  linear?                             false      :
          :  only rotor calc.                    false      :
          :  symmetry                               c2      :
          :  rotational number                       2      :
          :  scaling factor                  1.0000000      :
          :  rotor cutoff                    0.0000000 cm⁻¹ :
          :  imag. cutoff                 -100.0000000 cm⁻¹ :
          :.................................................:

    mode    ω/cm⁻¹     T·S(HO)/kcal·mol⁻¹    T·S(FR)/kcal·mol⁻¹   T·S(vib)
   ------------------------------------------------------------------------
       1     57.59    -1.35307 (100.00%)    -1.01448 (  0.00%)    -1.35307
       2    213.86    -0.59943 (100.00%)    -0.62597 (  0.00%)    -0.59943
   ------------------------------------------------------------------------

   temp. (K)  partition function   enthalpy   heat capacity  entropy
                                   cal/mol     cal/K/mol   cal/K/mol   J/K/mol
 298.15  VIB   9.95                 1498.717     10.278      9.593
         ROT  0.179E+06              888.752      2.981     27.022
         INT  0.179E+07             2387.469     13.259     36.615
         TR   0.249E+28             1481.254      4.968     41.579
         TOT                        3868.7233    18.2271    78.1936   327.1622

       T/K    H(0)-H(T)+PV         H(T)/Eh          T*S/Eh         G(T)/Eh
   ------------------------------------------------------------------------
    298.15    0.616520E-02    0.608123E-01    0.371523E-01    0.236599E-01
   ------------------------------------------------------------------------

         :::::::::::::::::::::::::::::::::::::::::::::::::::::
         ::                  THERMODYNAMIC                  ::
         :::::::::::::::::::::::::::::::::::::::::::::::::::::
         :: total free energy         -14.459141556137 Eh   ::
         ::.................................................::
         :: total energy              -14.482801485527 Eh   ::
         :: zero point energy           0.054647049495 Eh   ::
         :: G(RRHO) w/o ZPVE           -0.030987120105 Eh   ::
         :: G(RRHO) contrib.            0.023659929390 Eh   ::
         :::::::::::::::::::::::::::::::::::::::::::::::::::::

optimized geometry written to: xtbopt.coord


           -------------------------------------------------
          | TOTAL ENERGY              -14.482801485527 Eh   |
          | TOTAL ENTHALPY            -14.421989232960 Eh   |
          | TOTAL FREE ENERGY         -14.459141556137 Eh   |
          | GRADIENT NORM               0.000181055276 Eh/α |
          | HOMO-LUMO GAP               4.792422800588 eV   |
           -------------------------------------------------

------------------------------------------------------------------------
 * finished run on 2025/04/03 at 19:41:19.521     
------------------------------------------------------------------------
 total:
 * wall-time:     0 d,  0 h,  0 min,  0.271 sec
 *  cpu-time:     0 d,  0 h,  0 min,  0.204 sec
 * ratio c/w:     0.754 speedup
 SCF:
 * wall-time:     0 d,  0 h,  0 min,  0.007 sec
 *  cpu-time:     0 d,  0 h,  0 min,  0.007 sec
 * ratio c/w:     0.986 speedup
 ANC optimizer:
 * wall-time:     0 d,  0 h,  0 min,  0.040 sec
 *  cpu-time:     0 d,  0 h,  0 min,  0.027 sec
 * ratio c/w:     0.666 speedup
 analytical hessian:
 * wall-time:     0 d,  0 h,  0 min,  0.170 sec
 *  cpu-time:     0 d,  0 h,  0 min,  0.162 sec
 * ratio c/w:     0.952 speedup

