41
 energy: -2932.480712509511 gnorm: 0.001120274602 xtb: 6.7.1 (edcfbbe)
C            2.66016570687660       -2.98322917460836       -1.16601862466728
C            3.45006324032207       -1.84353150952661       -1.76317010542012
O            3.69897531340911       -0.72956144633868       -0.82765729902554
P            2.55361100252849        0.15403044975174       -0.12612223550884
S            3.32777304308109        1.72424923731917        0.72815823108517
O            1.70601639190486       -0.82412219179592        0.82528372972689
C            2.23466598570471       -1.26890122018337        2.12574242433322
C            1.31628109141109       -0.77329500909369        3.21309826767324
S            1.15194792897422        0.49172759712481       -1.68282942099362
C            0.26575860212878        1.96588141490489       -1.03606207086233
S           -0.74569476129040        1.78129960813393        0.48483707403360
P           -2.15445142610623        0.33196687463836       -0.15041176905407
S           -2.82924088047077        0.51740456545394       -1.96759902091248
O           -3.22772027077005        0.39707146639333        1.04934407676318
C           -4.47408655401243        1.17276574572092        0.97542875355208
C           -4.24907681817336        2.63597235573726        1.26515207547570
O           -1.38090988609020       -1.02740585411304        0.21292715626470
C           -1.69379467889963       -2.30667847938760       -0.43648842176135
C           -2.99303612501521       -2.88663096070840        0.06647621659694
H            3.11217549709259       -3.32565563415001       -0.23044248202504
H            1.61489158122421       -2.71884272069766       -0.98550508363622
H            2.68130747548536       -3.81260459613651       -1.88078183646900
H            2.97197799420715       -1.43459719475718       -2.65975926111756
H            4.45918239791900       -2.16339464132741       -2.02981399670437
H            2.25599767796636       -2.36036091924006        2.07152595383877
H            3.25683987885801       -0.90007868848360        2.25599929573748
H            1.65809090283276       -1.16014473781159        4.17845216468510
H            1.31728948721792        0.31959167390794        3.25522893012552
H            0.29288025066133       -1.12160763984717        3.04267987368387
H           -0.37393393971379        2.28732632393789       -1.86303220821023
H            0.98957328452663        2.75319929490568       -0.80673405623970
H           -4.92097009643349        1.01318099033822       -0.01050509664997
H           -5.10764946848127        0.70685447677530        1.73285766318235
H           -3.67831664219961        3.12354156145849        0.47009387052122
H           -5.22428913485766        3.12870276699414        1.33645666748864
H           -3.72589502619591        2.77120435074704        2.21632890418723
H           -1.70342211499527       -2.15020402288129       -1.51970501051750
H           -0.84159894206461       -2.93837006305909       -0.17576802878707
H           -3.12132614733602       -3.88590904820567       -0.36240829219738
H           -2.98376973999608       -2.97784261294979        1.15643753301790
H           -3.84980373671869       -2.27550283777883       -0.23345880372509
41
 energy: -2932.480713319776 gnorm: 0.001687829496 xtb: 6.7.1 (edcfbbe)
C            2.66054891625426       -2.98273113711852       -1.16535439280814
C            3.44715005988878       -1.84159569067206       -1.76351325497892
O            3.69599085069074       -0.72722167413988       -0.82810143848018
P            2.55084527230927        0.15632368961319       -0.12566437402209
S            3.32879396835682        1.72526435125722        0.72816703607825
O            1.70449935963195       -0.82309623147037        0.82570589455795
C            2.23375960531999       -1.26882841441720        2.12524544107592
C            1.31514361033579       -0.77339087412912        3.21269143829300
S            1.15250871167654        0.49046427284788       -1.68628088715552
C            0.27053259314317        1.96558111342335       -1.03568735595958
S           -0.74012687683094        1.77507387758945        0.48489979371312
P           -2.15525721736940        0.33168017462455       -0.14990743307896
S           -2.83004789864933        0.51550521473524       -1.96737460414583
O           -3.22865476687808        0.39516663161239        1.04986570585543
C           -4.47433095209799        1.17184804842691        0.97581767619356
C           -4.24817461364115        2.63512907467148        1.26378864062179
O           -1.38000178436669       -1.02680335930795        0.21262574180534
C           -1.69328521223396       -2.30662359642042       -0.43577271546938
C           -2.99294484397765       -2.88544371682691        0.06719121071237
H            3.11424332020950       -3.32449463891480       -0.23061541449621
H            1.61530093812396       -2.72052908869737       -0.98346127550072
H            2.68237561428274       -3.81202752355951       -1.88019995769194
H            2.96692615562462       -1.43330340066185       -2.65891577353504
H            4.45603016307926       -2.15991553601876       -2.03235607944351
H            2.25476469297786       -2.36050061533737        2.07052209911072
H            3.25601907530830       -0.90030629082186        2.25535882337698
H            1.65759392947649       -1.16185131678719        4.17726495583363
H            1.31638613020403        0.31930520899691        3.25690097565227
H            0.29173443845554       -1.12161580472236        3.04265663519507
H           -0.37198323943625        2.28659968537687       -1.86068258710021
H            0.99264953902048        2.75436592435936       -0.80657253615838
H           -4.92135473508641        1.01196366629732       -0.00991422171766
H           -5.10800365398707        0.70692001286658        1.73367034728419
H           -3.67356456787638        3.12012181177507        0.46981712474080
H           -5.22275960885057        3.12985914996385        1.33077190786392
H           -3.72791462407374        2.77083443253794        2.21646651970050
H           -1.70231446534740       -2.15113900726344       -1.51911939237523
H           -0.84167566600913       -2.93863678037787       -0.17418069795676
H           -3.12320069523325       -3.88376181866610       -0.36343594373606
H           -2.98284738033455       -2.97844085379135        1.15695826527222
H           -3.84887528132877       -2.27226064307495       -0.23103089534785
41
 energy: -2932.480727877547 gnorm: 0.000695875407 xtb: 6.7.1 (edcfbbe)
C            2.66129484854502       -2.98317695011756       -1.16483536002073
C            3.44590985865921       -1.84155571927561       -1.76424368110351
O            3.69676172412100       -0.72817259121862       -0.82828881402914
P            2.55198933841921        0.15596887548533       -0.12564354365021
S            3.32812165078102        1.72633462015538        0.72708482050684
O            1.70485671919093       -0.82326245789709        0.82527972448480
C            2.23299643304670       -1.26910377739111        2.12496781349453
C            1.31435128845332       -0.77403237842153        3.21267186803619
S            1.15180995370151        0.49319144820443       -1.68344367202698
C            0.26718755896582        1.96751858226013       -1.03508709350346
S           -0.74154262615948        1.77824729441597        0.48703494830892
P           -2.15317413663280        0.33140745518393       -0.14986543011567
S           -2.82906826983648        0.51596885625014       -1.96687521218197
O           -3.22711931467809        0.39401908777645        1.04954486888624
C           -4.47284462116518        1.17086492395945        0.97539543662527
C           -4.24653389973749        2.63431212432391        1.26198861048401
O           -1.37787793916917       -1.02725597033863        0.21193935206820
C           -1.69283292546786       -2.30728669520275       -0.43522122071283
C           -2.99312880688519       -2.88433147757578        0.06796564983753
H            3.11679326435077       -3.32449817246815       -0.23093751000061
H            1.61619859145970       -2.72210801589519       -0.98120446311436
H            2.68284471147344       -3.81242150416851       -1.87974595086372
H            2.96321343470625       -1.43270638454216       -2.65796220377164
H            4.45420128869365       -2.15896943460510       -2.03592791221337
H            2.25357046589599       -2.36089393770754        2.06996464367748
H            3.25535871662243       -0.90104536721702        2.25538642139326
H            1.65682110328711       -1.16389305313131        4.17675127447982
H            1.31608711032234        0.31853667769549        3.25847513853445
H            0.29086883421629       -1.12180957087244        3.04243159420613
H           -0.37521354308194        2.28816506518011       -1.86023752022218
H            0.98943939364973        2.75619428920700       -0.80631609212117
H           -4.92041384164685        1.01025982417962       -0.00993074073414
H           -5.10632778181668        0.70670245219959        1.73386948395069
H           -3.66843977272152        3.11722099864388        0.46920750281206
H           -5.22081416250865        3.13034941596143        1.32448291539678
H           -3.72953519128186        2.77095733531907        2.21630510618091
H           -1.70131041875655       -2.15268050665492       -1.51869269937004
H           -0.84199475906160       -2.93996310712048       -0.17280689268197
H           -3.12581162832532       -3.88163501094238       -0.36432558601532
H           -2.98216253375097       -2.97910747818686        1.15755608189508
H           -3.84804721422694       -2.26883818860644       -0.22845293884337
41
 energy: -2932.480734593439 gnorm: 0.000888315282 xtb: 6.7.1 (edcfbbe)
C            2.66288640917271       -2.98378618873253       -1.16352876075521
C            3.44265652856708       -1.84010218111924       -1.76535751445282
O            3.69616470002029       -0.72741014313457       -0.82932309288118
P            2.55187311497162        0.15785937632464       -0.12703964693819
S            3.32872380521051        1.72513734954842        0.72974407653271
O            1.70442037975305       -0.82143740981860        0.82383022870175
C            2.23135872021608       -1.26872607979581        2.12358496952357
C            1.31334261725167       -0.77567683549078        3.21270265814412
S            1.15103484646284        0.49694343443219       -1.68427508101910
C            0.26493480644313        1.96945223181238       -1.03397665158207
S           -0.74511824604620        1.78178420905257        0.48759329447471
P           -2.15111989478760        0.32968025254538       -0.14839450543402
S           -2.82481965399197        0.51932891472966       -1.96563476715947
O           -3.22593814334153        0.39141192488399        1.05044247273681
C           -4.47131447692131        1.16883982032632        0.97511416406128
C           -4.24340644003532        2.63263773039392        1.25853779814574
O           -1.37495247102757       -1.02869635529276        0.21229295951986
C           -1.69209406209915       -2.30877671387707       -0.43358926557032
C           -2.99379964786324       -2.88247398348686        0.06965957422536
H            3.12269771891903       -3.32389001572260       -0.23117482527897
H            1.61765190076969       -2.72523896722268       -0.97622619431019
H            2.68402253679631       -3.81306590990597       -1.87843847511750
H            2.95482017637661       -1.43131288010845       -2.65644648643342
H            4.45021048126666       -2.15536341616020       -2.04240960664314
H            2.25125118152741       -2.36043238807500        2.06762439778939
H            3.25398581637693       -0.90178463760880        2.25522756742976
H            1.65517722527197       -1.16816908355588        4.17598329784684
H            1.31609208277414        0.31681182530124        3.26100281478730
H            0.28956731191075       -1.12214379925639        3.04128513706126
H           -0.37710936454605        2.29051608722284       -1.85922565236597
H            0.98741971621276        2.75799040013524       -0.80520256809923
H           -4.91936337552802        1.00610512048732       -0.00970034837154
H           -5.10453490474439        0.70657493609342        1.73501230153349
H           -3.65914300542222        3.11166775252087        0.46787720477176
H           -5.21704002542257        3.13094175688293        1.31247830720965
H           -3.73242847424446        2.77189336215259        2.21578505112830
H           -1.69959227492278       -2.15537984287248       -1.51727715036459
H           -0.84253621103434       -2.94268594156965       -0.16981076337964
H           -3.13069176212872       -3.87787621310211       -0.36563110211439
H           -2.98184502567730       -2.98056897800949        1.15895844994531
H           -3.84695558893825       -2.26314047934466       -0.22378795862021
41
 energy: -2932.480741850159 gnorm: 0.000888368083 xtb: 6.7.1 (edcfbbe)
C            2.66499273526330       -2.98447069226825       -1.16179179689643
C            3.43860508957165       -1.83828914612461       -1.76714868322131
O            3.69527573056653       -0.72674753941694       -0.83061138447453
P            2.55224379880531        0.15931377395864       -0.12687422534743
S            3.32911061062200        1.72658283645484        0.72975370331875
O            1.70364392376049       -0.82011263348866        0.82300089280819
C            2.22969438087226       -1.26939727365791        2.12222661300333
C            1.31177274238799       -0.77754297404578        3.21198310512652
S            1.15175832418007        0.50198546214079       -1.68343931831159
C            0.26370563923453        1.97234509935591       -1.03149380579209
S           -0.74298199356299        1.77866566391065        0.49161187587087
P           -2.14937254792218        0.32927879521747       -0.14824090934812
S           -2.82444450720755        0.51611739642532       -1.96532899332221
O           -3.22429972800438        0.38921371777978        1.05065336125995
C           -4.46954632543616        1.16687818767746        0.97459726996547
C           -4.24045109477069        2.63117456559634        1.25413648496135
O           -1.37191662318061       -1.02833830301265        0.21187191415792
C           -1.69144154287825       -2.30922525322919       -0.43167919064917
C           -2.99443553051549       -2.87988292819263        0.07173553275738
H            3.13036125410509       -3.32314035247970       -0.23150300064462
H            1.61972490685428       -2.72895994185479       -0.96959216398677
H            2.68536698722794       -3.81371840622927       -1.87676414060060
H            2.94439558622975       -1.42955425519454       -2.65495572729610
H            4.44528964168058       -2.15083195828720       -2.05079709575787
H            2.24889847380845       -2.36095341435803        2.06476005072465
H            3.25249561219045       -0.90315792916263        2.25467758336322
H            1.65272103227811       -1.17279685819911        4.17443689340079
H            1.31575524683264        0.31488042628176        3.26290591361726
H            0.28760300257093       -1.12236004329428        3.03934117499854
H           -0.37965333106306        2.29328319404602       -1.85585107979573
H            0.98546303566811        2.76150821867737       -0.80239577792830
H           -4.91839402809435        1.00178670895586       -0.00948823270775
H           -5.10231880632209        0.70676362397999        1.73621581742640
H           -3.64957092153738        3.10579441701253        0.46570607806080
H           -5.21338043953306        3.13180412979371        1.29887675095948
H           -3.73588389157157        2.77334971700648        2.21441042533140
H           -1.69800095388566       -2.15783255384773       -1.51567396577914
H           -0.84324694856130       -2.94439152512697       -0.16636375826989
H           -3.13556917322803       -3.87339564504821       -0.36651096258320
H           -2.98159362005946       -2.98137487147631        1.16072192715594
H           -3.84587719912894       -2.25685843108551       -0.21879478115884
41
 energy: -2932.480746080902 gnorm: 0.000581447836 xtb: 6.7.1 (edcfbbe)
C            2.66720983482392       -2.98482857120692       -1.16002422305223
C            3.43523724018256       -1.83642617639505       -1.76859485158261
O            3.69346553338552       -0.72520839695568       -0.83203291574543
P            2.55154907453389        0.16061233706172       -0.12595334122015
S            3.33077868198509        1.72765837132730        0.72968844739883
O            1.70250890381538       -0.81936029385351        0.82280870863123
C            2.22903927695509       -1.27073062827607        2.12092420698393
C            1.31080399865346       -0.77937255924087        3.21075032733894
S            1.15306958363646        0.50494146353386       -1.68353827103734
C            0.26564229063314        1.97505922031696       -1.02985794087148
S           -0.74157989972069        1.77941841476855        0.49229449074289
P           -2.14784281597667        0.32835140754806       -0.14650317165802
S           -2.82300279453173        0.51492600564791       -1.96356413752407
O           -3.22361725112565        0.38722177231005        1.05167554047506
C           -4.46842032718681        1.16555412015161        0.97439197881873
C           -4.23953599421295        2.63050065510884        1.25039343612594
O           -1.37052602685387       -1.02952468287485        0.21287601693693
C           -1.69181838140426       -2.31035728418438       -0.42996443458461
C           -2.99567946682474       -2.87895532782899        0.07341884384973
H            3.13741928181389       -3.32224000077083       -0.23174227000052
H            1.62221645687763       -2.73191409791804       -0.96330657831531
H            2.68669679924262       -3.81400403610210       -1.87507870847598
H            2.93586589544819       -1.42834819891414       -2.65379154332861
H            4.44126936723463       -2.14639807408904       -2.05736004809623
H            2.24802844754965       -2.36219737236995        2.06171793998934
H            3.25184530302830       -0.90452446980998        2.25350447503115
H            1.65094306071814       -1.17653735331423        4.17262279611909
H            1.31568776921019        0.31296008815463        3.26363710091501
H            0.28629474462870       -1.12273798321519        3.03724460062248
H           -0.37859117076647        2.29638990508497       -1.85335144773763
H            0.98613757181153        2.76495642171008       -0.79952589486333
H           -4.91766576714354        0.99876388445386       -0.00919108817693
H           -5.10143696357578        0.70745599295416        1.73698663955470
H           -3.64504686333123        3.10203885052365        0.46294320892665
H           -5.21199800007636        3.13233618502942        1.28967724827423
H           -3.73853278866893        2.77500596634316        2.21207722896026
H           -1.69779737548600       -2.15954772211189       -1.51401661346958
H           -0.84457660473047       -2.94646983944676       -0.16398680865064
H           -3.13911275281363       -3.87150478090940       -0.36619015250566
H           -2.98258139081414       -2.98191684084516        1.16224152617416
H           -3.84584015635240       -2.25369313924804       -0.21594196027558
41
 energy: -2932.480746080902 gnorm: 0.000581447836 xtb: 6.7.1 (edcfbbe)
C            2.66720983482392       -2.98482857120692       -1.16002422305223
C            3.43523724018256       -1.83642617639505       -1.76859485158261
O            3.69346553338552       -0.72520839695568       -0.83203291574543
P            2.55154907453389        0.16061233706172       -0.12595334122015
S            3.33077868198509        1.72765837132730        0.72968844739883
O            1.70250890381538       -0.81936029385351        0.82280870863123
C            2.22903927695509       -1.27073062827607        2.12092420698393
C            1.31080399865346       -0.77937255924087        3.21075032733894
S            1.15306958363646        0.50494146353386       -1.68353827103734
C            0.26564229063314        1.97505922031696       -1.02985794087148
S           -0.74157989972069        1.77941841476855        0.49229449074289
P           -2.14784281597667        0.32835140754806       -0.14650317165802
S           -2.82300279453173        0.51492600564791       -1.96356413752407
O           -3.22361725112565        0.38722177231005        1.05167554047506
C           -4.46842032718681        1.16555412015161        0.97439197881873
C           -4.23953599421295        2.63050065510884        1.25039343612594
O           -1.37052602685387       -1.02952468287485        0.21287601693693
C           -1.69181838140426       -2.31035728418438       -0.42996443458461
C           -2.99567946682474       -2.87895532782899        0.07341884384973
H            3.13741928181389       -3.32224000077083       -0.23174227000052
H            1.62221645687763       -2.73191409791804       -0.96330657831531
H            2.68669679924262       -3.81400403610210       -1.87507870847598
H            2.93586589544819       -1.42834819891414       -2.65379154332861
H            4.44126936723463       -2.14639807408904       -2.05736004809623
H            2.24802844754965       -2.36219737236995        2.06171793998934
H            3.25184530302830       -0.90452446980998        2.25350447503115
H            1.65094306071814       -1.17653735331423        4.17262279611909
H            1.31568776921019        0.31296008815463        3.26363710091501
H            0.28629474462870       -1.12273798321519        3.03724460062248
H           -0.37859117076647        2.29638990508497       -1.85335144773763
H            0.98613757181153        2.76495642171008       -0.79952589486333
H           -4.91766576714354        0.99876388445386       -0.00919108817693
H           -5.10143696357578        0.70745599295416        1.73698663955470
H           -3.64504686333123        3.10203885052365        0.46294320892665
H           -5.21199800007636        3.13233618502942        1.28967724827423
H           -3.73853278866893        2.77500596634316        2.21207722896026
H           -1.69779737548600       -2.15954772211189       -1.51401661346958
H           -0.84457660473047       -2.94646983944676       -0.16398680865064
H           -3.13911275281363       -3.87150478090940       -0.36619015250566
H           -2.98258139081414       -2.98191684084516        1.16224152617416
H           -3.84584015635240       -2.25369313924804       -0.21594196027558
