41
 energy: -65.047888206625 gnorm: 0.049314554667 xtb: 6.7.1 (edcfbbe)
C            5.53742507103062       -0.24870514773357        0.00548064803590
C            4.48223505093772       -1.08607931639457       -0.67834832844316
O            3.40298525731987       -0.27609559562935       -1.27899094461798
P            2.40073158950797        0.58834970154425       -0.36673230840718
S            2.94446324364973        2.39342615144555        0.13765708345475
O            2.11005703242297       -0.46055726449084        0.80654231590452
C            1.55231039808719       -0.09335712853803        2.10840444766406
C            2.34605562359146       -0.82912340069895        3.16004528661450
S            0.67750202655186        0.76662636336642       -1.55808945552341
C            0.05674453431346       -0.95470783113096       -1.72324532465210
S           -0.81576393424882       -1.69089260329230       -0.28212098859366
P           -2.39024068288215       -0.30248749388065        0.00115455563411
S           -3.23189161853718        0.40315935271816       -1.60775655894239
O           -1.68458247718705        0.74371263583151        0.99125345537630
C           -2.29271078722700        2.04569027491714        1.30627713600578
C           -1.56896016290819        3.14036771808248        0.56015384104523
O           -3.33576311463515       -1.09660744046643        1.03218067732025
C           -4.54932811218728       -1.81899380535787        0.63976857811747
C           -4.24040446553865       -3.16689864417012        0.03439853923547
H            5.94289768387086        0.51043043261332       -0.66997127089555
H            5.14838389538912        0.24236167813363        0.90204722418355
H            6.35285140099639       -0.91443268742707        0.30919182442816
H            4.02630093112313       -1.80274692252102        0.00856342581781
H            4.89244530066607       -1.62606382960947       -1.53252213294881
H            1.61425723692590        0.99187359351245        2.23632495181918
H            0.50157300901322       -0.39642007883595        2.09863612511665
H            2.30125929291134       -1.91064206509922        2.99403903115983
H            3.39417164209789       -0.51105976773777        3.14828556366719
H            1.92442022579242       -0.61226263457883        4.14731601096144
H            0.87642896439132       -1.64353868385776       -1.95455952665411
H           -0.62845352818857       -0.92822795735235       -2.57847527987850
H           -3.36315005742425        2.02227147193974        1.07073897569319
H           -2.17647139759628        2.15072772907744        2.39044437891035
H           -1.72615496363364        3.05212056301856       -0.51966938790969
H           -1.95156768389845        4.11059353974732        0.89572611815222
H           -0.49356497357701        3.10180803541480        0.76611221729350
H           -5.10144768197390       -1.91912246153337        1.57617034102071
H           -5.12298534474458       -1.18627471252540       -0.04485563468766
H           -3.61183916393937       -3.76437382810642        0.70200978978281
H           -5.18436454073812       -3.70080870642283       -0.11859537578062
H           -3.74391104690241       -3.06970335474818       -0.93539340972318
41
 energy: -65.051915371574 gnorm: 0.024870120642 xtb: 6.7.1 (edcfbbe)
C            5.52389568706930       -0.25069581494375       -0.00279062486260
C            4.46181000554051       -1.08000382512738       -0.68735966968308
O            3.38530842515893       -0.27139641567526       -1.26624598004034
P            2.39518143246515        0.59492932469005       -0.35294627578275
S            2.98482815374814        2.37874024373041        0.21290828064208
O            2.09502612492908       -0.45513497102285        0.81171836436339
C            1.55302596410811       -0.09230931563548        2.10730560014455
C            2.34311679550012       -0.82824369852241        3.16486438370751
S            0.65573537845962        0.72876245746020       -1.53907714271545
C            0.04933606462305       -0.97998923354486       -1.73080032270549
S           -0.76785021868884       -1.65775274382343       -0.24195628953100
P           -2.37285954453027       -0.31600580043318       -0.00463413047075
S           -3.25812953256637        0.41623960534711       -1.59505887630519
O           -1.67519510810303        0.73229366450226        0.98129790683377
C           -2.27890245637980        2.02443327542276        1.29747342100999
C           -1.56711738029519        3.13385741246049        0.55751494453680
O           -3.33560411917995       -1.08539854186473        1.02187711116993
C           -4.53721250088225       -1.80639966601623        0.63350967170759
C           -4.23281242293360       -3.15918095695297        0.03330418287469
H            5.91772661384931        0.50885560419138       -0.67569715066915
H            5.12593341271305        0.24602554235066        0.88179981242599
H            6.33887590628257       -0.90682618491636        0.30254157168802
H            4.01033966776376       -1.79305734582887        0.00457450340568
H            4.86671090775209       -1.60815450978203       -1.55203248950313
H            1.62734047006488        0.99288620388967        2.22583857704073
H            0.50132500374487       -0.38905173245439        2.10236851104007
H            2.29558603106392       -1.90194310170594        2.99258539530670
H            3.38532542949420       -0.51299100121891        3.14797463387513
H            1.92492257485129       -0.60863198171744        4.14492845173857
H            0.88137373078920       -1.64770148333824       -1.95030820662453
H           -0.65716905555404       -0.94069418178177       -2.56188320918215
H           -3.34403961902264        1.99600617982580        1.04931316323036
H           -2.16313064178309        2.12587187298794        2.37942957056102
H           -1.72056430627549        3.04259794476012       -0.51690429967882
H           -1.95348519249611        4.09623903583207        0.88901753716457
H           -0.49673516633804        3.09887302652232        0.75737124995760
H           -5.08813181267135       -1.90146461770731        1.57121150328020
H           -5.10069025564974       -1.18042318879867       -0.06462216127251
H           -3.60221849901411       -3.74390685646056        0.70050238964738
H           -5.16992650342983       -3.69239737069885       -0.12251054200622
H           -3.72900577155498       -3.05352097477794       -0.92680675156221
41
 energy: -65.053372643181 gnorm: 0.010528981543 xtb: 6.7.1 (edcfbbe)
C            5.50121558573365       -0.24877281763435       -0.01717777667010
C            4.43726285365767       -1.08100512568214       -0.69990625293432
O            3.35579918493604       -0.28517423835203       -1.25631268220622
P            2.37294459095913        0.57449996156086       -0.34221946147192
S            2.95980331215313        2.34935573036996        0.24866228562714
O            2.07095586110986       -0.46725710030544        0.82383285387214
C            1.54985882643850       -0.09425274906003        2.11155995612571
C            2.34046627134992       -0.82861825164669        3.17348951451300
S            0.63767974358932        0.74496317419592       -1.54094051649427
C            0.05828809329112       -0.97200152455501       -1.70483866726941
S           -0.74133414334304       -1.66406865818714       -0.22400497087810
P           -2.34626838357050       -0.32558572173921       -0.00542545005648
S           -3.24588714128192        0.40161671812276       -1.59465692695385
O           -1.65885155921203        0.72743470518547        0.97417761865576
C           -2.26467799879474        2.00481652643831        1.29161009619636
C           -1.56196929512507        3.12454623173763        0.55272576068459
O           -3.32732243760030       -1.07169560315633        1.01308088372374
C           -4.51800781198911       -1.78839911691990        0.62656881659154
C           -4.21396553434739       -3.14658367819042        0.03173831165848
H            5.88487067557176        0.51123984335229       -0.69092552997103
H            5.09379106963007        0.25143504963566        0.85872078009222
H            6.31668703099829       -0.89553692076752        0.29114711565580
H            3.99983873306847       -1.79699081604267       -0.00279215470304
H            4.83937129127343       -1.59658342426227       -1.57365832510548
H            1.63842412194110        0.99146702772487        2.22200679483469
H            0.49562529821494       -0.38082363615611        2.12216397962616
H            2.28794252564362       -1.89746091181685        2.99775048609947
H            3.37927366786426       -0.51513666227581        3.14860889707441
H            1.92513577576851       -0.60291850777640        4.14792329515530
H            0.89095381068855       -1.62938630185579       -1.93195562698661
H           -0.66271018622815       -0.93525219858293       -2.51883227955117
H           -3.32589514010403        1.97082550615808        1.03251995231171
H           -2.15051215707873        2.10604621416665        2.37163048302918
H           -1.71428988629248        3.02768412757538       -0.51852811489108
H           -1.95705065982425        4.07878904081565        0.88192394109858
H           -0.49424602540892        3.09566947621943        0.74961126347236
H           -5.07295822894885       -1.87920140089923        1.56209478801598
H           -5.07484230653918       -1.17025435533704       -0.08397419388519
H           -3.58382187083385       -3.72218681164943        0.70171796718787
H           -5.14635596860043       -3.67799195861208       -0.12807972890497
H           -3.70327791613601       -3.03391496257281       -0.92144056761204
41
 energy: -65.053949046623 gnorm: 0.006664879284 xtb: 6.7.1 (edcfbbe)
C            5.47765179511255       -0.24541975797284       -0.03291152813684
C            4.41150316971444       -1.08038437563563       -0.71364853792060
O            3.32694059822744       -0.28179787643727       -1.24787666429255
P            2.36291828191913        0.57842195581733       -0.32315536510490
S            2.95730637896824        2.34399992083572        0.28686385170255
O            2.04711049901507       -0.46705638342950        0.83308887893208
C            1.54179718093786       -0.09170838779287        2.12073913477157
C            2.33673787716223       -0.83067808866481        3.17921876941441
S            0.63745122912291        0.73825975623972       -1.53179520461489
C            0.05777575843796       -0.97792627226428       -1.69682384307082
S           -0.72980640477412       -1.67528776136806       -0.21525644713755
P           -2.32993008909244       -0.32910399915014       -0.00148911480912
S           -3.20681200760639        0.37836061728463       -1.60951141268385
O           -1.64144601052177        0.72518971833985        0.97002238138686
C           -2.25210724514002        1.99299515090193        1.28965989494278
C           -1.55519407578907        3.11716061931996        0.54809344314778
O           -3.32070656934525       -1.06049571150001        1.01279911990657
C           -4.50476261208557       -1.77483931962311        0.62340304253855
C           -4.19321576711231       -3.13474889408578        0.03072991286123
H            5.85862345227605        0.51503520526502       -0.70875213061678
H            5.06755241820315        0.25473981079149        0.84233511073865
H            6.29307394168745       -0.89038942867162        0.27629078231787
H            3.98964951574518       -1.80596782856756       -0.01587881795626
H            4.81028024951084       -1.58739712456322       -1.59390764092702
H            1.64087469609913        0.99342716653389        2.23506250309314
H            0.48441449720700       -0.36769734554235        2.14726753671091
H            2.27970233614807       -1.89925855062890        3.00140437823809
H            3.37637061666269       -0.51863497923558        3.14919769737687
H            1.92478329166115       -0.60302582983607        4.15445728608306
H            0.89264974055890       -1.62916650859573       -1.93255964662355
H           -0.66908416673890       -0.94590334010660       -2.50551433724714
H           -3.31342096302935        1.95767785451265        1.02978748894942
H           -2.13909854292894        2.09756660597193        2.36908346815469
H           -1.70912601101479        3.01511092779437       -0.52326269761253
H           -1.95898417278660        4.06763886367571        0.87696522765564
H           -0.48674433576018        3.09477235237192        0.74505212881728
H           -5.06811962953807       -1.86519186813280        1.55365346842278
H           -5.05993789160501       -1.16221548352837       -0.09403894007845
H           -3.56485765057155       -3.70730544768838        0.70556784469463
H           -5.12319840986000       -3.66729146890415       -0.13518918349422
H           -3.67667129645478       -3.01812861450736       -0.91957522377344
41
 energy: -65.054191934561 gnorm: 0.004796047268 xtb: 6.7.1 (edcfbbe)
C            5.46015081415765       -0.24271511309014       -0.04491171015259
C            4.39398327311257       -1.08100973112198       -0.72345603406636
O            3.30117921659156       -0.28554853752797       -1.24334363083769
P            2.34616394259482        0.57465584051617       -0.31389245237953
S            2.94207111253447        2.33808750556676        0.29801709348518
O            2.02413026583233       -0.47012095140622        0.84090469037125
C            1.53428720223538       -0.08998015637871        2.13296246820232
C            2.33426127219067       -0.83273541228765        3.18629433584585
S            0.62369890075921        0.74470924524500       -1.52477616719397
C            0.06192306643954       -0.97979280287112       -1.69188130158791
S           -0.71553884824245       -1.68089789115448       -0.20589674158766
P           -2.31768304049620       -0.33236284056960       -0.00079758203961
S           -3.17849991119232        0.36602032182346       -1.62148178880791
O           -1.62346585114620        0.72209643901950        0.96347709394039
C           -2.24054607043393        1.98509386085059        1.28775091761209
C           -1.55067809677821        3.11328224120021        0.54397817598261
O           -3.31413602803327       -1.05060947528160        1.01425395629785
C           -4.49537343310318       -1.76571085083687        0.62118163212741
C           -4.17609032579235       -3.12542190422624        0.03005527061426
H            5.83956728217393        0.51777231450849       -0.72340358546727
H            5.04896114806248        0.25684109549124        0.83128055200879
H            6.27741083893214       -0.88646066808514        0.26531387166066
H            3.98443681809656       -1.81650859648129       -0.02764171336770
H            4.79030544245663       -1.58221992038660       -1.60793733532550
H            1.63922665023205        0.99475344548785        2.24972598887759
H            0.47494339675690       -0.35830539598215        2.17250119235139
H            2.27393638512349       -1.90252547712532        3.00867091326362
H            3.37574354056035       -0.52277739802737        3.15137917561439
H            1.92748825388378       -0.60520357402536        4.16539507817925
H            0.90114595156879       -1.62507959840551       -1.93693400339977
H           -0.66847906842100       -0.95383722242673       -2.49931688106357
H           -3.30396166165121        1.94862439087778        1.03354342256192
H           -2.12690592324678        2.09256083349469        2.36748811888356
H           -1.70522149301239        3.00779472314719       -0.52815638176865
H           -1.96060822643347        4.06278616058307        0.87231370892944
H           -0.48092537655656        3.09736133661834        0.74106246487210
H           -5.06649949021935       -1.85716544180963        1.54661681493953
H           -5.05071599924904       -1.15652863408460       -0.09964846242677
H           -3.54945711182747       -3.69685730293920        0.70931780877621
H           -5.10401685082533       -3.66167897055126       -0.14214127783985
H           -3.65426829501228       -3.00705000812453       -0.91827108132850
41
 energy: -65.054275262957 gnorm: 0.003407078883 xtb: 6.7.1 (edcfbbe)
C            5.44981778088805       -0.24160788900852       -0.05146957753351
C            4.38376825463757       -1.08063781569469       -0.72826333061559
O            3.28482751150276       -0.28686502220339       -1.24007164570955
P            2.33467001410555        0.57510915424704       -0.30831545539799
S            2.93546717487224        2.33767496550818        0.30255633154267
O            2.01001874893134       -0.46915681989235        0.84717175741233
C            1.52915215478802       -0.08862819364587        2.14386732064360
C            2.33323319068485       -0.83405103977776        3.19171835937499
S            0.61606323723036        0.74321749708792       -1.52361800491169
C            0.06139355162713       -0.98429879196329       -1.69237974150831
S           -0.71500268915902       -1.69091955450658       -0.20834157804641
P           -2.30945141206746       -0.33363219773658       -0.00066239364730
S           -3.16637830716190        0.36174383716491       -1.62464109635895
O           -1.61149355292620        0.72178101641704        0.95976494488257
C           -2.23301561291292        1.98341234783770        1.28722115217137
C           -1.54840680728051        3.11323851352812        0.54171200996270
O           -3.30984988603345       -1.04300336669744        1.01578085792091
C           -4.48940618115517       -1.76172586458582        0.61890280717819
C           -4.16473574348440       -3.12036646868087        0.02943364550955
H            5.82858340930919        0.51876360541426       -0.73074255905603
H            5.03992778947788        0.25761031188869        0.82575370306281
H            6.26833256080307       -0.88513729740368        0.25807712957908
H            3.97932562479193       -1.82149297256865       -0.03499795136317
H            4.77702861654590       -1.57744097393342       -1.61670262680518
H            1.63638600348206        0.99578177646734        2.26017412087105
H            0.46973738847941       -0.35462115628209        2.18844918909602
H            2.27136527284616       -1.90420017540561        3.01377728342998
H            3.37544149010939       -0.52565758043217        3.15384720748408
H            1.93109603677278       -0.60854880134106        4.17400051159397
H            0.90506217953479       -1.62450134925108       -1.93775703879972
H           -0.66687739933361       -0.96253036946278       -2.50231874996610
H           -3.29781333972640        1.94298760443296        1.03762566110289
H           -2.11712683142550        2.09090901759525        2.36726535118730
H           -1.70233607864198        3.00601146353651       -0.53056956275132
H           -1.96096348664843        4.06267035139784        0.86856218861501
H           -0.47820272571566        3.10177122566055        0.73842520247037
H           -5.06398359209357       -1.85429518304288        1.54216797082224
H           -5.04434678751164       -1.15346187101615       -0.10305188323452
H           -3.53951534041578       -3.69099357121872        0.71128957279431
H           -5.09058176512254       -3.66011835264169       -0.14697623759293
H           -3.63926677998203       -3.00145413056823       -0.91706823065288
41
 energy: -65.054315963198 gnorm: 0.001670960192 xtb: 6.7.1 (edcfbbe)
C            5.44216804135832       -0.24119137353720       -0.05546978500457
C            4.37681690675554       -1.08092472995325       -0.73050388812093
O            3.27318156209324       -0.28935058110827       -1.23738567434256
P            2.32500877859271        0.57460832134075       -0.30542711065024
S            2.92589441383180        2.33784460027163        0.30229761465158
O            1.99959024704173       -0.46809446484332        0.85241283767069
C            1.52494764741482       -0.08818331346482        2.15295876351910
C            2.33282245324790       -0.83508631383638        3.19579024886835
S            0.60887927078633        0.74101948336370       -1.52379078551147
C            0.06227529223932       -0.98874253693547       -1.69443746319218
S           -0.71644991269691       -1.69368795568275       -0.21106298866635
P           -2.30683787601050       -0.33299532361465       -0.00178288507974
S           -3.16357482497345        0.36345556788565       -1.62566727070340
O           -1.60326598359291        0.72154564818561        0.95633317457414
C           -2.22610304560109        1.98342687154611        1.28694147646948
C           -1.54606785143186        3.11415828056405        0.54020687875155
O           -3.30864388062030       -1.03629435368771        1.01694973144735
C           -4.48572540696372       -1.76049202717492        0.61704831620728
C           -4.15483852245783       -3.11726892007472        0.02882501965293
H            5.81983527403382        0.51931459076907       -0.73493223102591
H            5.03367423899581        0.25775476697263        0.82242099312969
H            6.26168006270843       -0.88430689271891        0.25277947152799
H            3.97495774606923       -1.82463117562157       -0.03909145047837
H            4.76744686945834       -1.57362277972885       -1.62245075145286
H            1.63358219865886        0.99597069633710        2.26798579285128
H            0.46595464477702       -0.35397035117222        2.20059713161800
H            2.26987598788239       -1.90500514048145        3.01702168993609
H            3.37499221997025       -0.52745739951941        3.15505928668775
H            1.93478904517038       -0.61149411745828        4.18029503388738
H            0.90949676766516       -1.62536627376111       -1.93575511698504
H           -0.66343767864334       -0.97047159245979       -2.50684980908921
H           -3.29159176349316        1.93921577565530        1.04099763202105
H           -2.10668706212241        2.08922200890015        2.36689953688646
H           -1.69999768162193        3.00594495458645       -0.53181869439873
H           -1.96062319908468        4.06303784880924        0.86605284062333
H           -0.47575555706042        3.10623965782380        0.73611464108249
H           -5.06108389080322       -1.85420124205092        1.53964192418563
H           -5.03985896345736       -1.15257555440406       -0.10559520915526
H           -3.53045781444097       -3.68646013980841        0.71258781767260
H           -5.07835296656132       -3.66009426565990       -0.15071027315351
H           -3.62657211449176       -2.99745437503005       -0.91588985215506
41
 energy: -65.054327037637 gnorm: 0.001344824160 xtb: 6.7.1 (edcfbbe)
C            5.43640934441353       -0.24110879262923       -0.05685145401839
C            4.37151506015907       -1.08108318871322       -0.73072431155928
O            3.26556233951873       -0.29082196838952       -1.23544267441997
P            2.31728953370957        0.57516274292417       -0.30478308966492
S            2.91865867769828        2.33867576611465        0.30312201626179
O            1.99240703322095       -0.46642004970041        0.85514214339632
C            1.52162722633961       -0.08840476968980        2.15841038309025
C            2.33283067559619       -0.83616008066364        3.19727525689160
S            0.60282207533547        0.73722154572859       -1.52638815860876
C            0.06032959146260       -0.99310740356912       -1.69443046939970
S           -0.72013662115585       -1.69821248391012       -0.21179239863766
P           -2.30575433229064       -0.33102725453270       -0.00450841524226
S           -3.16666726597080        0.36974704271851       -1.62474987779683
O           -1.59824774632810        0.72210180195158        0.95374505518350
C           -2.22045335617848        1.98489401720644        1.28680532263728
C           -1.54323709093308        3.11585758242653        0.53943054899449
O           -3.30805607789195       -1.03056892082247        1.01622637047988
C           -4.48254422495777       -1.76081729634344        0.61481925989829
C           -4.14557479991574       -3.11585640679832        0.02793939185842
H            5.81250357445095        0.52001649111725       -0.73615484490555
H            5.02881346970588        0.25733855884653        0.82153653944510
H            6.25677866428688       -0.88359151721756        0.24980432656876
H            3.97085727657155       -1.82565231395652       -0.03993180991071
H            4.76068637464560       -1.57095145842728       -1.62469727465499
H            1.63049944586634        0.99556736468706        2.27293637444520
H            0.46318043682807       -0.35540066314495        2.20782870128155
H            2.26925981807414       -1.90553959350165        3.01723953332115
H            3.37450344940744       -0.52840170325622        3.15370408391820
H            1.93810211333302       -0.61397229755208        4.18312553680310
H            0.91051129961578       -1.62727010192654       -1.92953770581540
H           -0.66178550943040       -0.97883631948434       -2.50985732719792
H           -3.28606841518623        1.93893523916380        1.04330770765115
H           -2.09718776197059        2.08865113582584        2.36626205611768
H           -1.69762819207403        3.00705383127490       -0.53223671064671
H           -1.95956534739801        4.06377429991038        0.86493798975997
H           -0.47297421205178        3.11049103839507        0.73443496312928
H           -5.05702240927433       -1.85598451991387        1.53766219619526
H           -5.03702190822845       -1.15423776364551       -0.10834906223514
H           -3.52118816355760       -3.68276879960246        0.71322322685627
H           -5.06673953939830       -3.66143922116801       -0.15367916003531
H           -3.61535083342524       -2.99451769050951       -0.91520762467816
41
 energy: -65.054330942651 gnorm: 0.000953113451 xtb: 6.7.1 (edcfbbe)
C            5.43581736351824       -0.24098513683476       -0.05582129131145
C            4.37086940974329       -1.08113691258665       -0.72992229902368
O            3.26581923282103       -0.29073452928237       -1.23545727223817
P            2.31675808975589        0.57518202886436       -0.30533851103755
S            2.91636780978023        2.33896420195500        0.30240246164323
O            1.99212618113782       -0.46657999852654        0.85430423895156
C            1.52107669060224       -0.08902313145741        2.15711249345959
C            2.33285665305920       -0.83661930864259        3.19594305734200
S            0.60266955716164        0.73662024689382       -1.52749998617578
C            0.06229662765153       -0.99400563299699       -1.69552462804443
S           -0.72198880995959       -1.69551471829319       -0.21346831639303
P           -2.30757028223786       -0.33026428614225       -0.00273689684261
S           -3.16578987620752        0.37011046306327       -1.62438054398960
O           -1.59993544916776        0.72246840841421        0.95610354932531
C           -2.22019582258255        1.98617801317739        1.28752340759861
C           -1.54197262334822        3.11636037639960        0.53956996889745
O           -3.31067715632803       -1.02978469760637        1.01737245881056
C           -4.48351914427448       -1.76163602011293        0.61512472558458
C           -4.14403785948430       -3.11622501725183        0.02810271439069
H            5.81133117767030        0.52055369207872       -0.73499539876568
H            5.02797643635896        0.25712495710477        0.82264123059526
H            6.25639668553390       -0.88312132234580        0.25052954403842
H            3.96994191130478       -1.82497271288942       -0.03847773002812
H            4.76051694003276       -1.57160349337253       -1.62324715919287
H            1.62953690707952        0.99499575735927        2.27212806659858
H            0.46265088656655       -0.35648560280306        2.20670343126677
H            2.26941293194570       -1.90589422267366        3.01577175514584
H            3.37435260496309       -0.52847426406374        3.15161844236910
H            1.93847060097680       -0.61418819826067        4.18171924814562
H            0.91228613219855       -1.62900531642944       -1.92880947597059
H           -0.65976056786717       -0.98049986193427       -2.51088148650489
H           -3.28565627553692        1.94157475906570        1.04364841909548
H           -2.09669187102909        2.09044256772308        2.36673097553050
H           -1.69643617138440        3.00714264259642       -0.53206096112508
H           -1.95819563857198        4.06435181077035        0.86473277038135
H           -0.47179170713785        3.11073195941317        0.73461820880610
H           -5.05821730146151       -1.85772310899134        1.53770005308185
H           -5.03844079395032       -1.15611375371500       -0.10858011328642
H           -3.51913185525650       -3.68217047720245        0.71361092830610
H           -5.06425702951108       -3.66297944555859       -0.15427371907303
H           -3.61332092194261       -2.99372483568248       -0.91463974560471
41
 energy: -65.054333798434 gnorm: 0.000342941090 xtb: 6.7.1 (edcfbbe)
C            5.43623512083843       -0.24066974795881       -0.05439288367050
C            4.37119185995236       -1.08096478343680       -0.72899914125838
O            3.26757207683113       -0.29007864103926       -1.23608531248666
P            2.31760656318854        0.57526971629432       -0.30620078271657
S            2.91571013755163        2.33929209911876        0.30157647315978
O            1.99306123478881       -0.46706691578396        0.85260694664001