      -----------------------------------------------------------      
     |                   =====================                   |     
     |                           x T B                           |     
     |                   =====================                   |     
     |                         S. Grimme                         |     
     |          Mulliken Center for Theoretical Chemistry        |     
     |                    University of Bonn                     |     
      -----------------------------------------------------------      

   * xtb version 6.7.1 (edcfbbe) compiled by 'albert@albert-system' on 2024-07-22

   xtb is free software: you can redistribute it and/or modify it under
   the terms of the GNU Lesser General Public License as published by
   the Free Software Foundation, either version 3 of the License, or
   (at your option) any later version.
   
   xtb is distributed in the hope that it will be useful,
   but WITHOUT ANY WARRANTY; without even the implied warranty of
   MERCHANTABILITY or FITNESS FOR A PARTICULAR PURPOSE.  See the
   GNU Lesser General Public License for more details.
   
   Cite this work as:
   * C. Bannwarth, E. Caldeweyher, S. Ehlert, A. Hansen, P. Pracht,
     J. Seibert, S. Spicher, S. Grimme, WIREs Comput. Mol. Sci., 2020, 11,
     e01493. DOI: 10.1002/wcms.1493
   
   for GFN2-xTB:
   * C. Bannwarth, S. Ehlert and S. Grimme., J. Chem. Theory Comput., 2019,
     15, 1652-1671. DOI: 10.1021/acs.jctc.8b01176
   for GFN1-xTB:
   * S. Grimme, C. Bannwarth, P. Shushkov, J. Chem. Theory Comput., 2017,
     13, 1989-2009. DOI: 10.1021/acs.jctc.7b00118
   for GFN0-xTB:
   * P. Pracht, E. Caldeweyher, S. Ehlert, S. Grimme, ChemRxiv, 2019, preprint.
     DOI: 10.26434/chemrxiv.8326202.v1
   for GFN-FF:
   * S. Spicher and S. Grimme, Angew. Chem. Int. Ed., 2020, 59, 15665-15673.
     DOI: 10.1002/anie.202004239
   
   for ALPB and GBSA implicit solvation:
   * S. Ehlert, M. Stahn, S. Spicher, S. Grimme, J. Chem. Theory Comput.,
     2021, 17, 4250-4261. DOI: 10.1021/acs.jctc.1c00471
   
   for ddCOSMO and CPCM-X implicit solvation:
   * M. Stahn, S. Ehlert, S. Grimme, J. Phys. Chem. A,
     2023, XX, XXXX-XXXX. DOI: 10.1021/acs.jpca.3c04382
   
   for DFT-D4:
   * E. Caldeweyher, C. Bannwarth and S. Grimme, J. Chem. Phys., 2017,
     147, 034112. DOI: 10.1063/1.4993215
   * E. Caldeweyher, S. Ehlert, A. Hansen, H. Neugebauer, S. Spicher,
     C. Bannwarth and S. Grimme, J. Chem. Phys., 2019, 150, 154122.
     DOI: 10.1063/1.5090222
   * E. Caldeweyher, J.-M. Mewes, S. Ehlert and S. Grimme, Phys. Chem. Chem. Phys.
     2020, 22, 8499-8512. DOI: 10.1039/D0CP00502A
   
   for sTDA-xTB:
   * S. Grimme and C. Bannwarth, J. Chem. Phys., 2016, 145, 054103.
     DOI: 10.1063/1.4959605
   
   in the mass-spec context:
   * V. Asgeirsson, C. Bauer and S. Grimme, Chem. Sci., 2017, 8, 4879.
     DOI: 10.1039/c7sc00601b
   * J. Koopman and S. Grimme, ACS Omega 2019, 4, 12, 15120-15133.
     DOI: 10.1021/acsomega.9b02011
   
   for metadynamics refer to:
   * S. Grimme, J. Chem. Theory Comput., 2019, 155, 2847-2862
     DOI: 10.1021/acs.jctc.9b00143
   
   for SPH calculations refer to:
   * S. Spicher and S. Grimme, J. Chem. Theory Comput., 2021, 17, 1701-1714
     DOI: 10.1021/acs.jctc.0c01306
   
   for ONIOM refer to:
   * C. Plett, A. Katbashev, S. Ehlert, S. Grimme, M. Bursch,
     Phys. Chem. Chem. Phys., 2023, 25, 17860-17868. DOI: 10.1039/D3CP02178E
   
   for DIPRO refer to:
   * J. Kohn, N. Gildemeister, S. Grimme, D. Fazzi, A. Hansen,
     J. Chem. Phys., 2023, just accepted.
   
   for PTB refer to:
   * S. Grimme, M. Mueller, A. Hansen, J. Chem. Phys., 2023, 158, 124111.
     DOI: 10.1063/5.0137838
   
   with help from (in alphabetical order)
   P. Atkinson, C. Bannwarth, F. Bohle, G. Brandenburg, E. Caldeweyher
   M. Checinski, S. Dohm, S. Ehlert, S. Ehrlich, I. Gerasimov, C. Hölzer
   A. Katbashev, J. Kohn, J. Koopman, C. Lavigne, S. Lehtola, F. März, M. Müller,
   F. Musil, H. Neugebauer, J. Pisarek, C. Plett, P. Pracht, F. Pultar,
   J. Seibert, P. Shushkov, S. Spicher, M. Stahn, M. Steiner, T. Strunk,
   J. Stückrath, T. Rose, and J. Unsleber
   
 * started run on 2025/04/09 at 14:00:46.242     
   ID    Z sym.   atoms
    1    6 C      1, 2, 7, 8, 10, 15, 16, 18, 19
    2    8 O      3, 6, 14, 17
    3   15 P      4, 12
    4   16 S      5, 9, 11, 13
    5    1 H      20-41

           -------------------------------------------------
          |                Calculation Setup                |
           -------------------------------------------------

          program call               : /srv/scratch/z5358697/.xtb/bin/xtb xtb_rrho.coord --gfn2 --bhess vtight --chrg 0 --enso --norestart -I rrho-xcontrol-inp --parallel 1 --alpb water
          hostname                   : k163
          coordinate file            : xtb_rrho.coord
          omp threads                :                     1


           -------------------------------------------------
          |                 G F N 2 - x T B                 |
           -------------------------------------------------

        Reference                      10.1021/acs.jctc.8b01176
      * Hamiltonian:
        H0-scaling (s, p, d)           1.850000    2.230000    2.230000
        zeta-weighting                 0.500000
      * Dispersion:
        s8                             2.700000
        a1                             0.520000
        a2                             5.000000
        s9                             5.000000
      * Repulsion:
        kExp                           1.500000    1.000000
        rExp                           1.000000
      * Coulomb:
        alpha                          2.000000
        third order                    shell-resolved
        anisotropic                    true
        a3                             3.000000
        a5                             4.000000
        cn-shift                       1.200000
        cn-exp                         4.000000
        max-rad                        5.000000

      * Solvation model:               ALPB
        Solvent                        water
        Parameter file                 internal GFN2-xTB/ALPB
        Dielectric constant                8.0200E+01
        Reference state                gsolv [1 M gas/solution]
        Free energy shift                  1.0808E-03 Eh       6.7819E-01 kcal/mol
        Temperature                        2.9815E+02 K
        Density                            1.0000E+00 kg/L
        Solvent mass                       1.8000E+01 g/mol
        Interaction kernel             P16
        Born radius scaling (c1)           1.4744E+00
        Born radii integrator          GBOBC
        Born offset                        0.0000E+00 a0       0.0000E+00 AA
        H-bond correction              true
        Ion screening                  false
        Surface tension                    1.0000E-05 Eh       1.5569E+01 dyn/cm
        Grid points                               974 per atom

          ...................................................
          :                      SETUP                      :
          :.................................................:
          :  # basis functions                 134          :
          :  # atomic orbitals                 128          :
          :  # shells                           66          :
          :  # electrons                       116          :
          :  max. iterations                   250          :
          :  Hamiltonian                  GFN2-xTB          :
          :  restarted?                      false          :
          :  GBSA solvation                   true          :
          :  PC potential                    false          :
          :  electronic temp.          300.0000000     K    :
          :  accuracy                    1.0000000          :
          :  -> integral cutoff          0.2500000E+02      :
          :  -> integral neglect         0.1000000E-07      :
          :  -> SCF convergence          0.1000000E-05 Eh   :
          :  -> wf. convergence          0.1000000E-03 e    :
          :  Broyden damping             0.4000000          :
          :  net charge                          0          :
          :  unpaired electrons                  0          :
          ...................................................

 iter      E             dE          RMSdq      gap      omega  full diag
   1    -65.4171000 -0.654171E+02  0.636E+00    4.24       0.0  T
   2    -65.5376746 -0.120575E+00  0.356E+00    3.57       1.0  T
   3    -65.5564798 -0.188052E-01  0.108E+00    3.18       1.0  T
   4    -65.5594863 -0.300651E-02  0.484E-01    3.13       1.0  T
   5    -65.5602216 -0.735318E-03  0.247E-01    3.19       1.0  T
   6    -65.5604025 -0.180883E-03  0.111E-01    3.18       1.0  T
   7    -65.5604458 -0.432671E-04  0.394E-02    3.19       1.0  T
   8    -65.5604491 -0.332684E-05  0.159E-02    3.19       1.0  T
   9    -65.5604498 -0.683301E-06  0.456E-03    3.19       3.4  T
  10    -65.5604498 -0.119080E-08  0.227E-03    3.19       6.9  T
  11    -65.5604498 -0.347931E-07  0.441E-04    3.19      35.4  T
  12    -65.5604498 -0.436856E-09  0.222E-04    3.19      70.4  T

   *** convergence criteria satisfied after 12 iterations ***

         #    Occupation            Energy/Eh            Energy/eV
      -------------------------------------------------------------
         1        2.0000           -0.7607727             -20.7017
       ...           ...                  ...                  ...
        52        2.0000           -0.4460008             -12.1363
        53        2.0000           -0.4183433             -11.3837
        54        2.0000           -0.4128345             -11.2338
        55        2.0000           -0.3954149             -10.7598
        56        2.0000           -0.3946051             -10.7378
        57        2.0000           -0.3933413             -10.7034
        58        2.0000           -0.3921560             -10.6711 (HOMO)
        59                         -0.2749410              -7.4815 (LUMO)
        60                         -0.2485622              -6.7637
        61                         -0.2257783              -6.1437
        62                         -0.2001922              -5.4475
        63                         -0.1807493              -4.9184
       ...                                ...                  ...
       128                          1.2725409              34.6276
      -------------------------------------------------------------
                  HL-Gap            0.1172151 Eh            3.1896 eV
             Fermi-level           -0.3335485 Eh           -9.0763 eV

 SCC (total)                   0 d,  0 h,  0 min,  0.058 sec
 SCC setup                      ...        0 min,  0.003 sec (  4.342%)
 Dispersion                     ...        0 min,  0.000 sec (  0.521%)
 classical contributions        ...        0 min,  0.000 sec (  0.100%)
 integral evaluation            ...        0 min,  0.015 sec ( 26.488%)
 iterations                     ...        0 min,  0.021 sec ( 36.816%)
 molecular gradient             ...        0 min,  0.018 sec ( 31.401%)
 printout                       ...        0 min,  0.000 sec (  0.316%)

         :::::::::::::::::::::::::::::::::::::::::::::::::::::
         ::                     SUMMARY                     ::
         :::::::::::::::::::::::::::::::::::::::::::::::::::::
         :: total energy             -65.020147928512 Eh    ::
         :: total w/o Gsasa/hb       -65.021671954810 Eh    ::
         :: gradient norm              0.054031597075 Eh/a0 ::
         :: HOMO-LUMO gap              3.189584611965 eV    ::
         ::.................................................::
         :: SCC energy               -65.559517640614 Eh    ::
         :: -> isotropic ES            0.124364924880 Eh    ::
         :: -> anisotropic ES         -0.012762343258 Eh    ::
         :: -> anisotropic XC          0.031616836357 Eh    ::
         :: -> dispersion             -0.050845211269 Eh    ::
         :: -> Gsolv                  -0.020500579930 Eh    ::
         ::    -> Gelec               -0.022024606228 Eh    ::
         ::    -> Gsasa                0.004717543084 Eh    ::
         ::    -> Ghb                 -0.004274276485 Eh    ::
         ::    -> Gshift               0.001080759698 Eh    ::
         :: repulsion energy           0.539369712101 Eh    ::
         :: add. restraining           0.000000000000 Eh    ::
         :: total charge              -0.000000000000 e     ::
         :::::::::::::::::::::::::::::::::::::::::::::::::::::

metadynamics with 1 initial structures loaded
           -------------------------------------------------
          |           Optimal kpush determination           |
           -------------------------------------------------
      ----------------------------------------------------------- 
     |                   =====================                   |
     |                        A N C O P T                        |
     |                   =====================                   |
     |               Approximate Normal Coordinate               |
     |                Rational Function Optimizer                |
      ----------------------------------------------------------- 
target rmsd / Å         0.100000
unbiased initial rmsd   0.230568
 
iter. min.        max.        rmsd       kpush
      ----------------------------------------------------------- 
     |                   =====================                   |
     |                        A N C O P T                        |
     |                   =====================                   |
     |               Approximate Normal Coordinate               |
     |                Rational Function Optimizer                |
      ----------------------------------------------------------- 
 1    0.000000    1.863636    0.014933   -0.931818
      ----------------------------------------------------------- 
     |                   =====================                   |
     |                        A N C O P T                        |
     |                   =====================                   |
     |               Approximate Normal Coordinate               |
     |                Rational Function Optimizer                |
      ----------------------------------------------------------- 
 2    0.000000    0.931818    0.020850   -0.465909
      ----------------------------------------------------------- 
     |                   =====================                   |
     |                        A N C O P T                        |
     |                   =====================                   |
     |               Approximate Normal Coordinate               |
     |                Rational Function Optimizer                |
      ----------------------------------------------------------- 
 3    0.000000    0.465909    0.030567   -0.232955
      ----------------------------------------------------------- 
     |                   =====================                   |
     |                        A N C O P T                        |
     |                   =====================                   |
     |               Approximate Normal Coordinate               |
     |                Rational Function Optimizer                |
      ----------------------------------------------------------- 
 4    0.000000    0.232955    0.046481   -0.116477
      ----------------------------------------------------------- 
     |                   =====================                   |
     |                        A N C O P T                        |
     |                   =====================                   |
     |               Approximate Normal Coordinate               |
     |                Rational Function Optimizer                |
      ----------------------------------------------------------- 
 5    0.000000    0.116477    0.070286   -0.058239
      ----------------------------------------------------------- 
     |                   =====================                   |
     |                        A N C O P T                        |
     |                   =====================                   |
     |               Approximate Normal Coordinate               |
     |                Rational Function Optimizer                |
      ----------------------------------------------------------- 
 6    0.000000    0.058239    0.101361   -0.029119
      ----------------------------------------------------------- 
     |                   =====================                   |
     |                        A N C O P T                        |
     |                   =====================                   |
     |               Approximate Normal Coordinate               |
     |                Rational Function Optimizer                |
      ----------------------------------------------------------- 
 7    0.029119    0.058239    0.082384   -0.043679
      ----------------------------------------------------------- 
     |                   =====================                   |
     |                        A N C O P T                        |
     |                   =====================                   |
     |               Approximate Normal Coordinate               |
     |                Rational Function Optimizer                |
      ----------------------------------------------------------- 
 8    0.029119    0.043679    0.090740   -0.036399
      ----------------------------------------------------------- 
     |                   =====================                   |
     |                        A N C O P T                        |
     |                   =====================                   |
     |               Approximate Normal Coordinate               |
     |                Rational Function Optimizer                |
      ----------------------------------------------------------- 
 9    0.029119    0.036399    0.095631   -0.032759
      ----------------------------------------------------------- 
     |                   =====================                   |
     |                        A N C O P T                        |
     |                   =====================                   |
     |               Approximate Normal Coordinate               |
     |                Rational Function Optimizer                |
      ----------------------------------------------------------- 
10    0.029119    0.032759    0.098356   -0.030939
final kpush: -0.030939
           -------------------------------------------------
          |            Biased Numerical Hessian             |
           -------------------------------------------------
kpush                :  -0.03094
alpha                :   1.00000
step length          :   0.00500
SCC accuracy         :   0.30000
Hessian scale factor :   1.00000
frozen atoms in %    :   0.00000    0
RMS gradient         :   0.00004
estimated CPU  time      0.16 min
estimated wall time      0.16 min

writing file <hessian>.

 projected vibrational frequencies (cm⁻¹)
eigval :       -0.00    -0.00    -0.00     0.00     0.00     0.00
eigval :       51.66    57.07    56.49    57.07    72.34    72.78
eigval :       73.85    72.35    73.21    78.07    84.74    92.06
eigval :       96.48   123.37   100.53   129.20   134.57   144.36
eigval :      159.70   172.60   192.24   233.51   199.37   240.65
eigval :      235.10   220.78   245.18   250.71   259.55   305.00
eigval :      316.95   327.53   335.47   370.22   417.11   431.32
eigval :      438.78   475.69   488.17   613.12   637.24   660.53
eigval :      688.33   732.84   755.55   761.68   781.26   793.05
eigval :      817.85   820.82   819.07   821.55   907.25   913.27
eigval :      933.21   933.77  1034.32  1036.70  1052.96  1055.93
eigval :     1079.69  1093.06  1094.01  1095.51  1102.26  1127.26
eigval :     1129.41  1131.75  1131.91  1161.80  1232.64  1237.15
eigval :     1238.01  1238.63  1305.82  1309.13  1311.39  1311.03
eigval :     1348.44  1389.85  1392.28  1392.13  1394.25  1432.98
eigval :     1435.74  1436.59  1453.86  1454.33  1459.25  1460.02
eigval :     1460.45  1474.56  1474.34  1475.32  1478.82  2918.10
eigval :     2926.26  2927.05  2932.27  2958.55  2963.81  2974.98
eigval :     2977.41  2979.20  3009.43  3013.83  3020.81  3025.73
eigval :     3045.69  3046.66  3047.44  3048.37  3051.57  3053.37
eigval :     3057.21  3057.47  3062.25
           -------------------------------------------------
          |                Property Printout                |
           -------------------------------------------------

    * Orbital Energies and Occupations

         #    Occupation            Energy/Eh            Energy/eV
      -------------------------------------------------------------
         1        2.0000           -0.7663016             -20.8521
       ...           ...                  ...                  ...
        46        2.0000           -0.4684471             -12.7471
        47        2.0000           -0.4593221             -12.4988
        48        2.0000           -0.4581682             -12.4674
        49        2.0000           -0.4543681             -12.3640
        50        2.0000           -0.4519070             -12.2970
        51        2.0000           -0.4495678             -12.2334
        52        2.0000           -0.4451783             -12.1139
        53        2.0000           -0.4191351             -11.4052
        54        2.0000           -0.4109749             -11.1832
        55        2.0000           -0.3959402             -10.7741
        56        2.0000           -0.3940421             -10.7224
        57        2.0000           -0.3902433             -10.6191
        58        2.0000           -0.3892781             -10.5928 (HOMO)
        59                         -0.2747810              -7.4772 (LUMO)
        60                         -0.2506998              -6.8219
        61                         -0.2234013              -6.0791
        62                         -0.1977512              -5.3811
        63                         -0.1815414              -4.9400
        64                         -0.1690595              -4.6003
        65                         -0.1597543              -4.3471
        66                         -0.1505941              -4.0979
        67                         -0.1384365              -3.7670
        68                         -0.1278586              -3.4792
        69                         -0.0513295              -1.3967
       ...                                ...                  ...
       128                          1.2680428              34.5052
      -------------------------------------------------------------
                  HL-Gap            0.1144971 Eh            3.1156 eV
             Fermi-level           -0.3320295 Eh           -9.0350 eV

     #   Z          covCN         q      C6AA      α(0)
     1   6 C        3.751    -0.125    22.956     6.833
     2   6 C        3.853     0.075    19.301     6.248
     3   8 O        1.655    -0.259    18.315     5.777
     4  15 P        3.845     0.382   144.385    21.585
     5  16 S        0.925    -0.466   159.771    21.380
     6   8 O        1.654    -0.264    18.391     5.789
     7   6 C        3.866     0.077    19.261     6.241
     8   6 C        3.751    -0.127    23.009     6.841
     9  16 S        1.980    -0.147   147.246    20.423
    10   6 C        3.806     0.036    19.967     6.361
    11  16 S        1.979    -0.151   147.402    20.434
    12  15 P        3.843     0.369   144.870    21.621
    13  16 S        0.926    -0.445   158.757    21.312
    14   8 O        1.654    -0.261    18.340     5.781
    15   6 C        3.867     0.086    19.120     6.218
    16   6 C        3.752    -0.122    22.908     6.826
    17   8 O        1.655    -0.262    18.351     5.783
    18   6 C        3.842     0.075    19.309     6.251
    19   6 C        3.751    -0.131    23.070     6.850
    20   1 H        0.925     0.087     1.910     2.161
    21   1 H        0.925     0.068     2.106     2.270
    22   1 H        0.925     0.046     2.373     2.409
    23   1 H        0.924     0.066     2.127     2.281
    24   1 H        0.924     0.094     1.844     2.124
    25   1 H        0.924     0.066     2.128     2.281
    26   1 H        0.924     0.090     1.875     2.141
    27   1 H        0.925     0.085     1.927     2.171
    28   1 H        0.925     0.071     2.071     2.251
    29   1 H        0.925     0.055     2.260     2.351
    30   1 H        0.925     0.104     1.747     2.067
    31   1 H        0.925     0.104     1.753     2.070
    32   1 H        0.924     0.070     2.084     2.258
    33   1 H        0.924     0.063     2.169     2.303
    34   1 H        0.925     0.058     2.226     2.333
    35   1 H        0.925     0.073     2.048     2.238
    36   1 H        0.925     0.086     1.917     2.165
    37   1 H        0.924     0.094     1.844     2.124
    38   1 H        0.924     0.065     2.141     2.288
    39   1 H        0.925     0.072     2.063     2.246
    40   1 H        0.925     0.087     1.912     2.162
    41   1 H        0.925     0.057     2.233     2.337

 Mol. C6AA /au·bohr⁶  :      26399.670110
 Mol. C8AA /au·bohr⁸  :     862529.998903
 Mol. α(0) /au        :        257.584234


Wiberg/Mayer (AO) data.
largest (>0.10) Wiberg bond orders for each atom

 ---------------------------------------------------------------------------
     #   Z sym  total        # sym  WBO       # sym  WBO       # sym  WBO
 ---------------------------------------------------------------------------
     1   6 C    3.986 --     2 C    1.022    21 H    0.983    20 H    0.976
                            22 H    0.975
     2   6 C    3.890 --     1 C    1.022    23 H    0.966    24 H    0.964
                             3 O    0.890
     3   8 O    2.407 --     4 P    1.319     2 C    0.890
     4  15 P    5.275 --     5 S    1.513     6 O    1.323     3 O    1.319
                             9 S    0.975
     5  16 S    1.837 --     4 P    1.513     9 S    0.132
     6   8 O    2.394 --     4 P    1.323     7 C    0.875
     7   6 C    3.887 --     8 C    1.024    25 H    0.966    26 H    0.965
                             6 O    0.875
     8   6 C    3.987 --     7 C    1.024    28 H    0.983    29 H    0.977
                            27 H    0.975
     9  16 S    2.278 --    10 C    0.983     4 P    0.975     5 S    0.132
    10   6 C    3.950 --    11 S    0.989     9 S    0.983    30 H    0.959
                            31 H    0.951
    11  16 S    2.273 --    10 C    0.989    12 P    0.947    13 S    0.135
    12  15 P    5.303 --    13 S    1.555    14 O    1.338    17 O    1.327
                            11 S    0.947
    13  16 S    1.867 --    12 P    1.555    11 S    0.135
    14   8 O    2.396 --    12 P    1.338    15 C    0.866
    15   6 C    3.889 --    16 C    1.020    32 H    0.971    33 H    0.965
                            14 O    0.866
    16   6 C    3.984 --    15 C    1.020    35 H    0.982    34 H    0.981
                            36 H    0.974
    17   8 O    2.407 --    12 P    1.327    18 C    0.883
    18   6 C    3.885 --    19 C    1.022    38 H    0.969    37 H    0.964
                            17 O    0.883
    19   6 C    3.986 --    18 C    1.022    39 H    0.982    41 H    0.977
                            40 H    0.976
    20   1 H    0.992 --     1 C    0.976
    21   1 H    0.995 --     1 C    0.983
    22   1 H    0.998 --     1 C    0.975
    23   1 H    0.996 --     2 C    0.966
    24   1 H    0.991 --     2 C    0.964
    25   1 H    0.996 --     7 C    0.966
    26   1 H    0.991 --     7 C    0.965
    27   1 H    0.992 --     8 C    0.975
    28   1 H    0.995 --     8 C    0.983
    29   1 H    0.997 --     8 C    0.977
    30   1 H    0.989 --    10 C    0.959
    31   1 H    0.989 --    10 C    0.951
    32   1 H    0.995 --    15 C    0.971
    33   1 H    0.996 --    15 C    0.965
    34   1 H    0.996 --    16 C    0.981
    35   1 H    0.994 --    16 C    0.982
    36   1 H    0.991 --    16 C    0.974
    37   1 H    0.991 --    18 C    0.964
    38   1 H    0.996 --    18 C    0.969
    39   1 H    0.995 --    19 C    0.982
    40   1 H    0.992 --    19 C    0.976
    41   1 H    0.997 --    19 C    0.977
 ---------------------------------------------------------------------------

Topologies differ in total number of bonds
Writing topology from bond orders to xtbtopo.mol

molecular dipole:
                 x           y           z       tot (Debye)
 q only:        0.767       0.060       1.664
   full:        0.870       0.008       1.565       4.551
molecular quadrupole (traceless):
                xx          xy          yy          xz          yz          zz
 q only:       25.332       4.017       5.602      -9.393     -15.086     -30.933
  q+dip:       29.061      -3.387       5.250     -10.760     -16.417     -34.311
   full:       29.120      -1.958       5.024      -9.856     -17.021     -34.143

           -------------------------------------------------
          |                Geometry Summary                 |
           -------------------------------------------------

      molecular mass/u    :      384.4756129
   center of mass at/Å    :       -0.0055511      -0.0015445       0.0064179
  moments of inertia/u·Å² :        0.1328755E+04   0.3544614E+04   0.3847260E+04
rotational constants/cm⁻¹ :        0.1268679E-01   0.4755844E-02   0.4381724E-02

 * 38 selected distances

     #   Z          #   Z                                           value/Å
     1   6 C        2   6 C                                       1.5157064
     2   6 C        3   8 O                                       1.4365106
     3   8 O        4  15 P                                       1.5908876
     4  15 P        5  16 S                                       1.9621605
     4  15 P        6   8 O                                       1.5845413
     6   8 O        7   6 C                                       1.4457600
     7   6 C        8   6 C                                       1.5146690
     4  15 P        9  16 S                                       2.1234744
    11  16 S       12  15 P                                       2.1366679 (max)
    12  15 P       13  16 S                                       1.9521940
    12  15 P       14   8 O                                       1.5786604
    14   8 O       15   6 C                                       1.4505061
    15   6 C       16   6 C                                       1.5128419
    12  15 P       17   8 O                                       1.5917869
    17   8 O       18   6 C                                       1.4402948
    18   6 C       19   6 C                                       1.5146838
     1   6 C       20   1 H                                       1.0856025
     1   6 C       21   1 H                                       1.0868967
     1   6 C       22   1 H                                       1.0899305
     2   6 C       23   1 H                                       1.0953886
     2   6 C       24   1 H                                       1.0911919
     7   6 C       25   1 H                                       1.0946940
     7   6 C       26   1 H                                       1.0909215
     8   6 C       27   1 H                                       1.0861930
     8   6 C       28   1 H                                       1.0866156
     8   6 C       29   1 H                                       1.0890113
    10   6 C       30   1 H                                       1.0867639
    10   6 C       31   1 H                                       1.0907789
    15   6 C       32   1 H                                       1.0914430
    15   6 C       33   1 H                                       1.0947193
    16   6 C       34   1 H                                       1.0868606
    16   6 C       35   1 H                                       1.0859524
    16   6 C       36   1 H                                       1.0851408 (min)
    18   6 C       37   1 H                                       1.0913979
    18   6 C       38   1 H                                       1.0942451
    19   6 C       39   1 H                                       1.0869498
    19   6 C       40   1 H                                       1.0857435
    19   6 C       41   1 H                                       1.0886299

 * 5 distinct bonds (by element types)

   Z      Z             #   av. dist./Å        max./Å        min./Å
   1 H    6 C          22     1.0893214     1.0953886     1.0851408
   6 C    6 C           4     1.5144753     1.5157064     1.5128419
   6 C    8 O           4     1.4432679     1.4505061     1.4365106
   8 O   15 P           4     1.5864691     1.5917869     1.5786604
  15 P   16 S           4     2.0436242     2.1366679     1.9521940

           -------------------------------------------------
          |               Frequency Printout                |
           -------------------------------------------------
 projected vibrational frequencies (cm⁻¹)
eigval :       -0.00    -0.00    -0.00     0.00     0.00     0.00
eigval :       51.66    57.07    56.49    57.07    72.34    72.78
eigval :       73.85    72.35    73.21    78.07    84.74    92.06
eigval :       96.48   123.37   100.53   129.20   134.57   144.36
eigval :      159.70   172.60   192.24   233.51   199.37   240.65
eigval :      235.10   220.78   245.18   250.71   259.55   305.00
eigval :      316.95   327.53   335.47   370.22   417.11   431.32
eigval :      438.78   475.69   488.17   613.12   637.24   660.53
eigval :      688.33   732.84   755.55   761.68   781.26   793.05
eigval :      817.85   820.82   819.07   821.55   907.25   913.27
eigval :      933.21   933.77  1034.32  1036.70  1052.96  1055.93
eigval :     1079.69  1093.06  1094.01  1095.51  1102.26  1127.26
eigval :     1129.41  1131.75  1131.91  1161.80  1232.64  1237.15
eigval :     1238.01  1238.63  1305.82  1309.13  1311.39  1311.03
eigval :     1348.44  1389.85  1392.28  1392.13  1394.25  1432.98
eigval :     1435.74  1436.59  1453.86  1454.33  1459.25  1460.02
eigval :     1460.45  1474.56  1474.34  1475.32  1478.82  2918.10
eigval :     2926.26  2927.05  2932.27  2958.55  2963.81  2974.98
eigval :     2977.41  2979.20  3009.43  3013.83  3020.81  3025.73
eigval :     3045.69  3046.66  3047.44  3048.37  3051.57  3053.37
eigval :     3057.21  3057.47  3062.25
 reduced masses (amu)
   1: 20.29   2: 15.65   3: 20.90   4: 19.51   5: 18.81   6: 21.10   7: 26.86   8: 24.77
   9: 22.87  10: 20.09  11: 23.94  12: 16.73  13: 14.31  14: 13.28  15: 11.96  16: 12.90
  17: 14.75  18: 13.82  19: 13.02  20: 19.98  21:  9.33  22: 15.43  23: 14.19  24: 16.68
  25: 17.06  26: 15.38  27: 17.46  28: 18.83  29:  7.25  30: 13.46  31:  8.73  32:  6.03
  33: 11.37  34:  9.49  35:  8.04  36: 14.54  37: 17.05  38: 20.28  39: 15.57  40: 17.64
  41: 23.23  42: 25.26  43: 12.92  44: 14.72  45: 17.89  46: 25.87  47: 23.96  48: 18.58
  49: 16.64  50: 20.08  51: 23.31  52: 22.68  53: 18.12  54:  5.91  55:  2.83  56:  2.74
  57:  2.06  58:  2.68  59: 12.91  60: 14.12  61: 12.05  62: 11.29  63:  7.92  64:  8.34
  65:  9.33  66:  9.83  67:  1.75  68:  7.54  69:  7.85  70:  7.76  71:  8.04  72:  4.67
  73:  5.16  74:  5.27  75:  5.22  76:  2.26  77:  2.31  78:  2.29  79:  2.25  80:  2.31
  81:  3.12  82:  2.98  83:  3.03  84:  3.02  85:  1.75  86:  3.12  87:  3.07  88:  3.07
  89:  3.08  90:  1.94  91:  1.94  92:  1.93  93:  1.66  94:  1.71  95:  1.50  96:  1.49
  97:  1.50  98:  1.56  99:  1.55 100:  1.55 101:  1.56 102:  1.74 103:  1.74 104:  1.80
 105:  1.75 106:  1.70 107:  1.67 108:  1.72 109:  1.73 110:  1.73 111:  1.76 112:  1.83
 113:  1.76 114:  1.76 115:  1.80 116:  1.63 117:  1.64 118:  1.58 119:  1.82 120:  1.53
 121:  1.77 122:  1.76 123:  1.83
 IR intensities (km·mol⁻¹)
   1:  0.23   2:  0.01   3:  0.02   4:  0.07   5:  0.18   6:  0.19   7:  1.59   8:  1.56
   9:  2.09  10:  7.69  11:  4.27  12:  1.45  13:  5.09  14:  5.33  15:  1.84  16:  0.44
  17:  1.63  18:  3.48  19:  2.03  20:  7.40  21:  4.86  22: 15.32  23:  7.24  24:  0.64
  25: 11.68  26:  8.05  27: 14.69  28: 19.08  29:  8.29  30:  7.11  31:  3.59  32:  1.69
  33:  3.59  34: 12.94  35:  2.96  36:  9.69  37: 26.12  38:  5.51  39:  4.15  40: 14.62
  41:111.15  42: 68.82  43: 11.08  44: 85.83  45:120.31  46:191.15  47:122.82  48:  6.98
  49: 41.60  50:201.16  51:295.59  52:299.44  53:139.47  54:  6.28  55:  7.79  56:  1.58
  57:  3.14  58:  2.80  59:341.92  60:371.16  61: 85.74  62:137.34  63: 87.12  64:191.33
  65:164.63  66:111.56  67:  0.64  68: 13.12  69:  7.07  70: 10.86  71: 13.43  72: 18.49
  73: 20.75  74:  8.64  75: 27.23  76: 41.40  77:  3.47  78:  2.54  79:  4.64  80:  4.08
  81:  3.46  82:  5.94  83:  2.03  84:  6.12  85: 15.21  86: 15.61  87: 11.94  88: 14.03
  89:  9.64  90:  6.09  91:  8.08  92:  3.93  93: 10.10  94:  1.91  95:  6.81  96:  7.33
  97:  8.73  98:  1.98  99:  5.61 100:  1.38 101:  5.70 102: 25.01 103: 19.91 104: 24.23
 105: 28.45 106: 14.74 107: 23.02 108:  9.83 109:  5.59 110:  8.43 111: 62.74 112:  3.55
 113: 46.09 114: 50.52 115: 36.14 116: 16.62 117: 21.68 118: 13.98 119: 10.53 120: 15.82
 121: 15.62 122:  5.52 123:  9.23
 Raman intensities (Ä⁴*amu⁻¹)
   1:  0.00   2:  0.00   3:  0.00   4:  0.00   5:  0.00   6:  0.00   7:  0.00   8:  0.00
   9:  0.00  10:  0.00  11:  0.00  12:  0.00  13:  0.00  14:  0.00  15:  0.00  16:  0.00
  17:  0.00  18:  0.00  19:  0.00  20:  0.00  21:  0.00  22:  0.00  23:  0.00  24:  0.00
  25:  0.00  26:  0.00  27:  0.00  28:  0.00  29:  0.00  30:  0.00  31:  0.00  32:  0.00
  33:  0.00  34:  0.00  35:  0.00  36:  0.00  37:  0.00  38:  0.00  39:  0.00  40:  0.00
  41:  0.00  42:  0.00  43:  0.00  44:  0.00  45:  0.00  46:  0.00  47:  0.00  48:  0.00
  49:  0.00  50:  0.00  51:  0.00  52:  0.00  53:  0.00  54:  0.00  55:  0.00  56:  0.00
  57:  0.00  58:  0.00  59:  0.00  60:  0.00  61:  0.00  62:  0.00  63:  0.00  64:  0.00
  65:  0.00  66:  0.00  67:  0.00  68:  0.00  69:  0.00  70:  0.00  71:  0.00  72:  0.00
  73:  0.00  74:  0.00  75:  0.00  76:  0.00  77:  0.00  78:  0.00  79:  0.00  80:  0.00
  81:  0.00  82:  0.00  83:  0.00  84:  0.00  85:  0.00  86:  0.00  87:  0.00  88:  0.00
  89:  0.00  90:  0.00  91:  0.00  92:  0.00  93:  0.00  94:  0.00  95:  0.00  96:  0.00
  97:  0.00  98:  0.00  99:  0.00 100:  0.00 101:  0.00 102:  0.00 103:  0.00 104:  0.00
 105:  0.00 106:  0.00 107:  0.00 108:  0.00 109:  0.00 110:  0.00 111:  0.00 112:  0.00
 113:  0.00 114:  0.00 115:  0.00 116:  0.00 117:  0.00 118:  0.00 119:  0.00 120:  0.00
 121:  0.00 122:  0.00 123:  0.00
 output can be read by thermo (or use thermo option).
 writing <g98.out> molden fake output.
 recommended (thermochemical) frequency scaling factor: 1.0
           -------------------------------------------------
          |             Thermodynamic Functions             |
           -------------------------------------------------

Molecule has no symmetry elements
It seems to be the C1 point group
c1  symmetry found (for desy threshold:  0.10E+00) used in thermo

          ...................................................
          :                      SETUP                      :
          :.................................................:
          :  # frequencies                         117      :
          :  # imaginary freq.                       0      :
          :  linear?                             false      :
          :  only rotor calc.                    false      :
          :  symmetry                               c1      :
          :  rotational number                       1      :
          :  scaling factor                  1.0000000      :
          :  rotor cutoff                    0.0000000 cm⁻¹ :
          :  imag. cutoff                 -100.0000000 cm⁻¹ :
          :.................................................:

    mode    ω/cm⁻¹     T·S(HO)/kcal·mol⁻¹    T·S(FR)/kcal·mol⁻¹   T·S(vib)
   ------------------------------------------------------------------------
       1     51.66    -1.41700 (100.00%)    -1.04682 (  0.00%)    -1.41700
       2     57.07    -1.35838 (100.00%)    -1.01734 (  0.00%)    -1.35838
       3     56.49    -1.36441 (100.00%)    -1.02038 (  0.00%)    -1.36441
       4     57.07    -1.35842 (100.00%)    -1.01736 (  0.00%)    -1.35842
       5     72.34    -1.21901 (100.00%)    -0.94710 (  0.00%)    -1.21901
       6     72.78    -1.21547 (100.00%)    -0.94531 (  0.00%)    -1.21547
       7     73.85    -1.20691 (100.00%)    -0.94099 (  0.00%)    -1.20691
       8     72.35    -1.21895 (100.00%)    -0.94707 (  0.00%)    -1.21895
       9     73.21    -1.21201 (100.00%)    -0.94356 (  0.00%)    -1.21201
      10     78.07    -1.17438 (100.00%)    -0.92454 (  0.00%)    -1.17438
      11     84.74    -1.12638 (100.00%)    -0.90023 (  0.00%)    -1.12638
      12     92.06    -1.07806 (100.00%)    -0.87570 (  0.00%)    -1.07806
      13     96.48    -1.05074 (100.00%)    -0.86181 (  0.00%)    -1.05074
      14    123.37    -0.90843 (100.00%)    -0.78898 (  0.00%)    -0.90843
      15    100.53    -1.02685 (100.00%)    -0.84964 (  0.00%)    -1.02685
      16    129.20    -0.88190 (100.00%)    -0.77530 (  0.00%)    -0.88190
      17    134.57    -0.85857 (100.00%)    -0.76324 (  0.00%)    -0.85857
      18    144.36    -0.81850 (100.00%)    -0.74243 (  0.00%)    -0.81850
      19    159.70    -0.76127 (100.00%)    -0.71252 (  0.00%)    -0.76127
      20    172.60    -0.71763 (100.00%)    -0.68950 (  0.00%)    -0.71763
      21    192.24    -0.65775 (100.00%)    -0.65759 (  0.00%)    -0.65775
      22    233.51    -0.55210 (100.00%)    -0.59997 (  0.00%)    -0.55210
      23    199.37    -0.63772 (100.00%)    -0.64680 (  0.00%)    -0.63772
      24    240.65    -0.53610 (100.00%)    -0.59106 (  0.00%)    -0.53610
      25    235.10    -0.54851 (100.00%)    -0.59797 (  0.00%)    -0.54851
      26    220.78    -0.58220 (100.00%)    -0.61658 (  0.00%)    -0.58220
      27    245.18    -0.52624 (100.00%)    -0.58553 (  0.00%)    -0.52624
      28    250.71    -0.51448 (100.00%)    -0.57892 (  0.00%)    -0.51448
      29    259.55    -0.49635 (100.00%)    -0.56865 (  0.00%)    -0.49635
   ------------------------------------------------------------------------

   temp. (K)  partition function   enthalpy   heat capacity  entropy
                                   cal/mol     cal/K/mol   cal/K/mol   J/K/mol
 298.15  VIB  0.641E+12            15592.419     88.510    106.323
         ROT  0.103E+08              888.752      2.981     35.067
         INT  0.659E+19            16481.172     91.491    141.390
         TR   0.729E+28             1481.254      4.968     43.712
         TOT                       17962.4258    96.4595   185.1027   774.4697

       T/K    H(0)-H(T)+PV         H(T)/Eh          T*S/Eh         G(T)/Eh
   ------------------------------------------------------------------------
    298.15    0.286249E-01    0.341411E+00    0.879483E-01    0.253463E+00
   ------------------------------------------------------------------------

         :::::::::::::::::::::::::::::::::::::::::::::::::::::
         ::                  THERMODYNAMIC                  ::
         :::::::::::::::::::::::::::::::::::::::::::::::::::::
         :: total free energy         -64.804137179036 Eh   ::
         ::.................................................::
         :: total energy              -65.057600113610 Eh   ::
         :: zero point energy           0.312786248846 Eh   ::
         :: G(RRHO) w/o ZPVE           -0.059323314272 Eh   ::
         :: G(RRHO) contrib.            0.253462934573 Eh   ::
         :::::::::::::::::::::::::::::::::::::::::::::::::::::

optimized geometry written to: xtbopt.coord


           -------------------------------------------------
          | TOTAL ENERGY              -65.057600113610 Eh   |
          | TOTAL ENTHALPY            -64.716188917273 Eh   |
          | TOTAL FREE ENERGY         -64.804137179036 Eh   |
          | GRADIENT NORM               0.000035955245 Eh/α |
          | HOMO-LUMO GAP               3.115625359835 eV   |
           -------------------------------------------------

------------------------------------------------------------------------
 * finished run on 2025/04/09 at 14:01:04.415     
------------------------------------------------------------------------
 total:
 * wall-time:     0 d,  0 h,  0 min, 18.173 sec
 *  cpu-time:     0 d,  0 h,  0 min, 17.909 sec
 * ratio c/w:     0.985 speedup
 SCF:
 * wall-time:     0 d,  0 h,  0 min,  0.059 sec
 *  cpu-time:     0 d,  0 h,  0 min,  0.050 sec
 * ratio c/w:     0.858 speedup
 analytical hessian:
 * wall-time:     0 d,  0 h,  0 min,  9.401 sec
 *  cpu-time:     0 d,  0 h,  0 min,  9.360 sec
 * ratio c/w:     0.996 speedup

