38
 energy: -1981.479906359811 gnorm: 0.004414168720 xtb: 6.7.1 (edcfbbe)
C            3.60137444297960       -2.92282850615951       -2.94724782355358
C            2.95345690595578       -3.22082690436587       -1.61921633916434
O            2.68367978314178       -1.93266459366806       -0.97609866112647
C            2.13937029915959       -1.97757461193299        0.24714086100849
O            1.88283380614980       -3.01329308016628        0.84005421944849
C            1.90047997334193       -0.60159975585465        0.81098077981276
C            1.16714834146131        0.31713038713223       -0.16277108856678
H            1.78900720281499        0.49410782470512       -1.05046938115235
C            0.91673754450606        1.69139366084642        0.44308206502073
O            1.55006983988451        2.10857240362931        1.39429459723899
O           -0.00419709400086        2.37856853794344       -0.22745765603710
C           -0.32951037606998        3.72258592197237        0.26122707581460
C            0.64601941769102        4.73992283580654       -0.27830730302050
S           -0.33635223089956       -0.50071780107103       -0.89183384415608
P           -1.86848239551350       -0.16524613675186        0.54200323014668
S           -1.32630157198692        0.01229479263442        2.39703527655786
O           -2.74486490646755        1.09438088225304        0.08021741874361
C           -3.10988613423287        1.31786524496917       -1.31365164050827
O           -2.85189990636975       -1.38361270352501        0.15069904144374
C           -2.51242929509651       -2.73996640077332        0.55818705277221
H            4.53996330201582       -2.37430164190443       -2.81204875097743
H            3.82581904508360       -3.86768466141814       -3.45125049246353
H            2.93477215663320       -2.33826187139000       -3.59051979354631
H            3.60893294064332       -3.80091822600070       -0.96100442333695
H            2.00041317120815       -3.75011569870352       -1.73191086015262
H            2.87519274457054       -0.15769877196913        1.04657461665233
H            1.33634059437782       -0.70978899146109        1.73749271646233
H           -1.34077213481308        3.89146169902173       -0.11420498639449
H           -0.34704418075930        3.69625113333721        1.35358207242866
H            1.65705898444182        4.56166822205423        0.09702714846285
H            0.66057627734064        4.71966370393275       -1.37172888043896
H            0.33016913737309        5.73771940731926        0.04241719065098
H           -3.79302083466931        2.16745034845094       -1.29821324372417
H           -3.61284517899848        0.43891324701831       -1.72673524963865
H           -2.21744834298014        1.56167084575267       -1.89617227878683
H           -3.23940502667486       -3.38544442833978        0.06546555041477
H           -2.59726350058939       -2.83117684509542        1.64380780529708
H           -1.50070863190706       -2.99975942393509        0.23264019200557
38
 energy: -1981.479927945327 gnorm: 0.001425194102 xtb: 6.7.1 (edcfbbe)
C            3.60073313747175       -2.92379863593328       -2.94770073105983
C            2.95513289110610       -3.22012576790273       -1.61901774975839
O            2.68514282285372       -1.93193731168721       -0.97507451891088
C            2.13827697492433       -1.97678071462281        0.24643452291391
O            1.88434712871552       -3.01177010508406        0.83913167878240
C            1.90142308385682       -0.60118423528000        0.81164550076420
C            1.16624913807762        0.31686370880518       -0.16152893509279
H            1.78824006603484        0.49449358263120       -1.04890515146541
C            0.91776451886763        1.69166709006852        0.44341336542026
O            1.54939023098390        2.10822813280651        1.39564141412478
O           -0.00367614498203        2.37870552702866       -0.22675922890366
C           -0.32885279017954        3.72304582219644        0.26216426804212
C            0.64677361307832        4.74014442930910       -0.27810339182352
S           -0.33670272966854       -0.49960167403652       -0.89364404159578
P           -1.86796867484321       -0.16567223815458        0.54113676526202
S           -1.33017333773035        0.01228442888544        2.39750422602651
O           -2.74438611775326        1.09407642219931        0.07911918390801
C           -3.11043916582533        1.31645013756850       -1.31466193904712
O           -2.85143389737622       -1.38350848932550        0.14910054266141
C           -2.51391115278156       -2.74018436356708        0.55830251987102
H            4.53848543178096       -2.37638519163816       -2.81416188896337
H            3.82344142300706       -3.86812836843694       -3.45301616985617
H            2.93423716511584       -2.33907529377339       -3.58858607903626
H            3.61068647097999       -3.79944733847601       -0.96235684920674
H            2.00338116662056       -3.74908427187951       -1.73069910954577
H            2.87651262496368       -0.15709916906803        1.04518226751164
H            1.33936758145917       -0.70923669408461        1.73941541381473
H           -1.34029914789578        3.89180138504949       -0.11309813500863
H           -0.34579905181756        3.69677083431034        1.35461092961684
H            1.65819211200451        4.56179380514897        0.09597688933740
H            0.66021809780056        4.72080427628385       -1.37152813766517
H            0.33100528477409        5.73754194215322        0.04346384947434
H           -3.79373283488559        2.16558222819723       -1.30021459218109
H           -3.61261419216947        0.43723039958514       -1.72612776737225
H           -2.21885311332682        1.55981725939810       -1.89726216854975
H           -3.24128133513007       -3.38497596566129        0.06550445949634
H           -2.59975495663573       -2.83011907621387        1.64388774779637
H           -1.50213121723444       -3.00104981788034        0.23380363230986
38
 energy: -1981.479935977958 gnorm: 0.002298358110 xtb: 6.7.1 (edcfbbe)
C            3.59859891478789       -2.92418044961783       -2.94876476537830
C            2.95770066474744       -3.21974425308841       -1.61842645985918
O            2.69036321902539       -1.93090751238752       -0.97336443636914
C            2.14301220571908       -1.97579097154420        0.24738974159641
O            1.88552796807859       -3.01023829605924        0.83738454291945
C            1.90461474058451       -0.60028872418910        0.81215289029363
C            1.16796827442864        0.31799154653334       -0.15973340282021
H            1.78939474999552        0.49701721024130       -1.04715933254239
C            0.91757867936251        1.69156300183496        0.44650094636345
O            1.54901629278457        2.10887435511390        1.39814016614599
O           -0.00312696288781        2.37893325320037       -0.22482147964575
C           -0.32722076273838        3.72424405797579        0.26358608907655
C            0.64838640306703        4.74096203082158       -0.27772983827948
S           -0.33482953052290       -0.49944884045423       -0.89003048252280
P           -1.87097476934809       -0.16663325360863        0.53964256347307
S           -1.33170614150649        0.01002321075655        2.39571920480670
O           -2.74631912932695        1.09381521684616        0.07647787596543
C           -3.11254196067565        1.31355160327286       -1.31761842557759
O           -2.85362057015096       -1.38420249752101        0.14603966372627
C           -2.51814145919995       -2.74097012401023        0.55824299297910
H            4.53693060673983       -2.37932884271686       -2.81913608969613
H            3.81708721031605       -3.86849440615450       -3.45565086093083
H            2.93128449480471       -2.33861698366335       -3.58601901410994
H            3.61494126246429       -3.79778412375786       -0.96422009429736
H            2.00647923032522       -3.74775792549860       -1.72659918332219
H            2.87963678917701       -0.15518110799885        1.04340235547627
H            1.34473191693698       -0.70831753456283        1.74128245900548
H           -1.33885548354403        3.89304969020292       -0.11131264093056
H           -0.34334945610235        3.69837226095711        1.35610758451104
H            1.66040085647444        4.56172433343577        0.09412418937948
H            0.65956976621410        4.72295339858639       -1.37117880063970
H            0.33348168920875        5.73798785660866        0.04550121984265
H           -3.79622537780054        2.16211366576211       -1.30494899312143
H           -3.61368169924200        0.43351437329319       -1.72685084373675
H           -2.22159016071410        1.55634751628256       -1.90029215886799
H           -3.24576341845620       -3.38527158077635        0.06548739109804
H           -2.60563893952997       -2.82840868628374        1.64383881448530
H           -1.50611386158392       -3.00334390708508        0.23564751856805
38
 energy: -1981.479944376757 gnorm: 0.001601814063 xtb: 6.7.1 (edcfbbe)
C            3.59731665688130       -2.92386609331044       -2.94942712806181
C            2.95908168189215       -3.21957499726384       -1.61779988806027
O            2.69244271140969       -1.93030197766681       -0.97284437775723
C            2.14403846858720       -1.97524775852516        0.24749200960764
O            1.88614894616996       -3.00986006968804        0.83752815990432
C            1.90568182843641       -0.59963521498441        0.81222562689279
C            1.16727198191492        0.31795377777800       -0.15906062704068
H            1.78852786890823        0.49762310113122       -1.04651208141059
C            0.91706962140854        1.69141385316934        0.44755510422404
O            1.54816365729374        2.10828904233675        1.39969452464190
O           -0.00317850683752        2.37939027668505       -0.22394448520523
C           -0.32649708394330        3.72497890544972        0.26454790807604
C            0.64918650418868        4.74130892570793       -0.27731729709629
S           -0.33412999997652       -0.50102356104330       -0.89084826627512
P           -1.87019672252299       -0.16674921061793        0.53904160024586
S           -1.33387822580788        0.00992320515518        2.39599832516736
O           -2.74543060840923        1.09368073528236        0.07519874591565
C           -3.11285361294745        1.31157679533309       -1.31899761613653
O           -2.85272842738918       -1.38385080573898        0.14427620922109
C           -2.51966371600847       -2.74086121721389        0.55815093551046
H            4.53683059227576       -2.38006043236430       -2.82203613351698
H            3.81355778981857       -3.86855732029499       -3.45672688155879
H            2.92885586992553       -2.33771010667393       -3.58534109797214
H            3.61784806427941       -3.79698350334952       -0.96425366161214
H            2.00747675195417       -3.74767840689566       -1.72385380834140
H            2.88077132193714       -0.15378577625566        1.04194365453551
H            1.34719461944846       -0.70769321174614        1.74219373912116
H           -1.33818631636526        3.89411720403715       -0.10995684338693
H           -0.34212190369870        3.69926958414635        1.35704761287310
H            1.66148062154884        4.56122134280029        0.09340106467766
H            0.65917526099988        4.72388047427090       -1.37079484538722
H            0.33526025197134        5.73838561433618        0.04682973552026
H           -3.79701988306229        2.15983937506063       -1.30671318712471
H           -3.61407817636836        0.43091783198044       -1.72711358058846
H           -2.22238698533241        1.55435077421382       -1.90265363313771
H           -3.24773546814826       -3.38453492024939        0.06521147293757
H           -2.60857867412175       -2.82712151849710        1.64371538183620
H           -1.50770126039825       -3.00490082725193        0.23684178562975
38
 energy: -1981.479954274366 gnorm: 0.002361648101 xtb: 6.7.1 (edcfbbe)
C            3.59060648709357       -2.92287795943026       -2.95341850601208
C            2.96619715812751       -3.21763105889198       -1.61456704106529
O            2.70335048147208       -1.92667936352853       -0.96928994299941
C            2.14808100409775       -1.97178128950598        0.24851576557092
O            1.88677604546571       -3.00716809088066        0.83830607473496
C            1.91258734236444       -0.59557707407765        0.81392732607139
C            1.16831588178417        0.31918678467763       -0.15600129851925
H            1.78844286570848        0.50198248908254       -1.04378680533449
C            0.91740543120776        1.69205704302822        0.45185724506140
O            1.54489621033134        2.10649188199689        1.40770356535366
O           -0.00179210768098        2.38156423939043       -0.22033823790522
C           -0.32314937909873        3.72774576309544        0.26903724833978
C            0.65295794268846        4.74227332794263       -0.27521713419027
S           -0.33054746732560       -0.50261153426464       -0.89039113649667
P           -1.87012486923015       -0.16903501578047        0.53592500832319
S           -1.33988259007259        0.00886615230763        2.39425837620141
O           -2.74302252258648        1.09231245057004        0.06842255228750
C           -3.11504011465500        1.30160093519515       -1.32640162694448
O           -2.85266931342550       -1.38398170143782        0.13651738245237
C           -2.52928067854309       -2.74137372132201        0.55787998191474
H            4.53581412701306       -2.38364957407495       -2.83716490693493
H            3.79585461346037       -3.86903419888299       -3.46334865216184
H            2.91608019966565       -2.33313247354377       -3.58192752032665
H            3.63268543967592       -3.79289830603993       -0.96495220053315
H            2.01276645818012       -3.74689188444860       -1.71009215142181
H            2.88837443810147       -0.14745137889435        1.03699463447400
H            1.35945833921550       -0.70325365682472        1.74712107977875
H           -1.33523511811488        3.89808926062722       -0.10349678370002
H           -0.33635026829468        3.70253164195201        1.36142224454121
H            1.66662122602658        4.55794151049495        0.08995748754142
H            0.65735895302547        4.72796147463774       -1.36882810069323
H            0.34416472832748        5.73963875100560        0.05359516713461
H           -3.80133092701201        2.14860005932601       -1.31644275066854
H           -3.61637892467416        0.41757619821733       -1.72902123356857
H           -2.22628422443614        1.54362868299726       -1.91436811057687
H           -3.25906449095474       -3.38267614386084        0.06420204720252
H           -2.62413779039903       -2.82199567090657        1.64336909251652
H           -1.51744243959079       -3.01224850900607        0.24218243096742
38
 energy: -1981.479959744636 gnorm: 0.001352186646 xtb: 6.7.1 (edcfbbe)
C            3.58973021997200       -2.92302871807986       -2.95374476345527
C            2.96617420347200       -3.21723400654792       -1.61445575565668
O            2.70394232395432       -1.92661654432176       -0.96866890166826
C            2.14954589446937       -1.97139630761507        0.24941425081178
O            1.88664100040626       -3.00647390850940        0.83843435868358
C            1.91273274801108       -0.59529239212711        0.81412306318140
C            1.16877907610043        0.31950270157277       -0.15597919797339
H            1.78886482593055        0.50233987894235       -1.04373764056087
C            0.91662167639266        1.69195968302477        0.45230532808529
O            1.54451498101358        2.10664417454793        1.40777412993231
O           -0.00185558580534        2.38163283940228       -0.22032230880328
C           -0.32307957290595        3.72770982631844        0.26900891949804
C            0.65322200226968        4.74217306503196       -0.27499986746985
S           -0.32962916608965       -0.50338850417086       -0.89001539988824
P           -1.86974585575071       -0.16884957729776        0.53553793390833
S           -1.34014889055835        0.00844284658100        2.39409705168126
O           -2.74270890128528        1.09235261999386        0.06790332114575
C           -3.11506781313881        1.30121110819531       -1.32678696028336
O           -2.85233050861628       -1.38389111037607        0.13627881045553
C           -2.52949392374758       -2.74118154028285        0.55782758544037
H            4.53447491249844       -2.38353257674989       -2.83812415260045
H            3.79491701008391       -3.86884999963933       -3.46403887942408
H            2.91510335439612       -2.33320362020832       -3.58150258494280
H            3.63310038288391       -3.79257547107408       -0.96573622509075
H            2.01329613573337       -3.74705036597097       -1.70939864895855
H            2.88829502620722       -0.14709039895400        1.03762745040213
H            1.35905985869753       -0.70277595331462        1.74699110348568
H           -1.33516713765342        3.89819486246508       -0.10350827567136
H           -0.33641341765415        3.70239623992687        1.36142416655746
H            1.66680941184387        4.55733068363028        0.09009434236393
H            0.65764321857391        4.72803736730072       -1.36857196061963
H            0.34492506513974        5.73959012071656        0.05396860331757
H           -3.80145961439820        2.14800385057282       -1.31713880961898
H           -3.61603780491306        0.41694958357567       -1.72888047693057
H           -2.22654454054743        1.54296184180030       -1.91488721298613
H           -3.25930349420162       -3.38239235719182        0.06407814619547
H           -2.62463493082405       -2.82191678882426        1.64326514278147
H           -1.51770685153153       -3.01259491922663        0.24245906195697
38
 energy: -1981.479962969662 gnorm: 0.000883417695 xtb: 6.7.1 (edcfbbe)
C            3.58639396128772       -2.92243688216419       -2.95437618395597
C            2.96658118689863       -3.21630253059420       -1.61339529233279
O            2.70547255669947       -1.92644981927193       -0.96721111126139
C            2.15114209597538       -1.97039108613486        0.25065215221317
O            1.88701696405566       -3.00466062970956        0.83912084584415
C            1.91406453797222       -0.59436023238636        0.81464703839228
C            1.17096861090170        0.32060113445098       -0.15578680140447
H            1.79092466409947        0.50344210538783       -1.04350470354568
C            0.91658231114099        1.69248688466020        0.45274693321116
O            1.54372006503091        2.10701227698289        1.40874570205743
O           -0.00108303029924        2.38184037789481       -0.22040197473792
C           -0.32279142896840        3.72734072390212        0.26914214217746
C            0.65404220587178        4.74176696210427       -0.27405716978187
S           -0.32754418059486       -0.50370546860219       -0.88789843015912
P           -1.86997347553775       -0.16875384832352        0.53459226944884
S           -1.33930286839283        0.00771903776318        2.39289778845787
O           -2.74231860740263        1.09221465250982        0.06587457350544
C           -3.11510802668093        1.29932614175836       -1.32863297819831
O           -2.85230121931410       -1.38427049683416        0.13525211767315
C           -2.53086389595428       -2.74108096735735        0.55755838614455
H            4.53027708594042       -2.38225968661370       -2.84169073905462
H            3.79076068041166       -3.86770995451015       -3.46544819573118
H            2.91052876891787       -2.33286390594029       -3.57983876078392
H            3.63536241081605       -3.79125259589140       -0.96711716983095
H            2.01492799274816       -3.74751738152476       -1.70593322529520
H            2.88937776869367       -0.14626715896632        1.03865414723941
H            1.35960305082836       -0.70110439369915        1.74710289899427
H           -1.33485602077542        3.89807864713985       -0.10341855750584
H           -0.33648941123414        3.70170188238173        1.36160114564006
H            1.66746449310564        4.55532676433897        0.09061715424144
H            0.65837499028771        4.72846986298936       -1.36756857023311
H            0.34713012419060        5.73919647599299        0.05577055076512
H           -3.80179711912521        2.14560458819999       -1.32008820566807
H           -3.61527222215934        0.41439385407027       -1.72918328546102
H           -2.22723283309215        1.54040475660283       -1.91727398679739
H           -3.26059385910742       -3.38209339796769        0.06343791800650
H           -2.62710932512449       -2.82157610652117        1.64291709766357
H           -1.51900096550551       -3.01377918998082        0.24349459533388
38
 energy: -1981.479962969662 gnorm: 0.000883417695 xtb: 6.7.1 (edcfbbe)
C            3.58639396128772       -2.92243688216419       -2.95437618395597
C            2.96658118689863       -3.21630253059420       -1.61339529233279
O            2.70547255669947       -1.92644981927193       -0.96721111126139
C            2.15114209597538       -1.97039108613486        0.25065215221317
O            1.88701696405566       -3.00466062970956        0.83912084584415
C            1.91406453797222       -0.59436023238636        0.81464703839228
C            1.17096861090170        0.32060113445098       -0.15578680140447
H            1.79092466409947        0.50344210538783       -1.04350470354568
C            0.91658231114099        1.69248688466020        0.45274693321116
O            1.54372006503091        2.10701227698289        1.40874570205743
O           -0.00108303029924        2.38184037789481       -0.22040197473792
C           -0.32279142896840        3.72734072390212        0.26914214217746
C            0.65404220587178        4.74176696210427       -0.27405716978187
S           -0.32754418059486       -0.50370546860219       -0.88789843015912
P           -1.86997347553775       -0.16875384832352        0.53459226944884
S           -1.33930286839283        0.00771903776318        2.39289778845787
O           -2.74231860740263        1.09221465250982        0.06587457350544
C           -3.11510802668093        1.29932614175836       -1.32863297819831
O           -2.85230121931410       -1.38427049683416        0.13525211767315
C           -2.53086389595428       -2.74108096735735        0.55755838614455
H            4.53027708594042       -2.38225968661370       -2.84169073905462
H            3.79076068041166       -3.86770995451015       -3.46544819573118
H            2.91052876891787       -2.33286390594029       -3.57983876078392
H            3.63536241081605       -3.79125259589140       -0.96711716983095
H            2.01492799274816       -3.74751738152476       -1.70593322529520
H            2.88937776869367       -0.14626715896632        1.03865414723941
H            1.35960305082836       -0.70110439369915        1.74710289899427
H           -1.33485602077542        3.89807864713985       -0.10341855750584
H           -0.33648941123414        3.70170188238173        1.36160114564006
H            1.66746449310564        4.55532676433897        0.09061715424144
H            0.65837499028771        4.72846986298936       -1.36756857023311
H            0.34713012419060        5.73919647599299        0.05577055076512
H           -3.80179711912521        2.14560458819999       -1.32008820566807
H           -3.61527222215934        0.41439385407027       -1.72918328546102
H           -2.22723283309215        1.54040475660283       -1.91727398679739
H           -3.26059385910742       -3.38209339796769        0.06343791800650
H           -2.62710932512449       -2.82157610652117        1.64291709766357
H           -1.51900096550551       -3.01377918998082        0.24349459533388
