 Entering Gaussian System
 *********************************************
 Gaussian 98:
 frequency output generated by the xtb code
 *********************************************
                         Standard orientation:
 --------------------------------------------------------------------
  Center     Atomic     Atomic              Coordinates (Angstroms)
  Number     Number      Type              X           Y           Z
 --------------------------------------------------------------------
    1          6             0        4.897992    0.094054   -1.906267
    2          6             0        4.683798    0.934937   -0.664391
    3          8             0        3.730659    0.361303    0.250457
    4         15             0        2.166921    0.272032   -0.025574
    5         16             0        1.360675    1.752671   -1.016703
    6          8             0        1.549463    0.174174    1.423373
    7          6             0        1.886662   -0.830987    2.410977
    8          6             0        2.967443   -0.340533    3.352843
    9         16             0        1.952279   -1.662176   -0.885465
   10          6             0        0.206956   -1.575743   -1.336893
   11         16             0       -0.916131   -1.837667    0.086177
   12         15             0       -2.142445   -0.129576   -0.051598
   13         16             0       -2.387008    0.620001   -1.849961
   14          8             0       -1.495846    0.823567    1.032613
   15          6             0       -1.701320    2.249484    1.023631
   16          6             0       -3.103780    2.617707    1.458846
   17          8             0       -3.459307   -0.603518    0.704360
   18          6             0       -4.451036   -1.454003    0.089906
   19          6             0       -5.642416   -0.637455   -0.374184
   20          1             0        5.181560   -0.920763   -1.640843
   21          1             0        3.987692    0.062343   -2.502399
   22          1             0        5.688699    0.544014   -2.499648
   23          1             0        4.339033    1.937381   -0.934802
   24          1             0        5.597705    1.005277   -0.071787
   25          1             0        0.947370   -1.007955    2.939409
   26          1             0        2.195944   -1.744412    1.895437
   27          1             0        3.899156   -0.184746    2.815876
   28          1             0        2.666881    0.595457    3.816076
   29          1             0        3.120724   -1.087551    4.125902
   30          1             0        0.040822   -2.382851   -2.045966
   31          1             0       -0.016166   -0.604956   -1.787798
   32          1             0       -0.944628    2.627043    1.713142
   33          1             0       -1.490255    2.624807    0.016071
   34          1             0       -3.322444    2.182851    2.430555
   35          1             0       -3.186723    3.698728    1.517461
   36          1             0       -3.826317    2.245359    0.733792
   37          1             0       -3.999942   -1.994273   -0.746946
   38          1             0       -4.736081   -2.162756    0.869738
   39          1             0       -6.058051   -0.074455    0.456924
   40          1             0       -5.341800    0.055798   -1.156979
   41          1             0       -6.401395   -1.306251   -0.767853
 --------------------------------------------------------------------
     1 basis functions        1 primitive gaussians
     1 alpha electrons        1 beta electrons
 
 Harmonic frequencies (cm**-1), IR intensities (km*mol⁻¹),
 Raman scattering activities (A**4/amu), Raman depolarization ratios,
 reduced masses (AMU), force constants (mDyne/A) and normal coordinates:
                      1                      2                      3
                        a                      a                      a 
 Frequencies --    53.8489                55.9052                59.5293
 Red. masses --    26.6130                23.9536                25.5503
 Frc consts  --     0.0000                 0.0000                 0.0000
 IR Inten    --     0.7085                 1.7102                 6.2303
 Raman Activ --     0.0000                 0.0000                 0.0000
 Depolar     --     0.0000                 0.0000                 0.0000
 Atom AN      X      Y      Z        X      Y      Z        X      Y      Z
   1   6     0.11  -0.09   0.01    -0.06  -0.04  -0.03     0.04  -0.04   0.01
   2   6     0.15  -0.11   0.04    -0.03  -0.01  -0.05     0.04  -0.07   0.03
   3   8     0.16  -0.13   0.03     0.01   0.02   0.01     0.01  -0.10  -0.02
   4  15     0.21   0.09   0.01    -0.01  -0.01   0.17     0.02  -0.01  -0.11
   5  16     0.55   0.26  -0.01    -0.22   0.09   0.48     0.17   0.20   0.08
   6   8     0.10   0.13  -0.00     0.10  -0.13   0.15    -0.06  -0.11  -0.12
   7   6     0.00   0.09   0.00     0.17  -0.14   0.07    -0.08  -0.12  -0.11
   8   6     0.00   0.03   0.04     0.19  -0.12   0.04    -0.13  -0.13  -0.06
   9  16    -0.06   0.11   0.03     0.03   0.09  -0.06     0.00   0.11  -0.38
  10   6    -0.02   0.13  -0.02     0.02   0.04  -0.03    -0.07  -0.00   0.06
  11  16    -0.13  -0.05  -0.15     0.05   0.09  -0.03     0.27   0.21   0.46
  12  15    -0.22  -0.10  -0.01    -0.02   0.02  -0.17    -0.00  -0.01   0.15
  13  16    -0.42  -0.06   0.03    -0.25  -0.31  -0.28     0.13  -0.27   0.03
  14   8    -0.08  -0.07  -0.06     0.07   0.11  -0.26    -0.15   0.11   0.09
  15   6    -0.03  -0.05  -0.05     0.02   0.09  -0.20    -0.16   0.09  -0.02
  16   6    -0.02  -0.02  -0.03     0.04   0.05  -0.10    -0.18   0.08  -0.08
  17   8    -0.09  -0.11   0.07     0.05   0.07   0.01    -0.04  -0.04   0.02
  18   6    -0.10  -0.08   0.07    -0.01   0.05   0.10    -0.01  -0.01  -0.05
  19   6    -0.08  -0.06   0.05    -0.02   0.05   0.13     0.01   0.01  -0.08
  20   1     0.03  -0.03  -0.00    -0.02  -0.01  -0.01     0.00  -0.02  -0.00
  21   1     0.03  -0.02   0.01    -0.02  -0.01  -0.01     0.01  -0.00  -0.00
  22   1     0.03  -0.03   0.00    -0.02  -0.02  -0.02     0.02  -0.01   0.01
  23   1     0.05  -0.03   0.02    -0.01  -0.00  -0.02     0.02  -0.02   0.01
  24   1     0.04  -0.04   0.01    -0.00   0.00  -0.02     0.01  -0.03   0.01
  25   1    -0.01   0.04  -0.01     0.06  -0.05   0.03    -0.03  -0.04  -0.05
  26   1    -0.01   0.02   0.00     0.05  -0.03   0.01    -0.02  -0.03  -0.04
  27   1     0.01   0.00   0.02     0.05  -0.02   0.00    -0.03  -0.03  -0.00
  28   1     0.01   0.01   0.01     0.05  -0.04   0.01    -0.04  -0.04  -0.02
  29   1    -0.01   0.01   0.01     0.07  -0.03   0.01    -0.05  -0.04  -0.02
  30   1    -0.00   0.06  -0.03     0.01   0.01  -0.01    -0.05  -0.02   0.05
  31   1    -0.00   0.05   0.02     0.00   0.01  -0.01    -0.05  -0.01   0.00
  32   1    -0.00  -0.02  -0.02     0.02   0.03  -0.07    -0.05   0.04  -0.01
  33   1    -0.01  -0.02  -0.02    -0.02   0.03  -0.06    -0.04   0.01  -0.01
  34   1    -0.00  -0.00  -0.01     0.04   0.01  -0.03    -0.06   0.03  -0.02
  35   1     0.00  -0.00  -0.01     0.01   0.01  -0.02    -0.06   0.02  -0.03
  36   1    -0.01  -0.00  -0.00    -0.00   0.01  -0.01    -0.04   0.01  -0.02
  37   1    -0.03  -0.03   0.02    -0.02   0.00   0.03     0.01   0.01  -0.02
  38   1    -0.03  -0.02   0.02     0.01   0.02   0.04    -0.01  -0.01  -0.03
  39   1    -0.02  -0.01   0.01     0.01   0.02   0.04    -0.00   0.00  -0.02
  40   1    -0.02  -0.02   0.01    -0.01   0.01   0.03     0.01   0.01  -0.02
  41   1    -0.03  -0.01   0.02    -0.01   0.01   0.05     0.00   0.01  -0.03
                      4                      5                      6
                        a                      a                      a 
 Frequencies --    60.1865                66.9242                68.8324
 Red. masses --    18.6888                20.9792                17.6154
 Frc consts  --     0.0000                 0.0000                 0.0000
 IR Inten    --     0.6630                 5.6156                 7.5752
 Raman Activ --     0.0000                 0.0000                 0.0000
 Depolar     --     0.0000                 0.0000                 0.0000
 Atom AN      X      Y      Z        X      Y      Z        X      Y      Z
   1   6     0.02   0.13  -0.16    -0.12  -0.04  -0.20     0.00  -0.33   0.02
   2   6     0.03   0.04  -0.11    -0.01  -0.01  -0.20    -0.03  -0.18  -0.08
   3   8     0.14  -0.10  -0.10     0.05   0.04  -0.13    -0.06  -0.07  -0.04
   4  15     0.17  -0.17   0.03     0.03   0.16   0.03    -0.11   0.04   0.02
   5  16     0.03  -0.23   0.06     0.02   0.24   0.16    -0.10   0.22   0.27
   6   8     0.21  -0.07   0.07     0.15   0.16   0.08    -0.03  -0.03   0.03
   7   6     0.21  -0.04   0.07     0.08   0.06   0.00     0.10   0.04   0.04
   8   6     0.21   0.01   0.04     0.17  -0.07  -0.03     0.06   0.19   0.01
   9  16    -0.00  -0.20   0.14    -0.09   0.09   0.21    -0.12   0.12  -0.17
  10   6     0.01   0.04   0.06    -0.06  -0.06   0.12    -0.08  -0.02  -0.08
  11  16    -0.02   0.25   0.11    -0.15  -0.21   0.14    -0.08  -0.06  -0.11
  12  15    -0.13   0.16  -0.04    -0.04  -0.15   0.01     0.03   0.03   0.07
  13  16    -0.04   0.25  -0.01     0.39  -0.16  -0.06     0.16   0.28   0.16
  14   8    -0.21   0.11   0.04    -0.08  -0.15   0.07    -0.02  -0.02   0.11
  15   6    -0.22   0.09   0.04     0.01  -0.11   0.05     0.07  -0.00  -0.04
  16   6    -0.24   0.04   0.03     0.03  -0.03   0.05     0.04   0.10  -0.23
  17   8    -0.11   0.02  -0.11    -0.15   0.01  -0.14     0.02  -0.02   0.01
  18   6     0.02  -0.10  -0.11    -0.15   0.08  -0.19     0.12  -0.17   0.05
  19   6    -0.06  -0.23  -0.14    -0.12   0.16  -0.14     0.09  -0.32  -0.12
  20   1     0.03   0.04  -0.07    -0.04  -0.01  -0.06    -0.01  -0.09   0.04
  21   1    -0.00   0.03  -0.03    -0.04  -0.01  -0.04     0.01  -0.11  -0.00
  22   1    -0.01   0.06  -0.05    -0.04  -0.02  -0.07     0.01  -0.12   0.00
  23   1    -0.02   0.01  -0.01    -0.00  -0.00  -0.06    -0.00  -0.06  -0.06
  24   1     0.01   0.02  -0.04     0.01  -0.01  -0.08    -0.01  -0.04  -0.02
  25   1     0.06  -0.02   0.02     0.03   0.03   0.01     0.04  -0.01   0.02
  26   1     0.07  -0.01   0.02    -0.00   0.02  -0.02     0.05   0.02   0.02
  27   1     0.06   0.01   0.01     0.04  -0.03  -0.02     0.01   0.07   0.00
  28   1     0.05   0.00   0.01     0.07  -0.02   0.01    -0.01   0.06  -0.01
  29   1     0.07   0.01   0.02     0.04  -0.04  -0.02     0.03   0.07   0.02
  30   1    -0.02   0.01   0.02     0.00  -0.02   0.03    -0.01  -0.02  -0.01
  31   1     0.03   0.02   0.02    -0.03  -0.02   0.03    -0.04  -0.01  -0.03
  32   1    -0.07   0.03   0.01     0.01  -0.04   0.01     0.01   0.00   0.00
  33   1    -0.06   0.03   0.01     0.01  -0.04   0.01     0.06  -0.03  -0.01
  34   1    -0.06   0.01   0.01     0.00  -0.00   0.01    -0.02   0.06  -0.06
  35   1    -0.08   0.01   0.01     0.03  -0.01   0.01     0.02   0.03  -0.10
  36   1    -0.06   0.00   0.00     0.00   0.00   0.01     0.03   0.01  -0.08
  37   1     0.03  -0.02  -0.03    -0.05   0.03  -0.06     0.06  -0.07   0.04
  38   1     0.02  -0.04  -0.03    -0.05   0.01  -0.07     0.04  -0.03   0.03
  39   1    -0.03  -0.08  -0.04    -0.02   0.04  -0.03     0.00  -0.07  -0.06
  40   1    -0.03  -0.06  -0.04    -0.02   0.05  -0.03     0.02  -0.11  -0.05
  41   1     0.00  -0.09  -0.04    -0.04   0.06  -0.05     0.05  -0.12  -0.02
                      7                      8                      9
                        a                      a                      a 
 Frequencies --    83.1760                72.6807                69.9667
 Red. masses --    18.9421                13.9520                11.9876
 Frc consts  --     0.0000                 0.0000                 0.0000
 IR Inten    --    12.0060                 3.3652                 0.7594
 Raman Activ --     0.0000                 0.0000                 0.0000
 Depolar     --     0.0000                 0.0000                 0.0000
 Atom AN      X      Y      Z        X      Y      Z        X      Y      Z
   1   6     0.12  -0.19   0.07    -0.14  -0.41   0.00    -0.03   0.23  -0.06
   2   6     0.08  -0.00  -0.06     0.04  -0.17  -0.13    -0.04   0.14  -0.01
   3   8     0.03   0.20  -0.02     0.00   0.18   0.04     0.00   0.05  -0.03
   4  15     0.06   0.06  -0.01     0.02   0.16   0.04    -0.01   0.06   0.02
   5  16    -0.31  -0.17  -0.06    -0.05   0.03  -0.13     0.06   0.04  -0.06
   6   8     0.11   0.04   0.02     0.03   0.16   0.04     0.01   0.06   0.03
   7   6     0.06  -0.01  -0.02    -0.18  -0.01  -0.05    -0.16  -0.12  -0.09
   8   6     0.09  -0.09  -0.01    -0.07  -0.31  -0.02    -0.02  -0.43  -0.09
   9  16     0.15   0.05   0.02     0.14   0.10   0.18    -0.08  -0.02   0.20
  10   6     0.09   0.08   0.01     0.11   0.03   0.02    -0.04  -0.02   0.09
  11  16     0.15   0.04   0.01     0.12   0.16  -0.00    -0.15  -0.04   0.09
  12  15    -0.09  -0.10   0.12     0.04   0.08  -0.11    -0.03   0.04   0.08
  13  16    -0.34   0.05   0.22     0.02   0.11  -0.10    -0.09  -0.02   0.07
  14   8    -0.14  -0.08   0.14     0.00   0.06  -0.06     0.06   0.05  -0.00
  15   6     0.03  -0.05  -0.01    -0.12   0.03   0.06     0.19   0.06  -0.12
  16   6     0.04   0.14  -0.15    -0.12  -0.12   0.18     0.20   0.20  -0.20
  17   8    -0.02  -0.25   0.05     0.05   0.01  -0.07    -0.02   0.07   0.09
  18   6    -0.09   0.02  -0.17     0.07  -0.08   0.03     0.12  -0.10   0.07
  19   6     0.09   0.26  -0.23    -0.03  -0.18   0.12     0.11  -0.25  -0.18
  20   1     0.02  -0.05   0.07    -0.08  -0.12   0.04     0.01   0.06  -0.03
  21   1     0.05  -0.07   0.01    -0.05  -0.10   0.01    -0.01   0.06  -0.01
  22   1     0.05  -0.09   0.02    -0.03  -0.18  -0.03    -0.02   0.08  -0.01
  23   1     0.04  -0.01  -0.06     0.05  -0.05  -0.08    -0.02   0.04   0.02
  24   1     0.02   0.02  -0.01     0.02  -0.06  -0.05    -0.01   0.04  -0.01
  25   1     0.02   0.00  -0.00    -0.06   0.04  -0.02    -0.05   0.01  -0.02
  26   1     0.00  -0.00  -0.01    -0.10  -0.01  -0.03    -0.10  -0.04  -0.05
  27   1     0.03  -0.03  -0.00    -0.02  -0.12  -0.01    -0.01  -0.15  -0.03
  28   1     0.04  -0.03   0.00     0.03  -0.09   0.03     0.05  -0.12   0.01
  29   1     0.02  -0.03  -0.01    -0.05  -0.12  -0.03    -0.03  -0.16  -0.05
  30   1     0.02   0.03  -0.01     0.04  -0.00   0.01    -0.01  -0.00   0.02
  31   1     0.03   0.03   0.02     0.03   0.00  -0.01    -0.01  -0.01   0.02
  32   1     0.01  -0.02   0.01    -0.03   0.01   0.01     0.06   0.01  -0.03
  33   1     0.04  -0.04  -0.01    -0.06   0.03   0.02     0.07  -0.01  -0.04
  34   1    -0.02   0.07  -0.04    -0.01  -0.06   0.05     0.04   0.08  -0.05
  35   1     0.04   0.04  -0.07    -0.06  -0.04   0.07     0.08   0.06  -0.08
  36   1     0.02   0.04  -0.05    -0.04  -0.04   0.06     0.06   0.06  -0.06
  37   1    -0.02   0.01  -0.05     0.01  -0.02  -0.00     0.07  -0.05   0.05
  38   1    -0.08  -0.00  -0.08     0.05  -0.03   0.02     0.02  -0.01   0.04
  39   1     0.03   0.08  -0.07    -0.00  -0.06   0.04    -0.01  -0.05  -0.08
  40   1     0.08   0.07  -0.05    -0.04  -0.04   0.03     0.04  -0.09  -0.06
  41   1     0.01   0.12  -0.10    -0.00  -0.07   0.05     0.06  -0.10  -0.06
                     10                     11                     12
                        a                      a                      a 
 Frequencies --    79.7170                80.0228                84.9613
 Red. masses --    12.8883                11.7956                11.7402
 Frc consts  --     0.0000                 0.0000                 0.0000
 IR Inten    --     2.9774                 0.5191                 0.1170
 Raman Activ --     0.0000                 0.0000                 0.0000
 Depolar     --     0.0000                 0.0000                 0.0000
 Atom AN      X      Y      Z        X      Y      Z        X      Y      Z
   1   6    -0.36   0.11  -0.26    -0.24  -0.01  -0.20    -0.20   0.04  -0.04
   2   6    -0.07  -0.01  -0.13    -0.04  -0.10  -0.11    -0.01  -0.02   0.04
   3   8     0.07  -0.03  -0.01     0.01  -0.09  -0.06     0.00   0.03   0.09
   4  15     0.08  -0.06   0.06    -0.01  -0.04   0.01     0.02  -0.03   0.03
   5  16     0.11  -0.01   0.12     0.02   0.03   0.08     0.02  -0.06  -0.00
   6   8     0.02  -0.01   0.03     0.01   0.04   0.01    -0.06  -0.05  -0.02
   7   6    -0.14  -0.02   0.07    -0.06   0.07   0.07    -0.03   0.01   0.03
   8   6    -0.22  -0.02   0.17    -0.21   0.17   0.19    -0.08   0.09   0.04
   9  16     0.13  -0.05   0.05    -0.02  -0.03  -0.00     0.12   0.01  -0.07
  10   6     0.10   0.02  -0.05    -0.01   0.01  -0.00     0.07   0.04  -0.01
  11  16     0.11  -0.05  -0.14     0.07   0.07   0.06     0.16   0.10   0.03
  12  15     0.09  -0.05   0.05     0.04   0.03   0.01    -0.09  -0.06  -0.08
  13  16     0.04   0.16   0.14    -0.25  -0.13  -0.02     0.06   0.03  -0.06
  14   8    -0.00  -0.01   0.06     0.12   0.03  -0.06    -0.24  -0.07   0.07
  15   6    -0.06  -0.02  -0.09     0.07   0.02   0.07     0.19  -0.01  -0.05
  16   6    -0.16  -0.03  -0.39     0.14  -0.04   0.33     0.35   0.38   0.13
  17   8     0.10  -0.12   0.06     0.06  -0.01   0.04    -0.09  -0.15  -0.17
  18   6    -0.01   0.03   0.04     0.12  -0.00  -0.08    -0.08  -0.13  -0.14
  19   6     0.03   0.16   0.16     0.25  -0.00  -0.40    -0.22  -0.15   0.20
  20   1    -0.12   0.02  -0.12    -0.08  -0.02  -0.09    -0.08  -0.00  -0.04
  21   1    -0.13   0.07  -0.03    -0.08   0.03  -0.03    -0.07   0.05   0.01
  22   1    -0.12   0.03  -0.10    -0.07  -0.01  -0.07    -0.06  -0.00  -0.02
  23   1    -0.01   0.01   0.01     0.00  -0.01   0.00     0.02   0.01   0.03
  24   1     0.01  -0.04  -0.08     0.01  -0.06  -0.06     0.01  -0.04  -0.01
  25   1    -0.06   0.01  -0.01    -0.03   0.00  -0.01    -0.01  -0.00   0.00
  26   1    -0.03  -0.01   0.03     0.02   0.02   0.04     0.00   0.00   0.02
  27   1    -0.05  -0.00   0.07    -0.05   0.07   0.08    -0.02   0.03   0.01
  28   1    -0.08  -0.01   0.04    -0.10   0.04   0.04    -0.04   0.03  -0.00
  29   1    -0.08  -0.01   0.05    -0.06   0.05   0.06    -0.02   0.03   0.02
  30   1     0.03   0.01  -0.02    -0.01   0.00   0.00     0.01   0.02  -0.00
  31   1     0.04   0.01  -0.00     0.00   0.00  -0.00     0.02   0.02   0.00
  32   1    -0.06   0.02   0.01     0.05  -0.00  -0.01     0.11  -0.04  -0.06
  33   1     0.03  -0.02  -0.02    -0.03   0.02   0.02     0.04  -0.04  -0.03
  34   1    -0.10   0.01  -0.12     0.09  -0.03   0.10     0.12   0.16   0.06
  35   1    -0.06  -0.01  -0.13     0.04  -0.01   0.12     0.17   0.12   0.00
  36   1    -0.00  -0.03  -0.15     0.01  -0.00   0.12     0.04   0.13   0.09
  37   1    -0.03   0.02  -0.01     0.07  -0.03   0.02    -0.04   0.02  -0.09
  38   1    -0.01   0.00   0.00    -0.02   0.03  -0.02     0.03  -0.08  -0.06
  39   1     0.03   0.04   0.06     0.03   0.03  -0.16    -0.03  -0.09   0.10
  40   1     0.01   0.05   0.05     0.12  -0.02  -0.12    -0.12  -0.00   0.07
  41   1    -0.01   0.07   0.05     0.08  -0.00  -0.14    -0.07  -0.04   0.06
                     13                     14                     15
                        a                      a                      a 
 Frequencies --    93.6108               127.6140               126.6184
 Red. masses --    12.1019                18.5891                14.8780
 Frc consts  --     0.0000                 0.0000                 0.0000
 IR Inten    --     0.0972                 9.4096                 2.0830
 Raman Activ --     0.0000                 0.0000                 0.0000
 Depolar     --     0.0000                 0.0000                 0.0000
 Atom AN      X      Y      Z        X      Y      Z        X      Y      Z
   1   6    -0.40   0.01   0.05    -0.17  -0.01   0.01     0.15   0.02  -0.03
   2   6    -0.08  -0.11   0.18     0.11  -0.04   0.08    -0.05   0.01  -0.06
   3   8    -0.12  -0.01   0.25     0.06   0.15   0.13     0.01  -0.14  -0.09
   4  15    -0.11  -0.00   0.11     0.12   0.06   0.06    -0.02  -0.08   0.00
   5  16     0.21   0.02  -0.13    -0.06  -0.23  -0.23    -0.03   0.00   0.15
   6   8    -0.21  -0.06   0.02     0.12  -0.04   0.05    -0.05   0.10   0.00
   7   6     0.10   0.03   0.01     0.17  -0.10  -0.03    -0.23   0.15   0.12
   8   6     0.40   0.04  -0.35    -0.03  -0.03   0.16     0.06  -0.04  -0.11
   9  16     0.02   0.01   0.04    -0.04   0.17  -0.15    -0.02  -0.09   0.06
  10   6     0.02   0.00  -0.01    -0.02   0.25  -0.06     0.04   0.06  -0.14
  11  16     0.06   0.03   0.00    -0.12  -0.03  -0.23     0.00  -0.04  -0.34
  12  15     0.02  -0.01   0.02    -0.09   0.01   0.10     0.03  -0.00   0.08
  13  16    -0.06   0.01   0.03     0.29  -0.25  -0.05     0.21  -0.18  -0.01
  14   8    -0.01   0.02  -0.00    -0.10   0.03   0.08    -0.23   0.13   0.10
  15   6    -0.05   0.02  -0.02    -0.05   0.03   0.04    -0.18   0.12  -0.09
  16   6    -0.06  -0.02  -0.03    -0.05   0.09   0.01    -0.07   0.23   0.19
  17   8     0.04  -0.06   0.02    -0.08   0.11   0.10     0.11  -0.18   0.09
  18   6     0.03  -0.00  -0.05    -0.09   0.00   0.26     0.03  -0.06   0.08
  19   6     0.10   0.06  -0.12     0.03  -0.04  -0.11     0.16   0.08   0.01
  20   1    -0.16  -0.02  -0.03    -0.10  -0.02  -0.02     0.08   0.02   0.00
  21   1    -0.14   0.08   0.04    -0.07   0.06   0.03     0.05  -0.04  -0.02
  22   1    -0.11  -0.02   0.00    -0.04  -0.04  -0.01     0.03   0.04   0.00
  23   1     0.03  -0.00   0.10     0.09   0.01   0.05    -0.05  -0.01  -0.03
  24   1     0.00  -0.10   0.02     0.05  -0.08   0.01    -0.02   0.05  -0.01
  25   1     0.07   0.03   0.08     0.04  -0.09  -0.05    -0.06   0.16   0.08
  26   1    -0.03  -0.01  -0.01     0.11   0.00  -0.03    -0.17  -0.01   0.07
  27   1     0.08  -0.03  -0.17     0.00   0.05   0.08     0.01  -0.11  -0.08
  28   1     0.17   0.03  -0.10    -0.07  -0.04   0.06     0.12   0.03  -0.05
  29   1     0.15   0.03  -0.09    -0.00  -0.03   0.03    -0.01   0.00  -0.01
  30   1     0.01  -0.00  -0.00    -0.01   0.11  -0.06     0.01   0.04  -0.06
  31   1     0.01   0.00  -0.01     0.00   0.10   0.03     0.03   0.03  -0.02
  32   1    -0.02   0.01  -0.01    -0.02   0.01   0.01    -0.00   0.06  -0.09
  33   1    -0.02   0.00  -0.01    -0.01   0.00   0.01    -0.12  -0.01  -0.06
  34   1    -0.01  -0.01  -0.01    -0.02   0.03   0.00     0.04   0.10   0.09
  35   1    -0.02  -0.01  -0.01    -0.00   0.03  -0.00    -0.00   0.07   0.02
  36   1    -0.01  -0.01  -0.01    -0.02   0.03   0.00    -0.07   0.05   0.12
  37   1     0.02  -0.01  -0.01    -0.01  -0.08   0.13    -0.00  -0.04   0.03
  38   1    -0.01   0.00  -0.02    -0.06   0.08   0.13    -0.02   0.00   0.03
  39   1     0.02   0.02  -0.04    -0.02   0.05  -0.09     0.06   0.04  -0.00
  40   1     0.05   0.01  -0.03     0.05  -0.07  -0.07     0.08   0.01   0.00
  41   1     0.02   0.03  -0.04     0.01  -0.03  -0.02     0.02   0.05  -0.00
                     16                     17                     18
                        a                      a                      a 
 Frequencies --   124.5310               129.6642               130.2079
 Red. masses --    13.0738                14.4991                13.4847
 Frc consts  --     0.0000                 0.0000                 0.0000
 IR Inten    --     8.7730                 7.8952                13.5395
 Raman Activ --     0.0000                 0.0000                 0.0000
 Depolar     --     0.0000                 0.0000                 0.0000
 Atom AN      X      Y      Z        X      Y      Z        X      Y      Z
   1   6     0.03   0.10  -0.08    -0.02  -0.13   0.06     0.02  -0.02  -0.00
   2   6     0.21  -0.21   0.16    -0.30   0.16  -0.18    -0.19   0.12  -0.13
   3   8     0.02  -0.22  -0.04    -0.08   0.05  -0.00     0.01  -0.04  -0.01
   4  15    -0.01   0.02   0.01    -0.12  -0.02   0.14    -0.01  -0.10   0.13
   5  16    -0.24  -0.13  -0.03     0.28  -0.04  -0.20     0.10  -0.15  -0.02
   6   8     0.09   0.23   0.06     0.00  -0.05   0.14    -0.02   0.03   0.09
   7   6    -0.09   0.19   0.10     0.13  -0.10   0.05    -0.19   0.13   0.24
   8   6     0.07  -0.03   0.03     0.01  -0.03   0.14     0.09  -0.03  -0.00
   9  16    -0.18   0.11  -0.07    -0.15   0.06   0.00    -0.00   0.08  -0.23
  10   6    -0.09   0.13  -0.06    -0.06   0.11  -0.07    -0.01   0.16  -0.04
  11  16     0.01   0.07  -0.03    -0.03   0.01  -0.12     0.21   0.19   0.10
  12  15     0.07   0.08   0.06     0.08   0.08   0.11    -0.09  -0.04  -0.08
  13  16    -0.05  -0.22  -0.03    -0.03  -0.24   0.01     0.05   0.03  -0.08
  14   8     0.09  -0.00   0.07     0.03   0.07   0.09     0.06  -0.16  -0.02
  15   6     0.09   0.00   0.18     0.02   0.07   0.09     0.14  -0.14   0.16
  16   6    -0.02  -0.04  -0.14    -0.02   0.06  -0.03     0.07  -0.13  -0.09
  17   8     0.02   0.03  -0.03     0.05  -0.03   0.01    -0.09   0.08  -0.04
  18   6     0.15   0.01  -0.22     0.17   0.02  -0.27    -0.16   0.00   0.19
  19   6    -0.03  -0.08   0.10     0.03   0.00   0.08    -0.08  -0.03  -0.10
  20   1    -0.04  -0.01  -0.11     0.07   0.01   0.10     0.07   0.02   0.05
  21   1     0.00   0.12  -0.02     0.01  -0.16   0.01     0.01  -0.09  -0.01
  22   1     0.03   0.04   0.01    -0.03  -0.02  -0.01    -0.02   0.02  -0.01
  23   1     0.14  -0.01   0.12    -0.20  -0.01  -0.13    -0.14  -0.01  -0.08
  24   1     0.06  -0.18   0.06    -0.09   0.19  -0.06    -0.06   0.14  -0.05
  25   1    -0.03   0.12   0.04     0.04  -0.09  -0.00    -0.05   0.16   0.11
  26   1    -0.09   0.03   0.04     0.08   0.00  -0.01    -0.16  -0.02   0.11
  27   1     0.02  -0.07  -0.01     0.00   0.05   0.06     0.02  -0.11  -0.05
  28   1     0.08   0.01   0.01    -0.04  -0.03   0.06     0.13   0.04  -0.03
  29   1    -0.01  -0.02   0.01     0.03  -0.02   0.02    -0.00   0.02   0.03
  30   1    -0.03   0.05  -0.03    -0.02   0.05  -0.04    -0.03   0.06  -0.02
  31   1    -0.02   0.05   0.00    -0.01   0.04  -0.00    -0.00   0.06   0.01
  32   1    -0.02  -0.03   0.12    -0.01   0.01   0.05     0.01  -0.08   0.11
  33   1     0.10   0.03   0.08     0.03   0.02   0.03     0.11  -0.00   0.07
  34   1    -0.08  -0.04  -0.07    -0.03   0.02  -0.01    -0.04  -0.06  -0.05
  35   1    -0.01  -0.01  -0.02    -0.01   0.02  -0.01     0.03  -0.04   0.00
  36   1     0.05   0.01  -0.10     0.01   0.02  -0.02     0.06  -0.01  -0.08
  37   1     0.06   0.10  -0.12     0.07   0.12  -0.14    -0.05  -0.09   0.11
  38   1     0.10  -0.08  -0.13     0.09  -0.09  -0.15    -0.07   0.08   0.11
  39   1    -0.01  -0.10   0.08     0.01  -0.09   0.08    -0.03   0.06  -0.08
  40   1    -0.06   0.05   0.07    -0.04   0.08   0.08     0.01  -0.07  -0.08
  41   1     0.01  -0.03   0.00     0.02   0.01  -0.02    -0.03  -0.02   0.01
                     19                     20                     21
                        a                      a                      a 
 Frequencies --   156.6481               166.0010               182.0425
 Red. masses --    18.4207                16.2575                15.6133
 Frc consts  --     0.0000                 0.0000                 0.0000
 IR Inten    --     7.5396                 5.8786                 4.6665
 Raman Activ --     0.0000                 0.0000                 0.0000
 Depolar     --     0.0000                 0.0000                 0.0000
 Atom AN      X      Y      Z        X      Y      Z        X      Y      Z
   1   6    -0.03  -0.07   0.01     0.07   0.07  -0.03     0.05  -0.02  -0.01
   2   6     0.03   0.04  -0.05    -0.05  -0.09   0.06    -0.01  -0.04  -0.00
   3   8     0.04   0.15   0.02    -0.15  -0.22  -0.11    -0.03  -0.07  -0.04
   4  15     0.11  -0.05  -0.14    -0.26   0.06   0.00    -0.05  -0.03  -0.05
   5  16    -0.00   0.14   0.23     0.02   0.14  -0.13    -0.07   0.04   0.07
   6   8    -0.13  -0.14  -0.21     0.02   0.13   0.11    -0.11  -0.02  -0.07
   7   6    -0.06  -0.03  -0.12     0.17  -0.05  -0.11     0.02  -0.06  -0.15
   8   6    -0.07   0.12  -0.20     0.00  -0.06   0.10    -0.07   0.06  -0.12
   9  16     0.18  -0.24   0.19    -0.08  -0.03   0.22    -0.21  -0.15   0.31
  10   6     0.13   0.03   0.01     0.02  -0.13  -0.10    -0.01   0.53   0.03
  11  16    -0.08   0.07  -0.18     0.18   0.22  -0.02     0.17   0.21   0.05
  12  15    -0.04   0.14   0.06    -0.04   0.01  -0.16    -0.05  -0.09   0.04
  13  16    -0.07  -0.27  -0.11     0.04   0.02  -0.18     0.16   0.02   0.06
  14   8    -0.04  -0.02   0.16    -0.16  -0.06   0.03     0.13  -0.05  -0.09
  15   6     0.09   0.01   0.38     0.05  -0.03   0.22     0.05  -0.07  -0.18
  16   6    -0.03   0.07  -0.07     0.00   0.10  -0.05     0.07  -0.16  -0.03
  17   8    -0.06   0.14   0.01     0.12  -0.23  -0.00    -0.02  -0.08   0.05
  18   6     0.01   0.04   0.02    -0.06  -0.10   0.18    -0.02  -0.04  -0.02
  19   6    -0.04  -0.06  -0.03     0.12   0.09   0.04    -0.01  -0.00   0.01
  20   1    -0.01  -0.01   0.03     0.03   0.01  -0.04     0.03  -0.00  -0.01
  21   1    -0.01  -0.03   0.01     0.04   0.03  -0.03     0.02  -0.02  -0.01
  22   1    -0.01  -0.04  -0.01     0.03   0.05   0.03     0.01   0.01   0.00
  23   1     0.01   0.01  -0.04    -0.01  -0.02   0.04    -0.01  -0.01  -0.00
  24   1     0.01   0.02  -0.02    -0.03  -0.05   0.04    -0.01  -0.01   0.01
  25   1    -0.01  -0.01  -0.03     0.05  -0.11  -0.06     0.01  -0.07  -0.05
  26   1    -0.01  -0.02  -0.01     0.12   0.04  -0.08     0.05   0.01  -0.06
  27   1    -0.03   0.03  -0.07     0.00   0.08   0.06    -0.03   0.08  -0.03
  28   1    -0.03   0.04  -0.08    -0.06  -0.07   0.09    -0.07  -0.01  -0.01
  29   1    -0.00   0.06  -0.04     0.03  -0.07  -0.03     0.02   0.01  -0.05
  30   1     0.03   0.03  -0.01     0.02  -0.08   0.02    -0.07   0.26  -0.10
  31   1     0.07   0.02   0.02     0.00  -0.06  -0.08     0.07   0.23   0.14
  32   1    -0.03  -0.06   0.21    -0.02  -0.07   0.13     0.03   0.01  -0.09
  33   1     0.14   0.06   0.15     0.10   0.03   0.10    -0.03  -0.04  -0.07
  34   1    -0.12  -0.01  -0.06    -0.08   0.00  -0.04     0.07  -0.04   0.00
  35   1     0.01   0.02   0.01     0.04   0.03   0.02    -0.01  -0.05  -0.02
  36   1     0.06   0.07  -0.11     0.03   0.08  -0.07     0.01  -0.07   0.02
  37   1     0.02   0.01   0.01    -0.05  -0.11   0.08    -0.00   0.00  -0.01
  38   1     0.01   0.01   0.01    -0.06   0.04   0.10    -0.01  -0.02  -0.02
  39   1    -0.03  -0.01  -0.02     0.07   0.09  -0.01    -0.01  -0.02   0.01
  40   1    -0.02  -0.02  -0.02     0.08  -0.03  -0.02     0.00   0.01   0.02
  41   1     0.00  -0.04  -0.00    -0.01   0.06   0.04    -0.00   0.01  -0.01
                     22                     23                     24
                        a                      a                      a 
 Frequencies --   217.7555               240.6607               253.6959
 Red. masses --    18.4939                19.9522                19.8100
 Frc consts  --     0.0000                 0.0000                 0.0000
 IR Inten    --     1.2292                18.4271                15.8123
 Raman Activ --     0.0000                 0.0000                 0.0000
 Depolar     --     0.0000                 0.0000                 0.0000
 Atom AN      X      Y      Z        X      Y      Z        X      Y      Z
   1   6    -0.08  -0.03   0.08    -0.12  -0.00   0.16     0.06   0.01  -0.08
   2   6     0.07   0.11   0.00     0.03   0.11   0.10     0.03  -0.04  -0.04
   3   8     0.09   0.26   0.08    -0.11   0.30   0.02     0.02  -0.02  -0.02
   4  15     0.19  -0.03  -0.06    -0.06  -0.09  -0.23    -0.01   0.04   0.08
   5  16     0.01  -0.05   0.07     0.07   0.20   0.04    -0.00  -0.04  -0.03
   6   8     0.06  -0.07  -0.09     0.26   0.10  -0.02    -0.08  -0.10   0.02
   7   6    -0.05   0.02   0.03     0.07   0.10   0.07    -0.03  -0.05   0.04
   8   6    -0.01   0.03  -0.01     0.07  -0.09   0.18    -0.01   0.04  -0.03
   9  16    -0.27  -0.06  -0.10    -0.21  -0.42  -0.05     0.18   0.14   0.02
  10   6    -0.20   0.06   0.13    -0.07  -0.13  -0.23     0.06  -0.19  -0.02
  11  16    -0.27   0.01   0.20     0.16   0.22  -0.11    -0.20   0.37  -0.11
  12  15    -0.06   0.00  -0.18    -0.04   0.02   0.09    -0.40   0.13   0.12
  13  16     0.09   0.11  -0.20     0.04  -0.06   0.07     0.22  -0.06  -0.01
  14   8    -0.06  -0.00  -0.13     0.05  -0.03   0.05     0.09  -0.00  -0.07
  15   6     0.04   0.01   0.11     0.02  -0.04  -0.08     0.11  -0.02  -0.08
  16   6     0.01   0.02  -0.00     0.04  -0.09  -0.01     0.09  -0.19  -0.03
  17   8     0.20  -0.35   0.04    -0.06   0.02   0.04    -0.10  -0.17   0.28
  18   6     0.11  -0.17  -0.01    -0.04   0.02  -0.01    -0.02  -0.06  -0.03
  19   6     0.26   0.10   0.12    -0.07  -0.02  -0.03     0.03   0.03   0.01
  20   1    -0.04  -0.01   0.05    -0.12  -0.02   0.07     0.01  -0.00  -0.04
  21   1    -0.04  -0.01   0.05    -0.03   0.06   0.04     0.03   0.02  -0.04
  22   1    -0.03  -0.05  -0.01     0.01  -0.08   0.04     0.03   0.01  -0.00
  23   1     0.03   0.03  -0.02     0.06   0.05   0.02     0.01  -0.01  -0.01
  24   1     0.03   0.03  -0.01     0.00  -0.01   0.04     0.01  -0.02  -0.01
  25   1    -0.02   0.05   0.01     0.00   0.07   0.01    -0.01  -0.01   0.02
  26   1    -0.04  -0.02   0.04    -0.01   0.01   0.04    -0.01  -0.02   0.02
  27   1     0.01  -0.05   0.00     0.06  -0.11   0.09    -0.01  -0.01  -0.02
  28   1     0.03   0.04  -0.05     0.07   0.01   0.02    -0.00   0.03  -0.04
  29   1    -0.04   0.04   0.03    -0.07  -0.02   0.07     0.00   0.03   0.01
  30   1    -0.07   0.04   0.02    -0.04  -0.07  -0.03     0.05  -0.14   0.08
  31   1    -0.05   0.03   0.06     0.00  -0.05  -0.10     0.00  -0.11  -0.11
  32   1    -0.01  -0.05   0.08     0.02   0.02  -0.05     0.03   0.00  -0.03
  33   1     0.06   0.05   0.06    -0.02  -0.04  -0.04     0.01  -0.01  -0.03
  34   1    -0.04  -0.04  -0.03     0.05   0.02   0.02     0.06  -0.05   0.00
  35   1     0.02   0.00   0.05    -0.02  -0.02  -0.06    -0.03  -0.06  -0.02
  36   1     0.02   0.06  -0.05     0.00  -0.08   0.03     0.04  -0.11   0.01
  37   1     0.01  -0.04  -0.02    -0.00   0.02  -0.01     0.03   0.04  -0.03
  38   1     0.01  -0.05  -0.02    -0.01  -0.00  -0.01    -0.02  -0.07  -0.06
  39   1     0.12   0.03   0.06    -0.04  -0.02  -0.01    -0.10  -0.14   0.05
  40   1     0.11   0.04   0.06    -0.03   0.01   0.00     0.07   0.14   0.14
  41   1     0.03   0.10   0.02    -0.00  -0.02  -0.02     0.08   0.04  -0.19
                     25                     26                     27
                        a                      a                      a 
 Frequencies --   235.7157               228.2569               220.2721
 Red. masses --    10.9211                 7.8893                 4.4247
 Frc consts  --     0.0000                 0.0000                 0.0000
 IR Inten    --     7.5724                 6.3011                 1.5894
 Raman Activ --     0.0000                 0.0000                 0.0000
 Depolar     --     0.0000                 0.0000                 0.0000
 Atom AN      X      Y      Z        X      Y      Z        X      Y      Z
   1   6    -0.15  -0.04   0.14     0.02   0.02  -0.03    -0.10  -0.02   0.08
   2   6    -0.10   0.06   0.07     0.05  -0.00  -0.01    -0.10  -0.02   0.08
   3   8     0.16  -0.17   0.20     0.08  -0.00   0.03     0.03  -0.21   0.07
   4  15     0.24  -0.03  -0.01     0.09   0.08   0.08     0.05   0.06  -0.08
   5  16    -0.09  -0.15   0.17    -0.01  -0.05  -0.02    -0.11   0.03  -0.03
   6   8     0.06   0.36  -0.05    -0.04  -0.10  -0.01     0.10   0.06  -0.04
   7   6    -0.01   0.15  -0.23     0.00  -0.11  -0.04     0.12  -0.04  -0.15
   8   6    -0.04  -0.00  -0.12    -0.05   0.03  -0.06    -0.02  -0.01   0.01
   9  16    -0.06  -0.02  -0.09    -0.16   0.14   0.11     0.03   0.06   0.07
  10   6    -0.05  -0.12  -0.08    -0.07  -0.05  -0.04     0.03  -0.00  -0.01
  11  16     0.01   0.08  -0.02    -0.03   0.15  -0.01     0.05  -0.03  -0.02
  12  15    -0.03   0.04   0.02     0.11   0.11  -0.03    -0.03  -0.04   0.02
  13  16     0.02  -0.02  -0.00    -0.08  -0.06  -0.09     0.03   0.01   0.05
  14   8     0.01  -0.02   0.03    -0.02  -0.12   0.24     0.02   0.04  -0.08
  15   6     0.02  -0.02  -0.02     0.02  -0.12   0.03    -0.01   0.04  -0.01
  16   6     0.02  -0.04  -0.01     0.02  -0.09  -0.02    -0.00   0.03   0.01
  17   8    -0.01  -0.01   0.02     0.06   0.01  -0.11    -0.02  -0.01   0.03
  18   6    -0.00   0.00   0.00     0.03   0.00  -0.01    -0.02   0.00  -0.00
  19   6     0.00   0.01  -0.00     0.03   0.03   0.02    -0.03  -0.01  -0.01
  20   1     0.16   0.05   0.06     0.07   0.02  -0.02     0.19   0.05   0.02
  21   1    -0.12  -0.20   0.17    -0.02  -0.04   0.03    -0.10  -0.18   0.14
  22   1    -0.20   0.09  -0.09    -0.04   0.04  -0.04    -0.19   0.12  -0.09
  23   1    -0.12  -0.02   0.01     0.01  -0.00  -0.00    -0.08  -0.02   0.02
  24   1    -0.01   0.10  -0.02     0.02   0.00  -0.01    -0.02   0.04   0.00
  25   1    -0.00  -0.00  -0.08     0.00  -0.04  -0.02     0.03  -0.04  -0.07
  26   1     0.02   0.07  -0.11     0.02  -0.03  -0.01     0.07   0.01  -0.06
  27   1    -0.07   0.23  -0.07     0.03  -0.14   0.02     0.13  -0.37   0.13
  28   1    -0.10  -0.13   0.17     0.03   0.10  -0.17     0.12   0.20  -0.32
  29   1     0.14  -0.14  -0.20    -0.12   0.11   0.10    -0.33   0.19   0.25
  30   1     0.00  -0.07   0.02     0.01  -0.06   0.03     0.02  -0.00  -0.00
  31   1    -0.03  -0.06  -0.07    -0.03  -0.04  -0.06     0.00  -0.00  -0.01
  32   1     0.01   0.00  -0.02     0.01   0.01  -0.02    -0.00  -0.00   0.00
  33   1    -0.00  -0.02  -0.01    -0.01  -0.08  -0.01     0.00   0.03   0.00
  34   1     0.03   0.02   0.02     0.12   0.30   0.17    -0.04  -0.12  -0.07
  35   1    -0.01  -0.01  -0.05    -0.11  -0.01  -0.40     0.04   0.00   0.16
  36   1     0.01  -0.06   0.02    -0.00  -0.36   0.18     0.00   0.15  -0.07
  37   1     0.00   0.00  -0.00    -0.01  -0.02   0.00    -0.00   0.01  -0.00
  38   1    -0.00  -0.00  -0.00     0.01   0.02   0.01    -0.01  -0.00  -0.01
  39   1    -0.01  -0.01   0.00     0.12   0.12  -0.02    -0.04  -0.04   0.00
  40   1     0.00   0.01   0.01    -0.03  -0.10  -0.10     0.00   0.03   0.03
  41   1     0.01   0.00  -0.01    -0.07   0.00   0.16     0.02  -0.00  -0.05
                     28                     29                     30
                        a                      a                      a 
 Frequencies --   252.1537               272.2835               257.9107
 Red. masses --     9.6935                14.4012                 5.8713
 Frc consts  --     0.0000                 0.0000                 0.0000
 IR Inten    --     1.0691                12.3428                 1.7429
 Raman Activ --     0.0000                 0.0000                 0.0000
 Depolar     --     0.0000                 0.0000                 0.0000
 Atom AN      X      Y      Z        X      Y      Z        X      Y      Z
   1   6     0.05   0.01  -0.06     0.06   0.01  -0.07     0.05  -0.00  -0.08
   2   6     0.11   0.02  -0.05     0.12   0.02  -0.06     0.18  -0.13   0.04
   3   8     0.09   0.12   0.02     0.10   0.15   0.02    -0.09   0.18  -0.04
   4  15     0.10   0.06   0.13     0.11   0.08   0.15    -0.12   0.05  -0.06
   5  16     0.02  -0.09   0.02     0.04  -0.09   0.02    -0.01   0.16  -0.12
   6   8    -0.07  -0.10   0.01    -0.08  -0.11   0.02    -0.03  -0.22  -0.01
   7   6    -0.06  -0.07   0.01    -0.06  -0.09  -0.00    -0.04  -0.02   0.21
   8   6    -0.04   0.06  -0.09    -0.05   0.06  -0.11     0.06  -0.03   0.12
   9  16    -0.23   0.08   0.11    -0.35   0.07   0.15     0.03  -0.08  -0.00
  10   6    -0.09  -0.15  -0.16    -0.12  -0.11  -0.20     0.02   0.03   0.02
  11  16     0.08   0.13  -0.10     0.27  -0.02  -0.01    -0.01  -0.00   0.00
  12  15     0.03   0.01   0.13     0.12  -0.13  -0.09    -0.01  -0.00  -0.00
  13  16     0.04  -0.07   0.16    -0.06   0.04  -0.02     0.00   0.00  -0.00
  14   8     0.10   0.10  -0.04    -0.11  -0.10   0.06     0.00   0.01  -0.01
  15   6     0.03   0.08  -0.09    -0.07  -0.09  -0.01     0.00   0.01   0.01
  16   6     0.03  -0.04   0.01    -0.03   0.08   0.01    -0.00   0.00  -0.00
  17   8    -0.02  -0.13  -0.04     0.02   0.18  -0.02    -0.00  -0.00  -0.00
  18   6    -0.07  -0.03  -0.11     0.02   0.08   0.12    -0.00  -0.00  -0.00
  19   6    -0.10  -0.02  -0.03     0.01  -0.01  -0.00    -0.00   0.00  -0.00
  20   1     0.02   0.00  -0.02     0.02   0.00  -0.02     0.43   0.10  -0.10
  21   1     0.01   0.01  -0.01     0.01  -0.00  -0.00    -0.14  -0.31   0.22
  22   1     0.01   0.00  -0.02     0.00   0.01  -0.03    -0.31   0.27  -0.24
  23   1     0.05   0.01  -0.01     0.06   0.01  -0.02     0.14  -0.00   0.03
  24   1     0.03  -0.01  -0.02     0.04  -0.01  -0.02     0.05  -0.12   0.03
  25   1    -0.01  -0.02   0.01    -0.01  -0.03   0.01    -0.01   0.06   0.08
  26   1    -0.01  -0.02   0.01    -0.01  -0.03   0.00    -0.05  -0.04   0.10
  27   1    -0.03   0.04  -0.05    -0.03   0.03  -0.05    -0.03   0.09  -0.01
  28   1    -0.03   0.01  -0.03    -0.03   0.03  -0.06    -0.00  -0.06   0.13
  29   1     0.04   0.03  -0.02     0.02   0.05  -0.01     0.11  -0.07  -0.04
  30   1     0.01  -0.11   0.02     0.00  -0.08  -0.01    -0.01   0.02  -0.01
  31   1    -0.05  -0.09  -0.13    -0.06  -0.06  -0.10     0.02   0.02   0.02
  32   1     0.01   0.04  -0.04    -0.01  -0.02  -0.02    -0.00  -0.00   0.01
  33   1    -0.01   0.02  -0.03    -0.02  -0.04  -0.01     0.00   0.00   0.00
  34   1    -0.04  -0.24  -0.11    -0.04  -0.02  -0.02     0.00   0.01   0.00
  35   1     0.05  -0.02   0.27     0.06   0.02   0.06    -0.01   0.00  -0.02
  36   1     0.02   0.20  -0.11    -0.03   0.11  -0.02     0.00  -0.01   0.00
  37   1    -0.03  -0.01  -0.04     0.01   0.00   0.05    -0.00  -0.00  -0.00
  38   1    -0.02  -0.01  -0.03     0.01   0.04   0.05    -0.00  -0.00  -0.00
  39   1     0.18   0.22  -0.06    -0.23  -0.23   0.04     0.00   0.00  -0.00
  40   1    -0.12  -0.21  -0.23     0.08   0.20   0.21     0.00  -0.00  -0.00
  41   1    -0.17  -0.03   0.30     0.16   0.00  -0.31    -0.00   0.00   0.00
                     31                     32                     33
                        a                      a                      a 
 Frequencies --   304.7739               338.5836               351.3980
 Red. masses --    11.7254                16.4923                18.3897
 Frc consts  --     0.0000                 0.0000                 0.0000
 IR Inten    --    12.4247                10.0376                 7.7972
 Raman Activ --     0.0000                 0.0000                 0.0000
 Depolar     --     0.0000                 0.0000                 0.0000
 Atom AN      X      Y      Z        X      Y      Z        X      Y      Z
   1   6     0.01  -0.00  -0.01     0.03   0.00  -0.04     0.14   0.02  -0.16
   2   6     0.02   0.01  -0.01     0.04  -0.02  -0.02     0.09  -0.10  -0.06
   3   8     0.02   0.03   0.00    -0.02   0.09   0.01    -0.14   0.33   0.03
   4  15     0.02   0.01   0.03    -0.04  -0.01   0.09    -0.20  -0.13   0.28
   5  16     0.00  -0.03   0.01     0.04  -0.05   0.05     0.18  -0.15   0.15
   6   8    -0.00  -0.01   0.01    -0.02   0.09   0.06    -0.09   0.38   0.22
   7   6    -0.01  -0.02  -0.01    -0.00  -0.01  -0.06     0.03   0.02  -0.20
   8   6    -0.01   0.01  -0.03    -0.03   0.02  -0.05    -0.07   0.03  -0.12
   9  16    -0.09   0.01   0.03    -0.02  -0.06  -0.02     0.08  -0.21  -0.24
  10   6    -0.03  -0.02  -0.04     0.00  -0.04  -0.10    -0.00   0.02   0.04
  11  16     0.10  -0.15  -0.03     0.22  -0.12   0.00    -0.10  -0.01   0.03
  12  15     0.08  -0.03   0.06    -0.36  -0.25  -0.05     0.06   0.10   0.02
  13  16     0.04   0.01   0.12     0.10   0.10   0.03    -0.02  -0.02  -0.03
  14   8     0.27   0.29  -0.32    -0.01  -0.04  -0.34    -0.01   0.02   0.10
  15   6     0.07   0.28   0.22    -0.07  -0.03   0.13     0.02   0.02  -0.04
  16   6    -0.04   0.10   0.03    -0.07   0.14   0.03     0.02  -0.05  -0.01
  17   8     0.03  -0.31  -0.05    -0.19   0.24   0.29     0.04  -0.06  -0.07
  18   6    -0.27  -0.06   0.01     0.21   0.06  -0.08    -0.05  -0.02   0.02
  19   6    -0.24  -0.04  -0.10     0.15   0.01   0.04    -0.03  -0.00  -0.00
  20   1    -0.00  -0.00  -0.00     0.03   0.00  -0.03     0.12   0.02  -0.10
  21   1     0.00   0.00  -0.00     0.01  -0.01  -0.01     0.03  -0.03  -0.03
  22   1     0.01  -0.00  -0.00    -0.00   0.02  -0.01    -0.01   0.10  -0.04
  23   1     0.01   0.00  -0.00     0.03   0.00  -0.01     0.11  -0.00  -0.02
  24   1     0.01  -0.00  -0.00     0.01  -0.02  -0.00     0.02  -0.10   0.00
  25   1    -0.00  -0.01  -0.00     0.00  -0.03  -0.02     0.02  -0.11  -0.07
  26   1    -0.00  -0.00  -0.00     0.01   0.01  -0.04     0.07   0.07  -0.14
  27   1    -0.01   0.01  -0.01    -0.00  -0.02  -0.01     0.02  -0.07   0.00
  28   1    -0.01   0.01  -0.01    -0.01   0.02  -0.05    -0.01   0.06  -0.13
  29   1     0.00   0.01  -0.00    -0.02   0.03   0.01    -0.09   0.06   0.03
  30   1     0.00  -0.01  -0.02     0.00  -0.01  -0.03    -0.03   0.03  -0.02
  31   1    -0.02  -0.01  -0.01    -0.00  -0.01  -0.02     0.02   0.02   0.04
  32   1    -0.03   0.01   0.15    -0.04  -0.08   0.10     0.01   0.02  -0.03
  33   1     0.08   0.18   0.11     0.03   0.07   0.08    -0.01  -0.02  -0.02
  34   1     0.01   0.19   0.08    -0.03   0.17   0.06     0.01  -0.05  -0.02
  35   1    -0.11   0.03  -0.20     0.00   0.05  -0.13    -0.01  -0.02   0.03
  36   1     0.03  -0.17   0.07    -0.03  -0.04   0.05     0.01  -0.00  -0.01
  37   1    -0.11  -0.07   0.02     0.13   0.13  -0.06    -0.03  -0.03   0.01
  38   1    -0.10   0.02   0.03     0.08  -0.08  -0.10    -0.02   0.02   0.02
  39   1    -0.16  -0.08  -0.03     0.16   0.09   0.01    -0.03  -0.02  -0.00
  40   1    -0.04   0.04   0.03    -0.01  -0.08  -0.08     0.01   0.01   0.02
  41   1    -0.01  -0.02  -0.12    -0.03  -0.00   0.16     0.00   0.00  -0.03
                     34                     35                     36
                        a                      a                      a 
 Frequencies --   413.7247               417.1456               435.1863
 Red. masses --    15.8051                16.7991                24.1716
 Frc consts  --     0.0000                 0.0000                 0.0000
 IR Inten    --    48.8173                11.1968                57.7016
 Raman Activ --     0.0000                 0.0000                 0.0000
 Depolar     --     0.0000                 0.0000                 0.0000
 Atom AN      X      Y      Z        X      Y      Z        X      Y      Z
   1   6     0.11   0.01  -0.17    -0.00  -0.00  -0.00     0.02   0.00  -0.03
   2   6    -0.07  -0.10  -0.09     0.00   0.01  -0.01     0.00  -0.02  -0.01
   3   8     0.13  -0.00   0.30     0.02  -0.01   0.01    -0.14   0.18  -0.02
   4  15     0.19   0.24   0.10     0.02   0.03   0.00    -0.07  -0.40  -0.29
   5  16    -0.11   0.08  -0.05    -0.01   0.01  -0.01     0.17  -0.23   0.22
   6   8    -0.51  -0.05  -0.17    -0.03  -0.02  -0.01    -0.21  -0.00  -0.22
   7   6     0.14   0.22  -0.02     0.00   0.01   0.01     0.11   0.22  -0.08
   8   6     0.13  -0.12   0.24     0.00  -0.00   0.01     0.08  -0.08   0.15
   9  16    -0.05  -0.26  -0.10    -0.05  -0.01   0.03    -0.03   0.45   0.21
  10   6    -0.01  -0.02  -0.03    -0.02  -0.02  -0.05    -0.05   0.02   0.02
  11  16    -0.03   0.05   0.01     0.28  -0.34   0.00     0.08  -0.06  -0.01
  12  15     0.03  -0.04  -0.01    -0.20   0.21   0.10    -0.02   0.03  -0.01
  13  16     0.00  -0.01   0.03    -0.03   0.02  -0.06    -0.00   0.03  -0.06
  14   8     0.01  -0.00  -0.02    -0.29   0.21   0.08    -0.05   0.00   0.02
  15   6    -0.00  -0.01   0.00     0.21   0.25  -0.03     0.01   0.01  -0.01
  16   6    -0.00   0.01  -0.00     0.12  -0.25  -0.03     0.01  -0.02  -0.00
  17   8    -0.00   0.00  -0.01    -0.23   0.13  -0.20     0.05  -0.04   0.10
  18   6    -0.00   0.00   0.00    -0.01  -0.21   0.00     0.01   0.07   0.00
  19   6    -0.00  -0.00  -0.00     0.17   0.06   0.09    -0.05  -0.01  -0.03
  20   1     0.02  -0.01  -0.09    -0.01  -0.00   0.00     0.03   0.00  -0.02
  21   1     0.08   0.03  -0.12     0.00   0.00  -0.00     0.00  -0.01  -0.01
  22   1     0.07   0.04   0.03     0.00  -0.01  -0.00    -0.01   0.03  -0.01
  23   1    -0.07  -0.05  -0.04    -0.00  -0.00  -0.00     0.04   0.01  -0.01
  24   1    -0.00   0.03  -0.07     0.00   0.01  -0.00    -0.01  -0.04   0.02
  25   1     0.06  -0.00   0.01     0.00   0.00   0.00     0.04   0.03  -0.02
  26   1     0.07   0.08  -0.02     0.00   0.00   0.00     0.05   0.06  -0.02
  27   1     0.10  -0.09   0.16     0.00  -0.00   0.01     0.07  -0.06   0.12
  28   1     0.10  -0.05   0.13     0.00  -0.00   0.01     0.07  -0.04   0.10
  29   1    -0.10  -0.12   0.02    -0.00  -0.00   0.00    -0.09  -0.10  -0.01
  30   1    -0.03   0.00  -0.01     0.00   0.02  -0.04     0.05  -0.03   0.03
  31   1     0.01   0.00   0.00    -0.02   0.01   0.02    -0.05  -0.02  -0.04
  32   1    -0.00  -0.01   0.01     0.06   0.04   0.01     0.00   0.00  -0.00
  33   1     0.00   0.00   0.00     0.07   0.07  -0.01     0.01  -0.00  -0.00
  34   1    -0.00   0.01   0.00     0.10  -0.15  -0.03     0.01  -0.01  -0.00
  35   1     0.00   0.00  -0.01    -0.15  -0.09   0.03    -0.01  -0.01   0.00
  36   1    -0.00   0.00   0.00     0.10  -0.17  -0.02     0.01  -0.01  -0.00
  37   1    -0.00  -0.00   0.00    -0.00  -0.08   0.01     0.01   0.03  -0.01
  38   1     0.00   0.00   0.00     0.01  -0.03   0.03    -0.00   0.01  -0.01
  39   1     0.00   0.00  -0.00     0.11   0.01   0.06    -0.03  -0.00  -0.02
  40   1     0.00  -0.00  -0.00     0.13   0.04   0.07    -0.04  -0.01  -0.02
  41   1    -0.00  -0.00   0.00    -0.02   0.12  -0.02     0.00  -0.04   0.01
                     37                     38                     39
                        a                      a                      a 
 Frequencies --   432.4689               468.7558               481.9954
 Red. masses --    17.4856                12.9529                19.9650
 Frc consts  --     0.0000                 0.0000                 0.0000
 IR Inten    --    52.3681                46.5905               134.9760
 Raman Activ --     0.0000                 0.0000                 0.0000
 Depolar     --     0.0000                 0.0000                 0.0000
 Atom AN      X      Y      Z        X      Y      Z        X      Y      Z
   1   6     0.00   0.00  -0.00    -0.13  -0.03   0.20    -0.00  -0.00   0.01
   2   6    -0.00  -0.01   0.00     0.31   0.31  -0.01     0.02   0.02  -0.00
   3   8    -0.04   0.04  -0.01     0.10  -0.17  -0.54     0.02  -0.01  -0.02
   4  15    -0.03  -0.10  -0.07    -0.05   0.08   0.17     0.01   0.02   0.02
   5  16     0.04  -0.06   0.06     0.05  -0.07   0.04    -0.00  -0.00  -0.00
   6   8    -0.02   0.02  -0.04    -0.38   0.03   0.03    -0.05  -0.01  -0.01
   7   6     0.01   0.04  -0.02     0.05   0.08  -0.02     0.01   0.01  -0.00
   8   6     0.01  -0.01   0.02     0.04  -0.04   0.07     0.01  -0.01   0.01
   9  16     0.05   0.10   0.03     0.02  -0.08  -0.07    -0.02  -0.01   0.01
  10   6     0.02   0.01  -0.01     0.03  -0.00   0.01    -0.03  -0.02   0.01
  11  16    -0.17   0.25  -0.05    -0.02   0.03  -0.00     0.21  -0.23   0.02
  12  15     0.08  -0.19   0.03     0.02  -0.03  -0.01    -0.22   0.39   0.16
  13  16    -0.01  -0.11   0.31     0.00  -0.01   0.02    -0.02   0.06  -0.28
  14   8     0.20  -0.02  -0.15    -0.03   0.01  -0.01     0.52  -0.15   0.15
  15   6    -0.07  -0.04   0.03     0.01   0.01  -0.00    -0.16  -0.17  -0.01
  16   6    -0.05   0.10   0.01     0.01  -0.01  -0.00    -0.11   0.17   0.01
  17   8    -0.25   0.21  -0.45     0.01   0.00   0.00    -0.11  -0.07  -0.02
  18   6    -0.03  -0.30  -0.00     0.01   0.01   0.00    -0.08  -0.17  -0.03
  19   6     0.23   0.06   0.12    -0.00  -0.00  -0.00     0.04   0.01   0.02
  20   1     0.01   0.00  -0.00    -0.09   0.00   0.17    -0.01  -0.00   0.01
  21   1    -0.00  -0.00   0.00    -0.12  -0.03   0.19    -0.01  -0.00   0.01
  22   1    -0.00   0.01  -0.00    -0.08  -0.16  -0.11    -0.00  -0.01  -0.01
  23   1     0.01   0.00   0.00     0.12   0.10   0.03     0.00   0.01   0.00
  24   1    -0.00  -0.01   0.01     0.06   0.01   0.04     0.01   0.00  -0.00
  25   1     0.01   0.01  -0.01     0.04  -0.05   0.01     0.00  -0.00   0.00
  26   1     0.01   0.01  -0.01     0.05   0.06  -0.04     0.01   0.01  -0.00
  27   1     0.01  -0.01   0.02     0.04  -0.05   0.06     0.01  -0.01   0.01
  28   1     0.01  -0.01   0.01     0.04  -0.01   0.04     0.01  -0.00   0.01
  29   1    -0.02  -0.02  -0.00    -0.05  -0.04   0.01    -0.01  -0.01  -0.00
  30   1     0.02  -0.04   0.04    -0.01   0.01  -0.01    -0.00   0.02  -0.03
  31   1    -0.00  -0.02  -0.05     0.02   0.01   0.01    -0.01   0.01   0.03
  32   1    -0.03  -0.02   0.02     0.00  -0.00   0.00    -0.04   0.06  -0.07
  33   1    -0.02   0.02   0.02     0.01   0.01   0.00    -0.10  -0.10  -0.04
  34   1    -0.04   0.06   0.01     0.00  -0.00  -0.00    -0.09   0.09   0.01
  35   1     0.04   0.03  -0.02    -0.01  -0.00  -0.00     0.12   0.06  -0.00
  36   1    -0.03   0.05   0.01     0.00  -0.01   0.00    -0.09   0.15   0.01
  37   1    -0.03  -0.14   0.03     0.00   0.00  -0.00    -0.02  -0.05  -0.00
  38   1     0.01  -0.02   0.07     0.00   0.00  -0.00    -0.02  -0.03   0.00
  39   1     0.14   0.00   0.08    -0.00  -0.00  -0.00     0.05   0.00   0.02
  40   1     0.18   0.06   0.11    -0.00  -0.00  -0.00     0.05   0.01   0.03
  41   1    -0.02   0.16  -0.04     0.00  -0.00   0.00    -0.03   0.06  -0.01
                     40                     41                     42
                        a                      a                      a 
 Frequencies --   611.7104               627.7001               667.9465
 Red. masses --    25.2298                24.2552                18.3962
 Frc consts  --     0.0000                 0.0000                 0.0000
 IR Inten    --   162.3569               202.3936                16.7899
 Raman Activ --     0.0000                 0.0000                 0.0000
 Depolar     --     0.0000                 0.0000                 0.0000
 Atom AN      X      Y      Z        X      Y      Z        X      Y      Z
   1   6     0.00   0.00  -0.00     0.02  -0.01  -0.05     0.00  -0.00  -0.00
   2   6     0.01   0.01  -0.00     0.20   0.12  -0.08     0.02   0.01  -0.01
   3   8     0.02  -0.00   0.02     0.33  -0.03   0.22     0.03  -0.01   0.02
   4  15     0.00  -0.02   0.00    -0.05  -0.58  -0.02    -0.03  -0.02  -0.02
   5  16    -0.01   0.03  -0.02    -0.21   0.39  -0.24    -0.00  -0.00  -0.00
   6   8    -0.01   0.00   0.02    -0.16   0.14   0.22    -0.01  -0.01   0.01
   7   6    -0.00  -0.01   0.01    -0.02  -0.08   0.07    -0.00  -0.00   0.00
   8   6     0.00  -0.00   0.00     0.01  -0.01   0.01     0.00   0.00   0.00
   9  16    -0.02  -0.00  -0.01     0.06   0.07   0.04     0.11   0.03   0.09
  10   6    -0.10  -0.04   0.18    -0.13   0.02  -0.00     0.20   0.09  -0.72
  11  16     0.14  -0.08  -0.09     0.01   0.01  -0.02    -0.25  -0.14   0.44
  12  15    -0.27   0.46  -0.24     0.02  -0.04   0.02    -0.04   0.18  -0.08
  13  16     0.08  -0.22   0.49    -0.01   0.02  -0.03     0.02  -0.05   0.10
  14   8    -0.12  -0.10  -0.23     0.01   0.01   0.01    -0.02  -0.02  -0.05
  15   6    -0.05  -0.17  -0.02     0.00   0.00   0.00    -0.01  -0.06  -0.00
  16   6     0.01  -0.01  -0.00    -0.00   0.00  -0.00     0.00  -0.01  -0.00
  17   8     0.25  -0.04  -0.20    -0.01   0.01   0.01     0.04  -0.05  -0.03
  18   6     0.09   0.14   0.02    -0.01  -0.01  -0.00     0.01   0.02   0.01
  19   6     0.00  -0.00   0.00    -0.00   0.00  -0.00     0.00  -0.00   0.00
  20   1    -0.00  -0.00   0.00    -0.03  -0.01   0.01    -0.00  -0.00   0.00
  21   1    -0.00   0.00   0.00    -0.02   0.01   0.03    -0.00   0.00   0.00
  22   1     0.00  -0.00  -0.00    -0.00  -0.06  -0.07    -0.00  -0.01  -0.01
  23   1    -0.00  -0.00  -0.00    -0.01   0.01  -0.03    -0.00   0.00  -0.00
  24   1     0.00   0.01  -0.00     0.08   0.09  -0.06     0.01   0.01  -0.01
  25   1     0.00  -0.01   0.00     0.01  -0.10   0.02     0.00  -0.00   0.00
  26   1     0.00   0.00  -0.00     0.04   0.02  -0.04    -0.00  -0.00   0.00
  27   1    -0.00  -0.00  -0.00    -0.01  -0.00  -0.03    -0.00  -0.00   0.00
  28   1     0.00   0.00  -0.00     0.00   0.01  -0.03     0.00   0.00  -0.00
  29   1     0.00   0.00   0.00     0.03   0.03   0.03     0.00   0.00   0.00
  30   1    -0.01   0.02   0.01    -0.00  -0.01   0.01     0.01   0.04  -0.19
  31   1    -0.01  -0.00   0.06    -0.04  -0.01  -0.03     0.05   0.06  -0.11
  32   1    -0.01  -0.09   0.01     0.00   0.00  -0.00    -0.00  -0.02   0.00
  33   1     0.00  -0.01   0.01     0.00   0.00   0.00    -0.00  -0.01   0.00
  34   1    -0.01   0.03   0.01     0.00  -0.00  -0.00    -0.01   0.01   0.00
  35   1     0.06   0.00  -0.02    -0.00   0.00   0.00     0.02   0.00  -0.01
  36   1    -0.03   0.03   0.01     0.00  -0.00  -0.00    -0.01   0.01   0.00
  37   1    -0.02  -0.02   0.02     0.00   0.00  -0.00    -0.01  -0.01   0.00
  38   1     0.03   0.09   0.05    -0.00  -0.00  -0.00     0.00   0.01   0.01
  39   1    -0.04  -0.02  -0.01     0.00   0.00   0.00    -0.01  -0.00  -0.00
  40   1    -0.05   0.00  -0.01     0.00   0.00   0.00    -0.01   0.00  -0.00
  41   1     0.05  -0.06   0.01    -0.00   0.00  -0.00     0.01  -0.01   0.00
                     43                     44                     45
                        a                      a                      a 
 Frequencies --   701.8771               734.4866               739.6989
 Red. masses --    16.9922                18.9528                18.7549
 Frc consts  --     0.0000                 0.0000                 0.0000
 IR Inten    --    33.9941               304.9969                49.6769
 Raman Activ --     0.0000                 0.0000                 0.0000
 Depolar     --     0.0000                 0.0000                 0.0000
 Atom AN      X      Y      Z        X      Y      Z        X      Y      Z
   1   6     0.00   0.00  -0.01     0.02  -0.00  -0.03     0.02  -0.00  -0.03
   2   6     0.02   0.01  -0.01     0.09   0.05  -0.02     0.10   0.05  -0.02
   3   8     0.00   0.01   0.03     0.13  -0.03   0.10     0.14  -0.03   0.10
   4  15     0.03  -0.12  -0.01    -0.27  -0.03   0.20    -0.34  -0.07   0.36
   5  16    -0.03   0.06  -0.03    -0.00   0.01  -0.01    -0.01   0.05  -0.04
   6   8    -0.02   0.03   0.02     0.17  -0.14  -0.16     0.27  -0.22  -0.25
   7   6    -0.01  -0.01   0.02     0.04   0.14  -0.14     0.06   0.23  -0.22
   8   6     0.00  -0.00   0.00    -0.03   0.01  -0.04    -0.05   0.02  -0.07
   9  16    -0.48   0.06  -0.14    -0.02   0.00  -0.00    -0.00   0.01   0.00
  10   6     0.79  -0.02   0.16     0.06  -0.00  -0.01    -0.01  -0.00   0.03
  11  16    -0.03  -0.03   0.03    -0.01   0.01   0.02     0.01  -0.01  -0.02
  12  15    -0.01   0.06  -0.02    -0.41  -0.30  -0.03     0.28   0.20  -0.04
  13  16     0.00  -0.01   0.02     0.00   0.01  -0.01     0.00  -0.02   0.03
  14   8    -0.00  -0.00  -0.01     0.20   0.02   0.25    -0.13  -0.02  -0.14
  15   6    -0.00  -0.01   0.00     0.06   0.21   0.04    -0.03  -0.12  -0.02
  16   6     0.00  -0.00   0.00    -0.04   0.05   0.01     0.03  -0.03  -0.01
  17   8    -0.02  -0.00   0.02     0.23  -0.03  -0.27    -0.16   0.02   0.20
  18   6    -0.01  -0.01   0.00     0.13   0.18  -0.01    -0.10  -0.13   0.01
  19   6    -0.00   0.00  -0.00     0.05   0.00   0.03    -0.04  -0.00  -0.02
  20   1    -0.00   0.00   0.00    -0.02  -0.00   0.00    -0.02  -0.00   0.00
  21   1    -0.00   0.00   0.00    -0.01   0.01   0.02    -0.02   0.01   0.02
  22   1     0.00  -0.00  -0.01    -0.00  -0.03  -0.04    -0.00  -0.04  -0.05
  23   1     0.00   0.00  -0.00    -0.02  -0.00  -0.01    -0.02  -0.00  -0.01
  24   1     0.00   0.00  -0.00     0.03   0.06  -0.02     0.04   0.06  -0.03
  25   1     0.00  -0.02   0.00    -0.00   0.12  -0.03     0.00   0.19  -0.04
  26   1     0.01   0.01  -0.01    -0.04  -0.01   0.03    -0.06  -0.02   0.04
  27   1    -0.00  -0.00  -0.01     0.03   0.00   0.05     0.04   0.00   0.08
  28   1     0.00   0.00  -0.00    -0.01  -0.02   0.03    -0.01  -0.03   0.05
  29   1     0.01   0.00   0.00    -0.08  -0.05  -0.05    -0.13  -0.08  -0.08
  30   1     0.18  -0.04   0.09     0.01  -0.00  -0.00    -0.00   0.01   0.00
  31   1     0.14  -0.04   0.00     0.01  -0.00   0.00     0.00   0.00   0.01
  32   1     0.00  -0.00  -0.00     0.03   0.13  -0.05    -0.02  -0.07   0.03
  33   1    -0.00  -0.00   0.00    -0.03  -0.01  -0.02     0.02   0.01   0.01
  34   1    -0.00   0.00   0.00    -0.01  -0.02  -0.01     0.01   0.01   0.01
  35   1     0.01   0.00  -0.00    -0.10   0.01   0.02     0.06  -0.00  -0.01
  36   1    -0.00   0.00  -0.00     0.03  -0.02  -0.02    -0.02   0.01   0.02
  37   1     0.00   0.00  -0.00    -0.03  -0.06   0.03     0.02   0.04  -0.03
  38   1    -0.00  -0.01  -0.01     0.02   0.14   0.07    -0.01  -0.10  -0.06
  39   1     0.00   0.00  -0.00    -0.03  -0.04   0.01     0.02   0.03  -0.01
  40   1     0.01  -0.00   0.00    -0.08   0.02  -0.01     0.06  -0.01   0.01
  41   1    -0.00   0.01  -0.00     0.08  -0.09   0.04    -0.06   0.07  -0.03
                     46                     47                     48
                        a                      a                      a 
 Frequencies --   755.7008               766.6839               791.4471
 Red. masses --    24.0697                21.8671                 5.9995
 Frc consts  --     0.0000                 0.0000                 0.0000
 IR Inten    --   254.2778               318.0836                 6.5093
 Raman Activ --     0.0000                 0.0000                 0.0000
 Depolar     --     0.0000                 0.0000                 0.0000
 Atom AN      X      Y      Z        X      Y      Z        X      Y      Z
   1   6    -0.04   0.02   0.08    -0.00  -0.00   0.00     0.01  -0.00  -0.01
   2   6    -0.21  -0.10   0.04    -0.01  -0.00  -0.00     0.02   0.01  -0.01
   3   8    -0.29   0.09  -0.29    -0.01   0.00  -0.00    -0.00   0.01   0.03
   4  15     0.48  -0.32   0.43     0.03  -0.00  -0.03     0.01  -0.04  -0.01
   5  16    -0.14   0.26  -0.17    -0.00   0.00   0.00     0.00  -0.00   0.00
   6   8     0.04  -0.07  -0.07    -0.02   0.01   0.02    -0.00   0.01  -0.01
   7   6     0.02   0.12  -0.11    -0.01  -0.01   0.01     0.00  -0.01   0.01
   8   6    -0.03   0.01  -0.05     0.00  -0.00   0.01     0.00   0.00   0.00
   9  16     0.02   0.03   0.01    -0.00   0.02   0.00    -0.05   0.15   0.02
  10   6    -0.04  -0.01  -0.05    -0.04  -0.06   0.02     0.03  -0.53  -0.04
  11  16    -0.01  -0.01   0.02     0.03  -0.00   0.01    -0.00   0.14  -0.02
  12  15    -0.04  -0.02   0.00     0.01  -0.00  -0.68     0.01  -0.04   0.10
  13  16     0.00   0.00  -0.00     0.04  -0.10   0.24    -0.01   0.01  -0.03
  14   8     0.02   0.01   0.02     0.19  -0.01   0.33    -0.02   0.01  -0.03
  15   6     0.00   0.01   0.00     0.07   0.21   0.05    -0.01  -0.02  -0.01
  16   6    -0.00   0.00   0.00    -0.06   0.07   0.02     0.01  -0.01  -0.01
  17   8     0.02  -0.01  -0.03    -0.14   0.04   0.26     0.01   0.01  -0.03
  18   6     0.01   0.02  -0.00    -0.11  -0.15   0.01     0.00   0.01  -0.00
  19   6     0.01  -0.00   0.00    -0.04  -0.01  -0.02     0.00  -0.00   0.00
  20   1     0.04   0.02   0.02     0.00   0.00   0.00    -0.00  -0.00  -0.00
  21   1     0.03  -0.03  -0.04     0.00  -0.00  -0.00    -0.00   0.00   0.00
  22   1     0.00   0.07   0.09     0.00   0.00   0.00    -0.00  -0.01  -0.01
  23   1     0.06   0.02   0.05     0.00   0.00   0.00    -0.00  -0.00  -0.00
  24   1    -0.08  -0.16   0.06    -0.00  -0.00   0.00     0.00   0.01  -0.00
  25   1     0.01   0.06  -0.01    -0.00  -0.02   0.00    -0.00  -0.00   0.00
  26   1    -0.02   0.01  -0.00     0.01   0.00  -0.00    -0.00  -0.00   0.00
  27   1     0.03   0.00   0.05    -0.00  -0.00  -0.01     0.00   0.00   0.00
  28   1    -0.01  -0.02   0.03     0.00   0.00  -0.00    -0.00   0.00  -0.00
  29   1    -0.07  -0.04  -0.04     0.01   0.01   0.01     0.00   0.00   0.00
  30   1     0.00  -0.01  -0.01    -0.02   0.04  -0.06    -0.16   0.29  -0.46
  31   1    -0.00   0.00  -0.01     0.04   0.02   0.07     0.20   0.15   0.52
  32   1     0.00   0.01  -0.01     0.05   0.16  -0.07    -0.01  -0.02   0.02
  33   1     0.00  -0.00  -0.00    -0.05  -0.03  -0.04     0.02   0.01   0.01
  34   1     0.00  -0.00  -0.00    -0.02  -0.03  -0.02     0.01   0.00   0.00
  35   1    -0.01   0.00   0.00    -0.12   0.01   0.03     0.02  -0.00  -0.00
  36   1     0.00  -0.00  -0.00     0.05  -0.03  -0.03    -0.01   0.00   0.01
  37   1    -0.00  -0.01   0.00     0.03   0.07  -0.04    -0.00  -0.01   0.00
  38   1     0.00   0.01   0.01    -0.00  -0.13  -0.07     0.00   0.01   0.01
  39   1    -0.00  -0.00   0.00     0.02   0.03  -0.01    -0.00  -0.00   0.00
  40   1    -0.01   0.00  -0.00     0.07  -0.02   0.01    -0.00   0.00  -0.00
  41   1     0.01  -0.01   0.00    -0.07   0.08  -0.04     0.00  -0.01   0.00
                     49                     50                     51
                        a                      a                      a 
 Frequencies --   817.6615               817.9752               818.8279
 Red. masses --     2.8545                 2.7248                 2.9349
 Frc consts  --     0.0000                 0.0000                 0.0000
 IR Inten    --     1.5837                 1.0700                 2.4843
 Raman Activ --     0.0000                 0.0000                 0.0000
 Depolar     --     0.0000                 0.0000                 0.0000
 Atom AN      X      Y      Z        X      Y      Z        X      Y      Z
   1   6    -0.02   0.01  -0.02     0.06  -0.05   0.07     0.00  -0.01   0.01
   2   6    -0.03   0.04  -0.04     0.13  -0.16   0.14     0.01  -0.02   0.02
   3   8     0.02  -0.02   0.04    -0.08   0.07  -0.13    -0.00   0.01  -0.02
   4  15    -0.01   0.00  -0.02     0.05  -0.02   0.05    -0.00   0.00   0.01
   5  16     0.00  -0.01   0.00    -0.01   0.01  -0.01    -0.00   0.00  -0.00
   6   8    -0.02   0.02   0.01     0.02  -0.04  -0.01     0.02  -0.03  -0.01
   7   6     0.04  -0.04  -0.02    -0.05   0.05   0.03    -0.04   0.04   0.03
   8   6     0.02  -0.01  -0.01    -0.02   0.02   0.01    -0.02   0.02   0.01
   9  16    -0.00   0.00  -0.00     0.00   0.00   0.00     0.00  -0.00   0.00
  10   6    -0.00  -0.01  -0.00    -0.00  -0.00  -0.00     0.00   0.01  -0.01
  11  16    -0.00  -0.00  -0.00    -0.00  -0.00  -0.00    -0.01   0.00   0.01
  12  15    -0.00   0.00   0.09     0.01   0.01   0.02    -0.07  -0.02   0.04
  13  16    -0.00   0.01  -0.01    -0.00   0.00  -0.00    -0.00   0.00  -0.01
  14   8    -0.07   0.05  -0.13    -0.03   0.02  -0.05     0.05  -0.04   0.06
  15   6     0.05  -0.06   0.22     0.02  -0.03   0.09    -0.03   0.04  -0.11
  16   6     0.04  -0.02   0.09     0.02  -0.01   0.03    -0.02   0.01  -0.04
  17   8     0.03  -0.02  -0.10    -0.00   0.00   0.00     0.06  -0.03  -0.18
  18   6    -0.03   0.02   0.12     0.00   0.00  -0.00    -0.06   0.03   0.23
  19   6    -0.00   0.00   0.06     0.00   0.00  -0.00    -0.01  -0.00   0.10
  20   1     0.02   0.04   0.09    -0.08  -0.13  -0.36    -0.01  -0.01  -0.04
  21   1     0.03  -0.08  -0.06    -0.13   0.31   0.22    -0.01   0.03   0.02
  22   1     0.03  -0.02   0.01    -0.10   0.08  -0.06    -0.01   0.01  -0.00
  23   1     0.06   0.06   0.08    -0.22  -0.21  -0.30    -0.02  -0.02  -0.03
  24   1     0.02  -0.11  -0.04    -0.07   0.41   0.14    -0.01   0.05   0.01
  25   1     0.03   0.08   0.05    -0.03  -0.10  -0.07    -0.03  -0.08  -0.05
  26   1    -0.09  -0.04  -0.00     0.12   0.06  -0.00     0.09   0.04   0.00
  27   1     0.03   0.05   0.06    -0.04  -0.07  -0.08    -0.03  -0.05  -0.06
  28   1    -0.08  -0.02  -0.03     0.11   0.02   0.04     0.08   0.02   0.03
  29   1    -0.01   0.02   0.02     0.02  -0.03  -0.03     0.02  -0.02  -0.02
  30   1    -0.00   0.00  -0.01     0.00   0.00  -0.00     0.00  -0.00   0.00
  31   1     0.00   0.00   0.01    -0.00  -0.00  -0.00    -0.00  -0.00  -0.01
  32   1     0.28   0.07  -0.28     0.11   0.03  -0.11    -0.14  -0.03   0.14
  33   1    -0.38  -0.09  -0.06    -0.15  -0.04  -0.02     0.19   0.05   0.03
  34   1    -0.35   0.05  -0.04    -0.14   0.02  -0.02     0.18  -0.03   0.02
  35   1    -0.02   0.00  -0.13    -0.01   0.00  -0.05     0.00   0.00   0.06
  36   1     0.27  -0.04  -0.23     0.11  -0.02  -0.09    -0.14   0.02   0.11
  37   1    -0.07   0.18  -0.12     0.00  -0.00   0.00    -0.12   0.34  -0.22
  38   1     0.14  -0.15  -0.06    -0.00   0.00   0.00     0.27  -0.29  -0.11
  39   1    -0.12   0.12  -0.13     0.00  -0.00   0.00    -0.21   0.23  -0.24
  40   1     0.16  -0.11  -0.02    -0.00   0.00   0.00     0.30  -0.21  -0.05
  41   1     0.05  -0.01  -0.06     0.00  -0.00   0.00     0.09  -0.02  -0.11
                     52                     53                     54
                        a                      a                      a 
 Frequencies --   821.3189               912.3718               915.5786
 Red. masses --     2.7792                12.8307                13.7418
 Frc consts  --     0.0000                 0.0000                 0.0000
 IR Inten    --     1.9585               327.8661               335.1254
 Raman Activ --     0.0000                 0.0000                 0.0000
 Depolar     --     0.0000                 0.0000                 0.0000
 Atom AN      X      Y      Z        X      Y      Z        X      Y      Z
   1   6    -0.03   0.02  -0.02     0.01  -0.00  -0.01    -0.08   0.02   0.15
   2   6    -0.06   0.05  -0.04     0.01   0.01  -0.00    -0.13  -0.15   0.05
   3   8     0.05  -0.02   0.05    -0.03  -0.01   0.02     0.31   0.11  -0.17
   4  15    -0.05   0.01   0.03     0.02  -0.00  -0.02    -0.16  -0.05   0.20
   5  16     0.00   0.00  -0.01    -0.00   0.00  -0.00    -0.00   0.00   0.01
   6   8     0.13  -0.12  -0.05     0.00  -0.03   0.06    -0.03   0.30  -0.56
   7   6    -0.17   0.17   0.10     0.00   0.03  -0.02    -0.01  -0.29   0.15
   8   6    -0.08   0.06   0.02    -0.01   0.00  -0.02     0.12  -0.05   0.18
   9  16     0.00   0.00   0.00     0.00   0.00   0.00    -0.00   0.01   0.00
  10   6    -0.01  -0.01  -0.00    -0.00  -0.01   0.01     0.00  -0.00  -0.00
  11  16    -0.00   0.00  -0.00     0.00   0.02  -0.00    -0.00   0.00   0.00
  12  15     0.01   0.00   0.01     0.17   0.14   0.06     0.02   0.02   0.00
  13  16    -0.00   0.00  -0.00    -0.00   0.00  -0.01     0.00  -0.00   0.00
  14   8    -0.02   0.01  -0.03     0.00  -0.54  -0.15     0.00  -0.05  -0.01
  15   6     0.01  -0.01   0.05     0.09   0.30  -0.04     0.01   0.03  -0.00
  16   6     0.01  -0.00   0.02    -0.15   0.19   0.05    -0.01   0.02   0.01
  17   8    -0.01   0.00   0.02    -0.37  -0.22  -0.07    -0.04  -0.03  -0.01
  18   6     0.01  -0.00  -0.02     0.10   0.21   0.08     0.01   0.02   0.01
  19   6    -0.00  -0.00  -0.01     0.16   0.01   0.07     0.02   0.00   0.01
  20   1     0.03   0.05   0.13    -0.00  -0.00   0.00     0.04   0.01  -0.03
  21   1     0.05  -0.12  -0.09    -0.00  -0.00   0.00     0.03   0.01  -0.04
  22   1     0.04  -0.03   0.03     0.00  -0.01  -0.01    -0.00   0.13   0.16
  23   1     0.08   0.08   0.12    -0.00   0.00   0.00     0.02  -0.02  -0.02
  24   1     0.03  -0.16  -0.06    -0.00   0.00   0.00     0.01  -0.04  -0.05
  25   1    -0.12  -0.34  -0.24     0.01   0.00   0.01    -0.07  -0.01  -0.08
  26   1     0.40   0.20   0.01    -0.00   0.00   0.00    -0.00  -0.03  -0.02
  27   1    -0.14  -0.22  -0.28     0.01  -0.00   0.01    -0.04   0.02  -0.07
  28   1     0.38   0.07   0.13    -0.00  -0.00   0.01    -0.00   0.03  -0.06
  29   1     0.06  -0.08  -0.10    -0.02  -0.01  -0.02     0.21   0.12   0.14
  30   1    -0.00   0.00  -0.01    -0.00   0.00  -0.00     0.00   0.00  -0.01
  31   1     0.00   0.00   0.01     0.01   0.00   0.00    -0.00   0.00   0.00
  32   1     0.06   0.01  -0.06     0.10  -0.03  -0.04     0.01  -0.00  -0.01
  33   1    -0.08  -0.02  -0.01     0.03  -0.01  -0.04     0.00  -0.00  -0.00
  34   1    -0.08   0.01  -0.01     0.02  -0.07  -0.03     0.00  -0.01  -0.00
  35   1    -0.00   0.00  -0.03    -0.30   0.02   0.08    -0.03   0.00   0.01
  36   1     0.06  -0.01  -0.05     0.05  -0.08  -0.01     0.01  -0.01  -0.00
  37   1     0.01  -0.04   0.02    -0.01   0.02   0.02    -0.00   0.00   0.00
  38   1    -0.03   0.03   0.01    -0.07   0.03  -0.03    -0.01   0.00  -0.00
  39   1     0.02  -0.02   0.03    -0.04  -0.03  -0.00    -0.00  -0.00   0.00
  40   1    -0.03   0.02   0.01    -0.07  -0.00  -0.03    -0.01   0.00  -0.00
  41   1    -0.01   0.00   0.01     0.15  -0.15   0.07     0.02  -0.02   0.01
                     55                     56                     57
                        a                      a                      a 
 Frequencies --   929.7353               936.6981              1032.5111
 Red. masses --    11.8970                11.6956                 8.2856
 Frc consts  --     0.0000                 0.0000                 0.0000
 IR Inten    --   143.7703               133.2030               166.8380
 Raman Activ --     0.0000                 0.0000                 0.0000
 Depolar     --     0.0000                 0.0000                 0.0000
 Atom AN      X      Y      Z        X      Y      Z        X      Y      Z
   1   6    -0.15   0.03   0.26    -0.00   0.00   0.00    -0.05   0.01   0.07
   2   6    -0.19  -0.23   0.04     0.00  -0.00   0.00     0.07   0.00  -0.09
   3   8     0.50   0.16  -0.24     0.00  -0.00  -0.00    -0.03  -0.03   0.02
   4  15    -0.11   0.02  -0.15    -0.00   0.00  -0.00     0.00  -0.00  -0.01
   5  16     0.01  -0.01   0.00     0.00  -0.00   0.00    -0.00   0.01  -0.01
   6   8    -0.04  -0.17   0.35     0.00  -0.00   0.01     0.01  -0.22   0.18
   7   6     0.02   0.16  -0.07    -0.00   0.00  -0.00    -0.28   0.19  -0.46
   8   6    -0.08   0.03  -0.12    -0.00  -0.00  -0.00     0.25  -0.07   0.36
   9  16    -0.02  -0.00  -0.01    -0.00   0.00  -0.00    -0.00  -0.00  -0.00
  10   6     0.02  -0.02   0.01    -0.01  -0.00   0.02     0.00  -0.00   0.00
  11  16    -0.00   0.01  -0.00     0.02  -0.01  -0.01     0.00   0.00  -0.00
  12  15    -0.00  -0.00   0.00     0.07  -0.02  -0.16     0.00  -0.00   0.00
  13  16    -0.00  -0.00  -0.00     0.00  -0.01   0.02    -0.00   0.00  -0.00
  14   8    -0.00   0.00  -0.00     0.05   0.39   0.13    -0.00  -0.01  -0.00
  15   6     0.00  -0.00  -0.00    -0.09  -0.17   0.04    -0.01   0.02   0.00
  16   6     0.00   0.00  -0.00     0.14  -0.16  -0.05     0.01  -0.01  -0.00
  17   8     0.01   0.00   0.00    -0.47  -0.27  -0.08    -0.00  -0.00  -0.00
  18   6    -0.00  -0.00  -0.00     0.06   0.26   0.08     0.01   0.00   0.01
  19   6    -0.00   0.00  -0.00     0.26   0.01   0.11    -0.01   0.00  -0.00
  20   1     0.08   0.01  -0.07     0.00   0.00  -0.00     0.02   0.00  -0.02
  21   1     0.06   0.02  -0.08     0.00   0.00  -0.00     0.02   0.01  -0.02
  22   1    -0.00   0.25   0.29     0.00   0.00   0.00    -0.00   0.06   0.08
  23   1     0.03  -0.04  -0.06     0.00  -0.00  -0.00     0.01  -0.01  -0.04
  24   1     0.03  -0.05  -0.11     0.00   0.00  -0.00     0.02  -0.00  -0.04
  25   1     0.06   0.00   0.08     0.00   0.00   0.00    -0.11   0.02  -0.17
  26   1    -0.00   0.02   0.01     0.00   0.00   0.00    -0.14   0.04  -0.16
  27   1     0.04  -0.01   0.06     0.00   0.00   0.00    -0.05   0.10  -0.08
  28   1    -0.01  -0.02   0.04     0.00  -0.00   0.00    -0.01   0.07  -0.11
  29   1    -0.15  -0.08  -0.09    -0.00  -0.00  -0.00     0.34   0.22   0.25
  30   1     0.01   0.01  -0.02    -0.00   0.00   0.00     0.00   0.00  -0.00
  31   1     0.00   0.00   0.02     0.01   0.00   0.00    -0.00   0.00   0.00
  32   1     0.00  -0.00   0.00    -0.09   0.06   0.03    -0.01   0.01   0.00
  33   1    -0.00  -0.00  -0.00    -0.04   0.02   0.03    -0.01   0.00   0.00
  34   1    -0.00   0.00   0.00    -0.02   0.06   0.02    -0.00   0.00   0.00
  35   1    -0.00  -0.00  -0.00     0.26  -0.02  -0.07     0.02  -0.00  -0.00
  36   1    -0.00  -0.00   0.00    -0.04   0.07   0.01    -0.00   0.00  -0.00
  37   1     0.00  -0.00   0.00    -0.05   0.04   0.00     0.00  -0.00   0.00
  38   1    -0.00   0.00   0.00    -0.11   0.03  -0.05     0.01  -0.00   0.00
  39   1     0.00  -0.00   0.00    -0.08  -0.03  -0.02     0.00   0.00   0.00
  40   1    -0.00   0.00   0.00    -0.09  -0.02  -0.04     0.00   0.00   0.00
  41   1    -0.00   0.00  -0.00     0.24  -0.23   0.10    -0.01   0.01  -0.00
                     58                     59                     60
                        a                      a                      a 
 Frequencies --  1037.0204              1050.7736              1053.0974
 Red. masses --     8.6026                 9.7149                 9.3738
 Frc consts  --     0.0000                 0.0000                 0.0000
 IR Inten    --   194.9747               108.3009               147.7219
 Raman Activ --     0.0000                 0.0000                 0.0000
 Depolar     --     0.0000                 0.0000                 0.0000
 Atom AN      X      Y      Z        X      Y      Z        X      Y      Z
   1   6    -0.00  -0.00   0.00     0.01   0.00  -0.01    -0.21   0.06   0.33
   2   6     0.01   0.00  -0.01    -0.02  -0.00   0.02     0.38   0.05  -0.47
   3   8    -0.00  -0.00   0.00     0.01   0.01  -0.01    -0.30  -0.18   0.16
   4  15    -0.00   0.00   0.00     0.00  -0.00   0.00     0.02   0.01   0.01
   5  16     0.00  -0.00   0.00    -0.00   0.00  -0.00     0.00  -0.00   0.00
   6   8     0.00  -0.01   0.00    -0.00   0.00   0.00     0.02   0.05  -0.07
   7   6    -0.01   0.01  -0.02     0.00  -0.00   0.00     0.07  -0.04   0.10
   8   6     0.01  -0.00   0.01    -0.00  -0.00  -0.00    -0.06   0.00  -0.06
   9  16    -0.00  -0.00  -0.00     0.00  -0.00   0.00     0.01   0.00   0.00
  10   6     0.00   0.00  -0.00     0.00   0.00  -0.01    -0.01   0.01  -0.00
  11  16     0.00  -0.01  -0.00    -0.01   0.01   0.01     0.00  -0.00  -0.00
  12  15    -0.01   0.00  -0.00    -0.00   0.02   0.02    -0.00   0.00   0.00
  13  16    -0.00  -0.00   0.00     0.00  -0.00   0.00     0.00   0.00  -0.00
  14   8     0.01   0.18  -0.00    -0.05  -0.32  -0.03    -0.00  -0.01  -0.00
  15   6     0.17  -0.32  -0.06    -0.21   0.42   0.07    -0.01   0.02   0.00
  16   6    -0.17   0.20   0.06     0.20  -0.23  -0.07     0.01  -0.01  -0.00
  17   8     0.15   0.18   0.08     0.18   0.17   0.08     0.01   0.00   0.00
  18   6    -0.42  -0.07  -0.21    -0.36  -0.06  -0.17    -0.01  -0.00  -0.01
  19   6     0.32  -0.03   0.14     0.24  -0.05   0.10     0.01  -0.00   0.00
  20   1     0.00   0.00  -0.00    -0.01  -0.00   0.00     0.10   0.03  -0.06
  21   1     0.00   0.00  -0.00    -0.00  -0.00   0.01     0.07   0.05  -0.09
  22   1     0.00   0.00   0.01     0.00  -0.01  -0.01    -0.01   0.27   0.33
  23   1     0.00   0.00  -0.00    -0.00   0.00   0.01     0.05  -0.03  -0.18
  24   1     0.00  -0.00  -0.00    -0.01  -0.00   0.01     0.12   0.00  -0.17
  25   1    -0.00   0.00  -0.01     0.00  -0.00  -0.00     0.01   0.01   0.02
  26   1    -0.01   0.00  -0.01     0.00   0.00   0.00     0.03  -0.01   0.04
  27   1    -0.00   0.00  -0.00    -0.00  -0.00  -0.00    -0.01  -0.02  -0.00
  28   1    -0.00   0.00  -0.00    -0.00  -0.00  -0.00     0.00  -0.01   0.01
  29   1     0.01   0.01   0.01    -0.00  -0.00  -0.00    -0.05  -0.03  -0.04
[...]
  33   1     0.00   0.00  -0.00    -0.00  -0.00   0.00    -0.00  -0.00   0.00
  34   1     0.00   0.00  -0.00    -0.00  -0.00   0.00     0.00   0.00  -0.00
  35   1    -0.00   0.00  -0.00    -0.00   0.00  -0.00    -0.00   0.00   0.00
  36   1     0.01   0.00   0.00     0.00   0.00   0.00     0.00   0.00   0.00
  37   1    -0.40   0.46   0.74    -0.00   0.00   0.00    -0.03   0.01   0.08
  38   1     0.00  -0.06   0.02    -0.00  -0.01   0.01     0.26   0.61  -0.69
  39   1     0.02  -0.03  -0.04    -0.00  -0.00  -0.00    -0.00   0.01   0.01
  40   1     0.00   0.01  -0.01     0.00   0.00  -0.00    -0.02  -0.05   0.06
  41   1    -0.01  -0.01  -0.00     0.00   0.00   0.00    -0.01  -0.01  -0.01
                    103                    104                    105
                        a                      a                      a 
 Frequencies --  2973.8334              2980.1160              3016.6780
 Red. masses --     1.7217                 1.7057                 1.7916
 Frc consts  --     0.0000                 0.0000                 0.0000
 IR Inten    --    10.6990                12.5423                 9.9482
 Raman Activ --     0.0000                 0.0000                 0.0000
 Depolar     --     0.0000                 0.0000                 0.0000
 Atom AN      X      Y      Z        X      Y      Z        X      Y      Z
   1   6     0.02   0.00   0.01    -0.00   0.00  -0.00    -0.00  -0.00  -0.00
   2   6    -0.21  -0.02  -0.14     0.00  -0.00   0.00    -0.00  -0.00  -0.00
   3   8    -0.01  -0.00   0.00     0.00   0.00  -0.00     0.00  -0.00  -0.00
   4  15     0.00  -0.00   0.00     0.00  -0.00   0.00    -0.00  -0.00  -0.00
   5  16     0.00  -0.00  -0.00    -0.00   0.00   0.00    -0.00   0.00  -0.00
   6   8     0.00  -0.00   0.00    -0.00  -0.00  -0.00    -0.00   0.00   0.00
   7   6    -0.00  -0.00   0.00     0.00  -0.00  -0.00     0.00   0.00   0.00
   8   6    -0.00   0.00   0.00    -0.00   0.00   0.00     0.00  -0.00  -0.00
   9  16    -0.00   0.00  -0.00     0.00  -0.00  -0.00    -0.00  -0.00  -0.00
  10   6     0.00  -0.00  -0.00    -0.00   0.00   0.00    -0.04  -0.21  -0.16
  11  16    -0.00   0.00  -0.00    -0.00   0.00  -0.00     0.00  -0.00  -0.00
  12  15     0.00   0.00   0.00     0.00   0.00   0.00     0.00  -0.00  -0.00
  13  16    -0.00  -0.00  -0.00     0.00   0.00   0.00    -0.00   0.00  -0.00
  14   8    -0.00  -0.00  -0.00    -0.00  -0.01  -0.00     0.00  -0.00   0.00
  15   6    -0.00  -0.00  -0.00    -0.18  -0.08  -0.15    -0.00  -0.00  -0.00
  16   6     0.00   0.00   0.00     0.02   0.02   0.03    -0.01  -0.00  -0.01
  17   8     0.00   0.00   0.00    -0.00   0.00  -0.00    -0.00  -0.00   0.00
  18   6     0.00   0.00  -0.00     0.00   0.00  -0.00    -0.00   0.00   0.00
  19   6    -0.00  -0.00   0.00    -0.00  -0.00  -0.00    -0.00  -0.00  -0.00
  20   1     0.00   0.01  -0.00    -0.00  -0.00   0.00    -0.00   0.00  -0.00
  21   1    -0.09  -0.00  -0.06     0.00   0.00   0.00     0.01   0.00   0.01
  22   1    -0.01  -0.01   0.01     0.00   0.00  -0.00    -0.00  -0.00   0.00
  23   1    -0.04   0.02  -0.03     0.00   0.00   0.00     0.00  -0.00   0.00
  24   1     0.81   0.05   0.52    -0.01  -0.00  -0.01     0.00  -0.00   0.00
  25   1     0.01   0.00  -0.00    -0.00  -0.00   0.00    -0.00  -0.00   0.00
  26   1    -0.00   0.00   0.00    -0.00   0.00   0.00     0.00  -0.00  -0.00
  27   1     0.00   0.00  -0.00     0.00   0.00  -0.00    -0.00  -0.00   0.00
  28   1    -0.00  -0.00  -0.00     0.00  -0.00  -0.00    -0.00   0.00   0.00
  29   1     0.00  -0.00   0.00    -0.00  -0.00   0.00     0.00  -0.00  -0.00
  30   1     0.00   0.00   0.00    -0.00  -0.00  -0.00     0.15   0.72   0.62
  31   1     0.00  -0.00   0.00    -0.00  -0.00   0.00    -0.01   0.02  -0.04
  32   1     0.01   0.01   0.01     0.65   0.33   0.61     0.01   0.00   0.01
  33   1    -0.00   0.00  -0.00    -0.02   0.01  -0.07    -0.00   0.00  -0.00
  34   1     0.00   0.00  -0.00     0.01   0.01  -0.01    -0.00  -0.00   0.00
  35   1     0.00  -0.00  -0.00     0.00  -0.02   0.00    -0.00   0.00  -0.00
  36   1    -0.00  -0.00  -0.00    -0.10  -0.05  -0.10     0.03   0.02   0.03
  37   1    -0.00   0.00   0.00     0.00  -0.00  -0.00     0.00  -0.00  -0.00
  38   1    -0.00  -0.01   0.01    -0.00  -0.00   0.00    -0.00  -0.00   0.00
  39   1     0.00  -0.00  -0.00    -0.00   0.00   0.00    -0.00   0.00   0.00
  40   1     0.00   0.00  -0.00     0.00   0.00  -0.00     0.00   0.00  -0.00
  41   1     0.00   0.00   0.00     0.00   0.00   0.00     0.00   0.00   0.00
                    106                    107                    108
                        a                      a                      a 
 Frequencies --  3018.1734              3026.4173              3036.2854
 Red. masses --     1.7560                 1.7631                 1.7696
 Frc consts  --     0.0000                 0.0000                 0.0000
 IR Inten    --    43.9129                52.9324                33.5221
 Raman Activ --     0.0000                 0.0000                 0.0000
 Depolar     --     0.0000                 0.0000                 0.0000
 Atom AN      X      Y      Z        X      Y      Z        X      Y      Z
   1   6    -0.00  -0.00  -0.00    -0.22   0.01  -0.14     0.00   0.00   0.00
   2   6     0.00  -0.00   0.00    -0.03   0.00  -0.02     0.00  -0.00   0.00
   3   8    -0.00   0.00   0.00    -0.00   0.00   0.00     0.00   0.00  -0.00
   4  15     0.00  -0.00  -0.00     0.00  -0.00  -0.00    -0.00   0.00  -0.00
   5  16    -0.00   0.00  -0.00    -0.00  -0.00   0.00    -0.00  -0.00   0.00
   6   8    -0.00   0.00  -0.00     0.00   0.00  -0.00    -0.00  -0.00   0.00
   7   6     0.00  -0.00  -0.00    -0.00   0.00   0.00     0.00   0.00  -0.00
   8   6    -0.00   0.00   0.00     0.00   0.00  -0.00     0.00   0.00  -0.00
   9  16     0.00   0.00   0.00     0.00  -0.00   0.00     0.00   0.00   0.00
  10   6     0.00   0.01   0.01     0.00   0.00   0.00    -0.00   0.00  -0.00
  11  16    -0.00   0.00   0.00    -0.00  -0.00   0.00     0.00  -0.00   0.00
  12  15    -0.00   0.00   0.00    -0.00   0.00   0.00     0.00   0.00   0.00
  13  16     0.00  -0.00  -0.00    -0.00  -0.00  -0.00    -0.00  -0.00   0.00
  14   8     0.00  -0.00  -0.00    -0.00  -0.00  -0.00     0.00   0.00   0.00
  15   6    -0.03  -0.01  -0.03     0.00   0.00   0.00    -0.00  -0.00   0.00
  16   6    -0.16  -0.08  -0.18     0.00   0.00   0.00    -0.01  -0.01   0.01
  17   8     0.00  -0.00  -0.00     0.00   0.00   0.00    -0.00  -0.00  -0.00
  18   6    -0.00   0.00   0.00    -0.00   0.00  -0.00    -0.01  -0.02   0.02
  19   6    -0.00   0.00  -0.00    -0.00  -0.00   0.00    -0.08  -0.15   0.20
  20   1    -0.00   0.00  -0.00    -0.01  -0.06   0.00     0.00  -0.00   0.00
  21   1     0.01   0.00   0.00     0.80   0.02   0.52    -0.01  -0.00  -0.01
  22   1     0.00   0.00  -0.00    -0.02   0.01  -0.03     0.00   0.00  -0.00
  23   1    -0.00   0.00  -0.00     0.00  -0.02   0.00    -0.00   0.00  -0.00
  24   1    -0.00   0.00  -0.00     0.09   0.00   0.05    -0.00  -0.00  -0.00
  25   1    -0.00  -0.00   0.00     0.00   0.00  -0.00    -0.00  -0.00   0.00
  26   1    -0.00   0.00   0.00     0.00  -0.00  -0.00    -0.00   0.00   0.00
  27   1     0.00   0.00  -0.00     0.00  -0.00  -0.00    -0.00  -0.00   0.00
  28   1     0.00  -0.00  -0.00    -0.00   0.00   0.00     0.00  -0.00  -0.00
  29   1     0.00  -0.00   0.00     0.00  -0.00   0.00     0.00  -0.00   0.00
  30   1    -0.01  -0.03  -0.03    -0.00  -0.01  -0.01    -0.00  -0.00  -0.00
  31   1     0.00  -0.00   0.00    -0.00   0.00  -0.00     0.00  -0.00   0.00
  32   1     0.10   0.05   0.09    -0.00  -0.00  -0.00    -0.00  -0.00  -0.00
  33   1    -0.01  -0.01   0.01     0.00   0.00  -0.00    -0.00  -0.00   0.00
  34   1    -0.03  -0.04   0.04     0.00   0.00  -0.00     0.01   0.02  -0.04
  35   1    -0.02  -0.01  -0.03     0.00  -0.00   0.00    -0.00   0.01   0.00
  36   1     0.62   0.33   0.64    -0.00  -0.00  -0.00     0.01   0.01   0.02
  37   1     0.00  -0.00  -0.01    -0.00  -0.00  -0.00     0.00  -0.01  -0.01
  38   1    -0.00  -0.00   0.00    -0.00  -0.00   0.00     0.02   0.05  -0.06
  39   1     0.00  -0.01  -0.01     0.00  -0.00  -0.01     0.02  -0.07  -0.05
  40   1    -0.01  -0.01   0.01     0.00   0.01  -0.01     0.27   0.61  -0.69
  41   1     0.00   0.00   0.00     0.00   0.00   0.00    -0.01  -0.02   0.03
                    109                    110                    111
                        a                      a                      a 
 Frequencies --  3045.1568              3047.8061              3050.0101
 Red. masses --     1.6207                 1.8936                 1.5927
 Frc consts  --     0.0000                 0.0000                 0.0000
 IR Inten    --    12.8864                27.8585                 7.2099
 Raman Activ --     0.0000                 0.0000                 0.0000
 Depolar     --     0.0000                 0.0000                 0.0000
 Atom AN      X      Y      Z        X      Y      Z        X      Y      Z
   1   6     0.00  -0.01   0.00     0.01  -0.00  -0.00    -0.08   0.19  -0.02
   2   6     0.00  -0.00   0.00    -0.00  -0.00  -0.00    -0.01   0.01  -0.00
   3   8     0.00  -0.00   0.00     0.00   0.00  -0.00    -0.00  -0.00  -0.00
   4  15     0.00   0.00  -0.00    -0.00  -0.00   0.00    -0.00   0.00   0.00
   5  16     0.00   0.00  -0.00     0.00   0.00   0.00    -0.00   0.00  -0.00
   6   8    -0.00  -0.00  -0.00     0.00   0.00  -0.00    -0.00  -0.00   0.00
   7   6    -0.00   0.00   0.00     0.02  -0.01  -0.01    -0.00  -0.00  -0.00
   8   6    -0.01   0.02   0.01     0.15  -0.19  -0.15    -0.00  -0.00  -0.01
   9  16     0.00  -0.00   0.00     0.00   0.00  -0.00    -0.00   0.00  -0.00
  10   6    -0.00   0.00   0.00     0.00   0.00   0.00     0.00  -0.00   0.00
  11  16     0.00  -0.00  -0.00     0.00  -0.00  -0.00     0.00   0.00  -0.00
  12  15     0.00  -0.00  -0.00     0.00   0.00  -0.00     0.00  -0.00  -0.00
  13  16    -0.00  -0.00  -0.00    -0.00   0.00  -0.00    -0.00   0.00  -0.00
  14   8    -0.00  -0.00   0.00     0.00  -0.00   0.00    -0.00   0.00   0.00
  15   6     0.00   0.00  -0.02    -0.00  -0.00  -0.00    -0.00  -0.00  -0.00
  16   6     0.06   0.07  -0.21     0.00   0.00  -0.02     0.00  -0.01  -0.01
  17   8    -0.00   0.00   0.00    -0.00  -0.00   0.00     0.00   0.00  -0.00
  18   6     0.00  -0.00   0.00    -0.00   0.00   0.00     0.00  -0.00  -0.00
  19   6     0.00  -0.01   0.01    -0.00   0.00   0.00     0.03  -0.05  -0.06
  20   1    -0.01   0.03  -0.01    -0.00   0.01  -0.00     0.23  -0.82   0.23
  21   1     0.01  -0.00   0.00    -0.00  -0.00  -0.00    -0.06   0.02  -0.04
  22   1    -0.00  -0.00   0.00    -0.02  -0.01   0.01     0.13   0.11  -0.11
  23   1    -0.00   0.00  -0.00    -0.00   0.00  -0.00     0.01  -0.03   0.01
  24   1     0.00  -0.00   0.00     0.00  -0.00   0.00     0.01   0.00   0.00
  25   1     0.00   0.00  -0.00    -0.03  -0.01   0.02     0.00   0.00  -0.00
  26   1     0.00  -0.00  -0.00    -0.02   0.04   0.02    -0.00   0.00   0.00
  27   1     0.01   0.01  -0.01    -0.31  -0.08   0.18     0.01   0.00  -0.01
  28   1     0.02  -0.06  -0.03    -0.24   0.76   0.37    -0.01   0.02   0.01
  29   1     0.00  -0.01   0.01     0.02  -0.02  -0.03     0.00  -0.02   0.02
  30   1    -0.00  -0.00  -0.00    -0.00  -0.00  -0.00     0.00   0.00   0.00
  31   1     0.00  -0.00   0.00    -0.00   0.00  -0.00     0.00   0.00  -0.00
  32   1     0.01   0.00   0.00     0.00   0.00   0.00     0.00   0.00   0.00
  33   1    -0.01  -0.01   0.04    -0.00  -0.00   0.00    -0.00  -0.00   0.00
  34   1    -0.18  -0.39   0.85    -0.01  -0.03   0.06    -0.00  -0.01   0.02
  35   1    -0.00   0.14  -0.02    -0.00   0.03  -0.00    -0.00   0.05   0.00
  36   1    -0.04  -0.01  -0.07     0.00   0.00  -0.00     0.00   0.00   0.00
  37   1    -0.00   0.00   0.00     0.00  -0.00  -0.00    -0.01   0.01   0.01
  38   1     0.00   0.00  -0.00     0.00   0.00  -0.00    -0.00  -0.00   0.00
  39   1    -0.00   0.00   0.01     0.00  -0.01  -0.01    -0.13   0.17   0.26
  40   1     0.01   0.03  -0.03     0.00   0.00  -0.00     0.01   0.01  -0.03
  41   1    -0.01  -0.01  -0.01    -0.00  -0.00  -0.00    -0.01  -0.02  -0.01
                    112                    113                    114
                        a                      a                      a 
 Frequencies --  3050.0914              3051.3182              3053.3552
 Red. masses --     1.6258                 1.3764                 1.8090
 Frc consts  --     0.0000                 0.0000                 0.0000
 IR Inten    --    26.4557                18.8482                11.2172
 Raman Activ --     0.0000                 0.0000                 0.0000
 Depolar     --     0.0000                 0.0000                 0.0000
 Atom AN      X      Y      Z        X      Y      Z        X      Y      Z
   1   6    -0.04   0.07  -0.00     0.02   0.03  -0.02    -0.16  -0.15   0.15
   2   6    -0.00   0.00  -0.00    -0.00   0.00  -0.00    -0.01  -0.01   0.00
   3   8    -0.00  -0.00  -0.00    -0.00  -0.00  -0.00     0.00   0.00  -0.00
   4  15     0.00   0.00   0.00     0.00   0.00   0.00     0.00  -0.00   0.00
   5  16    -0.00   0.00  -0.00     0.00  -0.00   0.00     0.00  -0.00   0.00
   6   8    -0.00  -0.00   0.00    -0.00   0.00  -0.00    -0.00   0.00   0.00
   7   6    -0.00   0.00  -0.00     0.01   0.00  -0.00     0.00  -0.00  -0.00
   8   6    -0.00   0.00  -0.00     0.17   0.05  -0.01     0.02  -0.02   0.02
   9  16    -0.00   0.00  -0.00     0.00   0.00   0.00     0.00   0.00   0.00
  10   6     0.00  -0.00  -0.00    -0.00   0.00   0.00    -0.00   0.00  -0.00
  11  16    -0.00   0.00   0.00     0.00  -0.00   0.00    -0.00  -0.00  -0.00
  12  15     0.00   0.00  -0.00    -0.00   0.00  -0.00    -0.00  -0.00  -0.00
  13  16     0.00  -0.00   0.00     0.00  -0.00   0.00    -0.00  -0.00   0.00
  14   8    -0.00  -0.00   0.00     0.00   0.00   0.00    -0.00  -0.00   0.00
  15   6     0.00   0.00  -0.00    -0.00   0.00  -0.00     0.00   0.00   0.00
  16   6     0.00   0.02  -0.00    -0.00   0.00   0.00    -0.00   0.01  -0.00
  17   8    -0.00  -0.00   0.00     0.00  -0.00   0.00    -0.00   0.00   0.00
  18   6    -0.01   0.01   0.01     0.00   0.00  -0.00     0.00  -0.00  -0.00
  19   6    -0.09   0.13   0.16     0.00   0.00   0.00     0.00  -0.01  -0.01
  20   1     0.08  -0.30   0.08     0.02  -0.05   0.01    -0.08   0.18  -0.04
  21   1    -0.03   0.01  -0.02     0.00   0.00  -0.00    -0.03  -0.02   0.02
  22   1     0.08   0.05  -0.06    -0.08  -0.05   0.06     0.68   0.38  -0.50
  23   1     0.00  -0.01   0.00     0.00  -0.00   0.00    -0.01   0.02  -0.01
  24   1     0.00   0.00   0.00     0.00   0.00   0.00     0.01   0.00   0.01
  25   1     0.00   0.00  -0.00    -0.04  -0.01   0.02    -0.00  -0.00   0.00
  26   1    -0.00   0.00   0.00     0.00  -0.00  -0.00    -0.00   0.00   0.00
  27   1     0.01   0.00  -0.00    -0.71  -0.11   0.43    -0.06  -0.01   0.04
  28   1    -0.00   0.00  -0.00     0.13  -0.31  -0.16     0.01  -0.01  -0.00
  29   1     0.00  -0.01   0.01    -0.03   0.24  -0.24    -0.02   0.11  -0.11
  30   1     0.00   0.00   0.00    -0.00  -0.00  -0.00    -0.00   0.00   0.00
  31   1    -0.00   0.00  -0.00     0.00   0.00  -0.00     0.00  -0.00   0.00
  32   1     0.00   0.00   0.00     0.00   0.00  -0.00    -0.00  -0.00  -0.00
  33   1    -0.00  -0.00   0.00     0.00   0.00   0.00    -0.00  -0.00   0.00
  34   1    -0.01  -0.01   0.03     0.00   0.00  -0.00    -0.00  -0.00   0.01
  35   1     0.01  -0.07  -0.00     0.00  -0.01  -0.00     0.00  -0.05  -0.00
  36   1    -0.01  -0.00  -0.01     0.00   0.00   0.00    -0.00   0.00  -0.00
  37   1     0.02  -0.02  -0.03     0.00  -0.00  -0.00    -0.00   0.00   0.00
  38   1     0.00   0.00  -0.00    -0.00  -0.00   0.00    -0.00  -0.00   0.00
  39   1     0.34  -0.46  -0.69     0.00  -0.00  -0.00    -0.01   0.02   0.03
  40   1    -0.04  -0.04   0.09    -0.00  -0.00   0.00     0.00   0.00  -0.00
  41   1     0.03   0.05   0.05    -0.01  -0.01  -0.00     0.00   0.00  -0.00
                    115                    116                    117
                        a                      a                      a 
 Frequencies --  3053.9601              3054.5833              3058.1079
 Red. masses --     1.7818                 1.9012                 1.7564
 Frc consts  --     0.0000                 0.0000                 0.0000
 IR Inten    --    11.8560                 8.5920                10.1559
 Raman Activ --     0.0000                 0.0000                 0.0000
 Depolar     --     0.0000                 0.0000                 0.0000
 Atom AN      X      Y      Z        X      Y      Z        X      Y      Z
   1   6    -0.01  -0.01   0.01     0.02   0.02  -0.02     0.00   0.00  -0.00
   2   6    -0.00  -0.00   0.00     0.00   0.00  -0.00     0.00  -0.00   0.00
   3   8     0.00   0.00   0.00    -0.00  -0.00   0.00    -0.00   0.00  -0.00
   4  15    -0.00  -0.00  -0.00     0.00  -0.00  -0.00    -0.00   0.00   0.00
   5  16     0.00  -0.00   0.00    -0.00   0.00   0.00    -0.00  -0.00  -0.00
   6   8     0.00   0.00   0.00     0.00   0.00   0.00    -0.00   0.00  -0.00
   7   6    -0.00  -0.00   0.00    -0.01  -0.01   0.01     0.00  -0.00  -0.00
   8   6    -0.00  -0.03   0.03    -0.03  -0.20   0.19     0.00  -0.00  -0.00
   9  16     0.00  -0.00  -0.00    -0.00  -0.00  -0.00     0.00  -0.00  -0.00
  10   6     0.00   0.00   0.00     0.00  -0.00  -0.00     0.00   0.00   0.00
  11  16    -0.00  -0.00   0.00    -0.00  -0.00   0.00    -0.00  -0.00   0.00
  12  15     0.00  -0.00   0.00    -0.00  -0.00  -0.00     0.00  -0.00  -0.00
  13  16     0.00   0.00   0.00     0.00   0.00   0.00     0.00   0.00  -0.00
  14   8     0.00   0.00  -0.00    -0.00  -0.00   0.00    -0.00  -0.00   0.00
  15   6    -0.00  -0.01   0.00     0.00   0.00  -0.00     0.00   0.00   0.00
  16   6     0.01  -0.26   0.02    -0.00   0.04  -0.01     0.00   0.01  -0.00
  17   8     0.00  -0.00  -0.00    -0.00  -0.00  -0.00    -0.00   0.00   0.00
  18   6    -0.00   0.00   0.00    -0.00  -0.00   0.00    -0.00  -0.01  -0.00
  19   6    -0.01   0.01   0.01     0.00  -0.00   0.00    -0.17  -0.17  -0.10
  20   1    -0.01   0.02  -0.00     0.02  -0.04   0.01    -0.00   0.00  -0.00
  21   1     0.00  -0.00   0.00     0.00   0.00  -0.00    -0.00   0.00  -0.00
  22   1     0.02   0.01  -0.02    -0.09  -0.05   0.06    -0.01  -0.00   0.01
  23   1    -0.00   0.00  -0.00     0.00  -0.00   0.00    -0.00   0.00  -0.00
  24   1     0.00  -0.00   0.00    -0.00  -0.00  -0.00    -0.00   0.00  -0.00
  25   1     0.00   0.00  -0.00     0.03   0.00  -0.02    -0.00  -0.00   0.00
  26   1    -0.00   0.00   0.00    -0.00   0.01   0.01    -0.00   0.00   0.00
  27   1     0.04   0.00  -0.02     0.27   0.02  -0.14    -0.01  -0.00   0.01
  28   1    -0.00  -0.01   0.00    -0.04   0.08   0.08    -0.00   0.00   0.00
  29   1    -0.02   0.10  -0.10    -0.13   0.61  -0.62    -0.00   0.00  -0.00
  30   1    -0.00  -0.00  -0.00     0.00   0.00   0.00    -0.00  -0.00  -0.00
  31   1     0.00  -0.00   0.00    -0.00   0.00  -0.00     0.00  -0.00   0.00
  32   1     0.01   0.01   0.01    -0.00  -0.00  -0.00    -0.00  -0.00  -0.00
  33   1     0.00   0.00  -0.01    -0.00  -0.00   0.00    -0.00  -0.00   0.00
  34   1     0.02   0.02  -0.11    -0.01  -0.01   0.03    -0.00  -0.01   0.02
  35   1    -0.07   0.93   0.05     0.01  -0.14  -0.01     0.00  -0.03  -0.00
  36   1     0.00  -0.03   0.01     0.00   0.01  -0.00    -0.00  -0.00  -0.00
  37   1     0.00  -0.00  -0.00    -0.00  -0.00  -0.00    -0.01   0.01   0.01
  38   1    -0.00  -0.00   0.00     0.00   0.00  -0.00     0.00   0.01  -0.01
  39   1     0.03  -0.04  -0.06    -0.00   0.00   0.00    -0.05   0.01   0.04
  40   1    -0.01  -0.01   0.02     0.00   0.00  -0.00    -0.02  -0.02  -0.02
  41   1     0.02   0.02   0.01    -0.01  -0.00  -0.00     0.67   0.60   0.35
