      -----------------------------------------------------------      
     |                   =====================                   |     
     |                           x T B                           |     
     |                   =====================                   |     
     |                         S. Grimme                         |     
     |          Mulliken Center for Theoretical Chemistry        |     
     |                    University of Bonn                     |     
      -----------------------------------------------------------      

   * xtb version 6.7.1 (edcfbbe) compiled by 'albert@albert-system' on 2024-07-22

   xtb is free software: you can redistribute it and/or modify it under
   the terms of the GNU Lesser General Public License as published by
   the Free Software Foundation, either version 3 of the License, or
   (at your option) any later version.
   
   xtb is distributed in the hope that it will be useful,
   but WITHOUT ANY WARRANTY; without even the implied warranty of
   MERCHANTABILITY or FITNESS FOR A PARTICULAR PURPOSE.  See the
   GNU Lesser General Public License for more details.
   
   Cite this work as:
   * C. Bannwarth, E. Caldeweyher, S. Ehlert, A. Hansen, P. Pracht,
     J. Seibert, S. Spicher, S. Grimme, WIREs Comput. Mol. Sci., 2020, 11,
     e01493. DOI: 10.1002/wcms.1493
   
   for GFN2-xTB:
   * C. Bannwarth, S. Ehlert and S. Grimme., J. Chem. Theory Comput., 2019,
     15, 1652-1671. DOI: 10.1021/acs.jctc.8b01176
   for GFN1-xTB:
   * S. Grimme, C. Bannwarth, P. Shushkov, J. Chem. Theory Comput., 2017,
     13, 1989-2009. DOI: 10.1021/acs.jctc.7b00118
   for GFN0-xTB:
   * P. Pracht, E. Caldeweyher, S. Ehlert, S. Grimme, ChemRxiv, 2019, preprint.
     DOI: 10.26434/chemrxiv.8326202.v1
   for GFN-FF:
   * S. Spicher and S. Grimme, Angew. Chem. Int. Ed., 2020, 59, 15665-15673.
     DOI: 10.1002/anie.202004239
   
   for ALPB and GBSA implicit solvation:
   * S. Ehlert, M. Stahn, S. Spicher, S. Grimme, J. Chem. Theory Comput.,
     2021, 17, 4250-4261. DOI: 10.1021/acs.jctc.1c00471
   
   for ddCOSMO and CPCM-X implicit solvation:
   * M. Stahn, S. Ehlert, S. Grimme, J. Phys. Chem. A,
     2023, XX, XXXX-XXXX. DOI: 10.1021/acs.jpca.3c04382
   
   for DFT-D4:
   * E. Caldeweyher, C. Bannwarth and S. Grimme, J. Chem. Phys., 2017,
     147, 034112. DOI: 10.1063/1.4993215
   * E. Caldeweyher, S. Ehlert, A. Hansen, H. Neugebauer, S. Spicher,
     C. Bannwarth and S. Grimme, J. Chem. Phys., 2019, 150, 154122.
     DOI: 10.1063/1.5090222
   * E. Caldeweyher, J.-M. Mewes, S. Ehlert and S. Grimme, Phys. Chem. Chem. Phys.
     2020, 22, 8499-8512. DOI: 10.1039/D0CP00502A
   
   for sTDA-xTB:
   * S. Grimme and C. Bannwarth, J. Chem. Phys., 2016, 145, 054103.
     DOI: 10.1063/1.4959605
   
   in the mass-spec context:
   * V. Asgeirsson, C. Bauer and S. Grimme, Chem. Sci., 2017, 8, 4879.
     DOI: 10.1039/c7sc00601b
   * J. Koopman and S. Grimme, ACS Omega 2019, 4, 12, 15120-15133.
     DOI: 10.1021/acsomega.9b02011
   
   for metadynamics refer to:
   * S. Grimme, J. Chem. Theory Comput., 2019, 155, 2847-2862
     DOI: 10.1021/acs.jctc.9b00143
   
   for SPH calculations refer to:
   * S. Spicher and S. Grimme, J. Chem. Theory Comput., 2021, 17, 1701-1714
     DOI: 10.1021/acs.jctc.0c01306
   
   for ONIOM refer to:
   * C. Plett, A. Katbashev, S. Ehlert, S. Grimme, M. Bursch,
     Phys. Chem. Chem. Phys., 2023, 25, 17860-17868. DOI: 10.1039/D3CP02178E
   
   for DIPRO refer to:
   * J. Kohn, N. Gildemeister, S. Grimme, D. Fazzi, A. Hansen,
     J. Chem. Phys., 2023, just accepted.
   
   for PTB refer to:
   * S. Grimme, M. Mueller, A. Hansen, J. Chem. Phys., 2023, 158, 124111.
     DOI: 10.1063/5.0137838
   
   with help from (in alphabetical order)
   P. Atkinson, C. Bannwarth, F. Bohle, G. Brandenburg, E. Caldeweyher
   M. Checinski, S. Dohm, S. Ehlert, S. Ehrlich, I. Gerasimov, C. Hölzer
   A. Katbashev, J. Kohn, J. Koopman, C. Lavigne, S. Lehtola, F. März, M. Müller,
   F. Musil, H. Neugebauer, J. Pisarek, C. Plett, P. Pracht, F. Pultar,
   J. Seibert, P. Shushkov, S. Spicher, M. Stahn, M. Steiner, T. Strunk,
   J. Stückrath, T. Rose, and J. Unsleber
   
 * started run on 2025/04/09 at 13:58:47.199     
   ID    Z sym.   atoms
    1    6 C      1, 2, 7, 8, 10, 15, 16, 18, 19
    2    8 O      3, 6, 14, 17
    3   15 P      4, 12
    4   16 S      5, 9, 11, 13
    5    1 H      20-41

           -------------------------------------------------
          |                Calculation Setup                |
           -------------------------------------------------

          program call               : /srv/scratch/z5358697/.xtb/bin/xtb xtb_rrho.coord --gfn2 --bhess vtight --chrg 0 --enso --norestart -I rrho-xcontrol-inp --parallel 1 --alpb water
          hostname                   : k163
          coordinate file            : xtb_rrho.coord
          omp threads                :                     1


           -------------------------------------------------
          |                 G F N 2 - x T B                 |
           -------------------------------------------------

        Reference                      10.1021/acs.jctc.8b01176
      * Hamiltonian:
        H0-scaling (s, p, d)           1.850000    2.230000    2.230000
        zeta-weighting                 0.500000
      * Dispersion:
        s8                             2.700000
        a1                             0.520000
        a2                             5.000000
        s9                             5.000000
      * Repulsion:
        kExp                           1.500000    1.000000
        rExp                           1.000000
      * Coulomb:
        alpha                          2.000000
        third order                    shell-resolved
        anisotropic                    true
        a3                             3.000000
        a5                             4.000000
        cn-shift                       1.200000
        cn-exp                         4.000000
        max-rad                        5.000000

      * Solvation model:               ALPB
        Solvent                        water
        Parameter file                 internal GFN2-xTB/ALPB
        Dielectric constant                8.0200E+01
        Reference state                gsolv [1 M gas/solution]
        Free energy shift                  1.0808E-03 Eh       6.7819E-01 kcal/mol
        Temperature                        2.9815E+02 K
        Density                            1.0000E+00 kg/L
        Solvent mass                       1.8000E+01 g/mol
        Interaction kernel             P16
        Born radius scaling (c1)           1.4744E+00
        Born radii integrator          GBOBC
        Born offset                        0.0000E+00 a0       0.0000E+00 AA
        H-bond correction              true
        Ion screening                  false
        Surface tension                    1.0000E-05 Eh       1.5569E+01 dyn/cm
        Grid points                               974 per atom

          ...................................................
          :                      SETUP                      :
          :.................................................:
          :  # basis functions                 134          :
          :  # atomic orbitals                 128          :
          :  # shells                           66          :
          :  # electrons                       116          :
          :  max. iterations                   250          :
          :  Hamiltonian                  GFN2-xTB          :
          :  restarted?                      false          :
          :  GBSA solvation                   true          :
          :  PC potential                    false          :
          :  electronic temp.          300.0000000     K    :
          :  accuracy                    1.0000000          :
          :  -> integral cutoff          0.2500000E+02      :
          :  -> integral neglect         0.1000000E-07      :
          :  -> SCF convergence          0.1000000E-05 Eh   :
          :  -> wf. convergence          0.1000000E-03 e    :
          :  Broyden damping             0.4000000          :
          :  net charge                          0          :
          :  unpaired electrons                  0          :
          ...................................................

 iter      E             dE          RMSdq      gap      omega  full diag
   1    -65.4123220 -0.654123E+02  0.642E+00    4.40       0.0  T
   2    -65.5328981 -0.120576E+00  0.358E+00    3.71       1.0  T
   3    -65.5518301 -0.189320E-01  0.104E+00    3.23       1.0  T
   4    -65.5551268 -0.329674E-02  0.487E-01    3.15       1.0  T
   5    -65.5558633 -0.736445E-03  0.248E-01    3.22       1.0  T
   6    -65.5560610 -0.197787E-03  0.113E-01    3.22       1.0  T
   7    -65.5561046 -0.435965E-04  0.414E-02    3.24       1.0  T
   8    -65.5561085 -0.382952E-05  0.170E-02    3.24       1.0  T
   9    -65.5561092 -0.722480E-06  0.510E-03    3.24       3.1  T
  10    -65.5561092 -0.700113E-08  0.266E-03    3.24       5.9  T
  11    -65.5561092 -0.425742E-07  0.742E-04    3.24      21.0  T
  12    -65.5561092 -0.118861E-08  0.311E-04    3.24      50.1  T

   *** convergence criteria satisfied after 12 iterations ***

         #    Occupation            Energy/Eh            Energy/eV
      -------------------------------------------------------------
         1        2.0000           -0.7618918             -20.7321
       ...           ...                  ...                  ...
        52        2.0000           -0.4483094             -12.1991
        53        2.0000           -0.4178581             -11.3705
        54        2.0000           -0.4143063             -11.2738
        55        2.0000           -0.3961021             -10.7785
        56        2.0000           -0.3943273             -10.7302
        57        2.0000           -0.3915888             -10.6557
        58        2.0000           -0.3893713             -10.5953 (HOMO)
        59                         -0.2701521              -7.3512 (LUMO)
        60                         -0.2440844              -6.6419
        61                         -0.2307660              -6.2795
        62                         -0.1982742              -5.3953
        63                         -0.1807116              -4.9174
       ...                                ...                  ...
       128                          1.2420107              33.7968
      -------------------------------------------------------------
                  HL-Gap            0.1192192 Eh            3.2441 eV
             Fermi-level           -0.3297617 Eh           -8.9733 eV

 SCC (total)                   0 d,  0 h,  0 min,  0.111 sec
 SCC setup                      ...        0 min,  0.002 sec (  2.242%)
 Dispersion                     ...        0 min,  0.000 sec (  0.269%)
 classical contributions        ...        0 min,  0.000 sec (  0.053%)
 integral evaluation            ...        0 min,  0.039 sec ( 35.348%)
 iterations                     ...        0 min,  0.047 sec ( 42.551%)
 molecular gradient             ...        0 min,  0.021 sec ( 19.338%)
 printout                       ...        0 min,  0.000 sec (  0.185%)

         :::::::::::::::::::::::::::::::::::::::::::::::::::::
         ::                     SUMMARY                     ::
         :::::::::::::::::::::::::::::::::::::::::::::::::::::
         :: total energy             -65.016698466875 Eh    ::
         :: total w/o Gsasa/hb       -65.018506924117 Eh    ::
         :: gradient norm              0.052849710352 Eh/a0 ::
         :: HOMO-LUMO gap              3.244119413029 eV    ::
         ::.................................................::
         :: SCC energy               -65.555242358008 Eh    ::
         :: -> isotropic ES            0.125576989784 Eh    ::
         :: -> anisotropic ES         -0.013713509359 Eh    ::
         :: -> anisotropic XC          0.031553506966 Eh    ::
         :: -> dispersion             -0.049529481867 Eh    ::
         :: -> Gsolv                  -0.020721855306 Eh    ::
         ::    -> Gelec               -0.022530312548 Eh    ::
         ::    -> Gsasa                0.004882011587 Eh    ::
         ::    -> Ghb                 -0.004154314043 Eh    ::
         ::    -> Gshift               0.001080759698 Eh    ::
         :: repulsion energy           0.538543891133 Eh    ::
         :: add. restraining           0.000000000000 Eh    ::
         :: total charge               0.000000000000 e     ::
         :::::::::::::::::::::::::::::::::::::::::::::::::::::

metadynamics with 1 initial structures loaded
           -------------------------------------------------
          |           Optimal kpush determination           |
           -------------------------------------------------
      ----------------------------------------------------------- 
     |                   =====================                   |
     |                        A N C O P T                        |
     |                   =====================                   |
     |               Approximate Normal Coordinate               |
     |                Rational Function Optimizer                |
      ----------------------------------------------------------- 
target rmsd / Å         0.100000
unbiased initial rmsd   0.230873
 
iter. min.        max.        rmsd       kpush
      ----------------------------------------------------------- 
     |                   =====================                   |
     |                        A N C O P T                        |
     |                   =====================                   |
     |               Approximate Normal Coordinate               |
     |                Rational Function Optimizer                |
      ----------------------------------------------------------- 
 1    0.000000    1.863636    0.016275   -0.931818
      ----------------------------------------------------------- 
     |                   =====================                   |
     |                        A N C O P T                        |
     |                   =====================                   |
     |               Approximate Normal Coordinate               |
     |                Rational Function Optimizer                |
      ----------------------------------------------------------- 
 2    0.000000    0.931818    0.022908   -0.465909
      ----------------------------------------------------------- 
     |                   =====================                   |
     |                        A N C O P T                        |
     |                   =====================                   |
     |               Approximate Normal Coordinate               |
     |                Rational Function Optimizer                |
      ----------------------------------------------------------- 
 3    0.000000    0.465909    0.033057   -0.232955
      ----------------------------------------------------------- 
     |                   =====================                   |
     |                        A N C O P T                        |
     |                   =====================                   |
     |               Approximate Normal Coordinate               |
     |                Rational Function Optimizer                |
      ----------------------------------------------------------- 
 4    0.000000    0.232955    0.047979   -0.116477
      ----------------------------------------------------------- 
     |                   =====================                   |
     |                        A N C O P T                        |
     |                   =====================                   |
     |               Approximate Normal Coordinate               |
     |                Rational Function Optimizer                |
      ----------------------------------------------------------- 
 5    0.000000    0.116477    0.068019   -0.058239
      ----------------------------------------------------------- 
     |                   =====================                   |
     |                        A N C O P T                        |
     |                   =====================                   |
     |               Approximate Normal Coordinate               |
     |                Rational Function Optimizer                |
      ----------------------------------------------------------- 
 6    0.000000    0.058239    0.093042   -0.029119
      ----------------------------------------------------------- 
     |                   =====================                   |
     |                        A N C O P T                        |
     |                   =====================                   |
     |               Approximate Normal Coordinate               |
     |                Rational Function Optimizer                |
      ----------------------------------------------------------- 
 7    0.000000    0.029119    0.120709   -0.014560
      ----------------------------------------------------------- 
     |                   =====================                   |
     |                        A N C O P T                        |
     |                   =====================                   |
     |               Approximate Normal Coordinate               |
     |                Rational Function Optimizer                |
      ----------------------------------------------------------- 
 8    0.014560    0.029119    0.104265   -0.021839
      ----------------------------------------------------------- 
     |                   =====================                   |
     |                        A N C O P T                        |
     |                   =====================                   |
     |               Approximate Normal Coordinate               |
     |                Rational Function Optimizer                |
      ----------------------------------------------------------- 
 9    0.021839    0.029119    0.098291   -0.025479
      ----------------------------------------------------------- 
     |                   =====================                   |
     |                        A N C O P T                        |
     |                   =====================                   |
     |               Approximate Normal Coordinate               |
     |                Rational Function Optimizer                |
      ----------------------------------------------------------- 
10    0.021839    0.025479    0.101185   -0.023659
final kpush: -0.023659
           -------------------------------------------------
          |            Biased Numerical Hessian             |
           -------------------------------------------------
kpush                :  -0.02366
alpha                :   1.00000
step length          :   0.00500
SCC accuracy         :   0.30000
Hessian scale factor :   1.00000
frozen atoms in %    :   0.00000    0
RMS gradient         :   0.00005
estimated CPU  time      0.18 min
estimated wall time      0.18 min

writing file <hessian>.

 projected vibrational frequencies (cm⁻¹)
eigval :       -0.00    -0.00    -0.00    -0.00     0.00     0.00
eigval :       47.38    49.47    54.04    62.31    65.35    61.53
eigval :       64.48    68.35    76.52    81.09    79.18    87.41
eigval :       99.66   110.89   101.20   120.48   135.90   146.16
eigval :      161.88   178.18   194.55   226.88   209.83   238.44
eigval :      235.97   227.14   247.14   285.40   293.22   294.34
eigval :      312.08   320.87   332.42   369.74   370.51   449.66
eigval :      459.13   486.27   494.26   619.86   629.52   657.16
eigval :      680.69   733.54   737.77   778.51   785.77   791.67
eigval :      821.74   822.01   825.46   826.56   901.84   915.97
eigval :      930.69   938.88  1037.70  1038.30  1054.98  1056.00
eigval :     1074.30  1095.52  1099.04  1099.89  1100.28  1129.31
eigval :     1130.14  1132.88  1134.53  1157.42  1236.81  1237.10
eigval :     1237.90  1238.40  1311.93  1311.67  1314.78  1313.09
eigval :     1344.14  1391.89  1391.99  1393.02  1396.74  1433.82
eigval :     1436.73  1451.97  1455.15  1455.96  1457.72  1461.10
eigval :     1465.61  1474.29  1475.49  1479.04  1484.04  2913.91
eigval :     2914.12  2924.55  2927.05  2950.40  2953.13  2957.30
eigval :     2978.24  2985.03  3009.52  3021.89  3028.93  3041.43
eigval :     3043.13  3048.32  3052.26  3054.17  3055.28  3057.27
eigval :     3057.39  3060.00  3060.70
           -------------------------------------------------
          |                Property Printout                |
           -------------------------------------------------

    * Orbital Energies and Occupations

         #    Occupation            Energy/Eh            Energy/eV
      -------------------------------------------------------------
         1        2.0000           -0.7662408             -20.8505
       ...           ...                  ...                  ...
        46        2.0000           -0.4699402             -12.7877
        47        2.0000           -0.4612915             -12.5524
        48        2.0000           -0.4576840             -12.4542
        49        2.0000           -0.4538375             -12.3495
        50        2.0000           -0.4501837             -12.2501
        51        2.0000           -0.4484964             -12.2042
        52        2.0000           -0.4480646             -12.1925
        53        2.0000           -0.4190893             -11.4040
        54        2.0000           -0.4132913             -11.2462
        55        2.0000           -0.3946883             -10.7400
        56        2.0000           -0.3919279             -10.6649
        57        2.0000           -0.3915159             -10.6537
        58        2.0000           -0.3890574             -10.5868 (HOMO)
        59                         -0.2702030              -7.3526 (LUMO)
        60                         -0.2472169              -6.7271
        61                         -0.2335972              -6.3565
        62                         -0.1973493              -5.3701
        63                         -0.1733470              -4.7170
        64                         -0.1672615              -4.5514
        65                         -0.1645948              -4.4789
        66                         -0.1583303              -4.3084
        67                         -0.1355689              -3.6890
        68                         -0.1223966              -3.3306
        69                         -0.0483645              -1.3161
       ...                                ...                  ...
       128                          1.2706759              34.5769
      -------------------------------------------------------------
                  HL-Gap            0.1188544 Eh            3.2342 eV
             Fermi-level           -0.3296302 Eh           -8.9697 eV

     #   Z          covCN         q      C6AA      α(0)
     1   6 C        3.751    -0.119    22.834     6.815
     2   6 C        3.865     0.074    19.306     6.248
     3   8 O        1.655    -0.262    18.355     5.783
     4  15 P        3.898     0.381   144.399    21.586
     5  16 S        0.926    -0.474   160.159    21.405
     6   8 O        1.654    -0.272    18.522     5.810
     7   6 C        3.906     0.085    19.117     6.215
     8   6 C        3.751    -0.134    23.139     6.860
     9  16 S        1.987    -0.130   146.503    20.372
    10   6 C        3.812     0.030    20.067     6.376
    11  16 S        1.986    -0.099   145.204    20.281
    12  15 P        3.847     0.376   144.614    21.602
    13  16 S        0.926    -0.479   160.399    21.421
    14   8 O        1.655    -0.262    18.362     5.785
    15   6 C        3.847     0.074    19.321     6.252
    16   6 C        3.751    -0.131    23.081     6.851
    17   8 O        1.655    -0.261    18.343     5.782
    18   6 C        3.861     0.085    19.142     6.222
    19   6 C        3.751    -0.128    23.021     6.842
    20   1 H        0.924     0.050     2.320     2.382
    21   1 H        0.925     0.081     1.966     2.192
    22   1 H        0.925     0.063     2.162     2.299
    23   1 H        0.924     0.066     2.125     2.279
    24   1 H        0.924     0.094     1.845     2.124
    25   1 H        0.924     0.069     2.092     2.262
    26   1 H        0.924     0.057     2.239     2.340
    27   1 H        0.925     0.076     2.025     2.225
    28   1 H        0.925     0.086     1.923     2.169
    29   1 H        0.925     0.069     2.091     2.261
    30   1 H        0.925     0.106     1.735     2.060
    31   1 H        0.925     0.114     1.659     2.014
    32   1 H        0.924     0.065     2.142     2.289
    33   1 H        0.924     0.092     1.857     2.131
    34   1 H        0.925     0.086     1.922     2.168
    35   1 H        0.925     0.072     2.061     2.245
    36   1 H        0.925     0.056     2.242     2.342
    37   1 H        0.924     0.069     2.096     2.264
    38   1 H        0.924     0.057     2.241     2.341
    39   1 H        0.925     0.084     1.937     2.176
    40   1 H        0.925     0.061     2.191     2.315
    41   1 H        0.925     0.074     2.044     2.236

 Mol. C6AA /au·bohr⁶  :      26411.581155
 Mol. C8AA /au·bohr⁸  :     862507.634263
 Mol. α(0) /au        :        257.624634


Wiberg/Mayer (AO) data.
largest (>0.10) Wiberg bond orders for each atom

 ---------------------------------------------------------------------------
     #   Z sym  total        # sym  WBO       # sym  WBO       # sym  WBO
 ---------------------------------------------------------------------------
     1   6 C    3.989 --     2 C    1.022    22 H    0.980    21 H    0.977
                            20 H    0.975
     2   6 C    3.891 --     1 C    1.022    23 H    0.966    24 H    0.963
                             3 O    0.891
     3   8 O    2.404 --     4 P    1.304     2 C    0.891
     4  15 P    5.291 --     5 S    1.536     3 O    1.304     6 O    1.303
                             9 S    1.006
     5  16 S    1.829 --     4 P    1.536     9 S    0.100
     6   8 O    2.371 --     4 P    1.303     7 C    0.873
     7   6 C    3.891 --     8 C    1.020    25 H    0.971    26 H    0.965
                             6 O    0.873
     8   6 C    3.982 --     7 C    1.020    29 H    0.983    27 H    0.982
                            28 H    0.974
     9  16 S    2.279 --     4 P    1.006    10 C    0.977     5 S    0.100
    10   6 C    3.949 --    11 S    0.990     9 S    0.977    31 H    0.956
                            30 H    0.951
    11  16 S    2.303 --    12 P    0.999    10 C    0.990    13 S    0.134
    12  15 P    5.286 --    13 S    1.506    14 O    1.324    17 O    1.320
                            11 S    0.999
    13  16 S    1.837 --    12 P    1.506    11 S    0.134
    14   8 O    2.408 --    12 P    1.324    15 C    0.886
    15   6 C    3.887 --    16 C    1.022    32 H    0.968    33 H    0.964
                            14 O    0.886
    16   6 C    3.986 --    15 C    1.022    35 H    0.982    36 H    0.977
                            34 H    0.976
    17   8 O    2.392 --    12 P    1.320    18 C    0.877
    18   6 C    3.894 --    19 C    1.020    37 H    0.971    38 H    0.965
                            17 O    0.877
    19   6 C    3.983 --    18 C    1.020    40 H    0.984    41 H    0.982
                            39 H    0.975
    20   1 H    0.997 --     1 C    0.975
    21   1 H    0.993 --     1 C    0.977
    22   1 H    0.996 --     1 C    0.980
    23   1 H    0.996 --     2 C    0.966
    24   1 H    0.991 --     2 C    0.963
    25   1 H    0.995 --     7 C    0.971
    26   1 H    0.997 --     7 C    0.965
    27   1 H    0.994 --     8 C    0.982
    28   1 H    0.991 --     8 C    0.974
    29   1 H    0.995 --     8 C    0.983
    30   1 H    0.987 --    10 C    0.951
    31   1 H    0.987 --    10 C    0.956
    32   1 H    0.996 --    15 C    0.968
    33   1 H    0.991 --    15 C    0.964
    34   1 H    0.992 --    16 C    0.976
    35   1 H    0.995 --    16 C    0.982
    36   1 H    0.997 --    16 C    0.977
    37   1 H    0.995 --    18 C    0.971
    38   1 H    0.997 --    18 C    0.965
    39   1 H    0.991 --    19 C    0.975
    40   1 H    0.996 --    19 C    0.984
    41   1 H    0.994 --    19 C    0.982
 ---------------------------------------------------------------------------

Topologies differ in total number of bonds
Writing topology from bond orders to xtbtopo.mol

molecular dipole:
                 x           y           z       tot (Debye)
 q only:       -0.607       0.402       2.759
   full:       -0.719       0.465       2.833       7.521
molecular quadrupole (traceless):
                xx          xy          yy          xz          yz          zz
 q only:       12.033      25.062      -3.064       2.215       5.034      -8.969
  q+dip:       14.022      28.444      -6.241       2.172       1.502      -7.781
   full:       15.531      28.521      -6.743       2.889       2.410      -8.789

           -------------------------------------------------
          |                Geometry Summary                 |
           -------------------------------------------------

      molecular mass/u    :      384.4756129
   center of mass at/Å    :        0.0172830       0.0202155      -0.0412926
  moments of inertia/u·Å² :        0.1351497E+04   0.3733760E+04   0.4133102E+04
rotational constants/cm⁻¹ :        0.1247331E-01   0.4514921E-02   0.4078688E-02

 * 38 selected distances

     #   Z          #   Z                                           value/Å
     1   6 C        2   6 C                                       1.5146477
     2   6 C        3   8 O                                       1.4360198
     3   8 O        4  15 P                                       1.5985657
     4  15 P        5  16 S                                       1.9592678
     4  15 P        6   8 O                                       1.5894171
     6   8 O        7   6 C                                       1.4504247
     7   6 C        8   6 C                                       1.5144345
     4  15 P        9  16 S                                       2.1054055 (max)
    11  16 S       12  15 P                                       2.1049906
    12  15 P       13  16 S                                       1.9658631
    12  15 P       14   8 O                                       1.5920100
    14   8 O       15   6 C                                       1.4389216
    15   6 C       16   6 C                                       1.5151483
    12  15 P       17   8 O                                       1.5836457
    17   8 O       18   6 C                                       1.4449264
    18   6 C       19   6 C                                       1.5148606
     1   6 C       20   1 H                                       1.0902674
     1   6 C       21   1 H                                       1.0853115
     1   6 C       22   1 H                                       1.0874509
     2   6 C       23   1 H                                       1.0951324
     2   6 C       24   1 H                                       1.0905478
     7   6 C       25   1 H                                       1.0924728
     7   6 C       26   1 H                                       1.0956001
     8   6 C       27   1 H                                       1.0859442
     8   6 C       28   1 H                                       1.0856796
     8   6 C       29   1 H                                       1.0863442
    10   6 C       30   1 H                                       1.0905219
    10   6 C       31   1 H                                       1.0855891
    15   6 C       32   1 H                                       1.0946939
    15   6 C       33   1 H                                       1.0911219
    16   6 C       34   1 H                                       1.0857579
    16   6 C       35   1 H                                       1.0867917
    16   6 C       36   1 H                                       1.0889407
    18   6 C       37   1 H                                       1.0926635
    18   6 C       38   1 H                                       1.0955683
    19   6 C       39   1 H                                       1.0852260 (min)
    19   6 C       40   1 H                                       1.0874581
    19   6 C       41   1 H                                       1.0861822

 * 5 distinct bonds (by element types)

   Z      Z             #   av. dist./Å        max./Å        min./Å
   1 H    6 C          22     1.0893303     1.0956001     1.0852260
   6 C    6 C           4     1.5147728     1.5151483     1.5144345
   6 C    8 O           4     1.4425731     1.4504247     1.4360198
   8 O   15 P           4     1.5909096     1.5985657     1.5836457
  15 P   16 S           4     2.0338817     2.1054055     1.9592678

           -------------------------------------------------
          |               Frequency Printout                |
           -------------------------------------------------
 projected vibrational frequencies (cm⁻¹)
eigval :       -0.00    -0.00    -0.00    -0.00     0.00     0.00
eigval :       47.38    49.47    54.04    62.31    65.35    61.53
eigval :       64.48    68.35    76.52    81.09    79.18    87.41
eigval :       99.66   110.89   101.20   120.48   135.90   146.16
eigval :      161.88   178.18   194.55   226.88   209.83   238.44
eigval :      235.97   227.14   247.14   285.40   293.22   294.34
eigval :      312.08   320.87   332.42   369.74   370.51   449.66
eigval :      459.13   486.27   494.26   619.86   629.52   657.16
eigval :      680.69   733.54   737.77   778.51   785.77   791.67
eigval :      821.74   822.01   825.46   826.56   901.84   915.97
eigval :      930.69   938.88  1037.70  1038.30  1054.98  1056.00
eigval :     1074.30  1095.52  1099.04  1099.89  1100.28  1129.31
eigval :     1130.14  1132.88  1134.53  1157.42  1236.81  1237.10
eigval :     1237.90  1238.40  1311.93  1311.67  1314.78  1313.09
eigval :     1344.14  1391.89  1391.99  1393.02  1396.74  1433.82
eigval :     1436.73  1451.97  1455.15  1455.96  1457.72  1461.10
eigval :     1465.61  1474.29  1475.49  1479.04  1484.04  2913.91
eigval :     2914.12  2924.55  2927.05  2950.40  2953.13  2957.30
eigval :     2978.24  2985.03  3009.52  3021.89  3028.93  3041.43
eigval :     3043.13  3048.32  3052.26  3054.17  3055.28  3057.27
eigval :     3057.39  3060.00  3060.70
 reduced masses (amu)
   1: 15.46   2: 19.93   3: 20.04   4: 21.35   5: 21.80   6: 19.89   7: 26.35   8: 21.57
   9: 19.20  10: 23.66  11: 20.33  12: 14.36  13: 14.39  14: 14.45  15: 13.78  16: 13.51
  17: 13.07  18: 10.81  19: 16.47  20: 16.18  21: 10.55  22: 16.57  23: 16.35  24: 15.69
  25: 17.99  26: 17.66  27: 16.65  28: 11.21  29:  7.51  30: 11.98  31:  8.75  32:  5.16
  33:  8.76  34: 14.89  35: 14.35  36: 10.01  37: 17.80  38: 19.58  39: 22.53  40: 16.09
  41: 16.00  42: 21.13  43: 20.58  44: 18.50  45: 21.32  46: 25.64  47: 25.73  48: 18.18
  49: 17.05  50: 21.93  51: 20.71  52: 19.50  53: 19.70  54:  6.29  55:  2.69  56:  2.74
  57:  2.42  58:  2.41  59: 13.22  60: 13.10  61: 11.28  62: 11.92  63:  8.40  64:  8.26
  65:  9.54  66:  9.46  67:  1.57  68:  7.84  69:  7.74  70:  7.85  71:  7.89  72:  4.84
  73:  4.83  74:  5.26  75:  5.29  76:  2.22  77:  2.33  78:  2.32  79:  2.30  80:  2.31
  81:  3.08  82:  3.09  83:  3.09  84:  3.00  85:  1.76  86:  3.14  87:  3.13  88:  3.09
  89:  3.10  90:  1.94  91:  1.94  92:  1.90  93:  1.86  94:  1.54  95:  1.50  96:  1.50
  97:  1.49  98:  1.56  99:  1.56 100:  1.56 101:  1.56 102:  1.80 103:  1.80 104:  1.73
 105:  1.74 106:  1.66 107:  1.67 108:  1.71 109:  1.73 110:  1.73 111:  1.75 112:  1.76
 113:  1.83 114:  1.75 115:  1.67 116:  1.64 117:  1.87 118:  1.59 119:  1.34 120:  1.96
 121:  1.78 122:  1.76 123:  1.81
 IR intensities (km·mol⁻¹)
   1:  1.27   2:  0.18   3:  0.35   4:  0.01   5:  0.02   6:  0.45   7:  2.27   8:  1.81
   9:  0.63  10:  3.41  11:  3.65  12:  5.67  13:  2.89  14:  3.91  15:  2.02  16:  1.48
  17:  4.35  18:  0.29  19:  0.77  20:  1.72  21:  1.77  22:  4.80  23:  7.10  24: 16.03
  25:  4.83  26: 17.93  27: 18.65  28: 28.18  29:  0.52  30:  5.00  31:  4.79  32:  5.23
  33:  2.61  34: 19.48  35:  1.44  36:  3.07  37:  7.44  38: 14.58  39:  7.72  40: 30.77
  41:  5.03  42: 97.36  43: 44.68  44:229.28  45: 20.29  46:216.86  47: 58.96  48:  7.35
  49: 42.92  50:273.90  51:218.70  52:256.73  53:277.78  54: 19.32  55:  6.09  56:  1.78
  57:  2.12  58:  2.45  59:355.52  60:355.62  61: 83.28  62: 92.53  63:172.06  64: 80.84
  65:140.72  66:136.22  67:  3.30  68: 10.91  69:  4.92  70: 47.89  71:  4.34  72: 13.68
  73: 17.13  74: 16.50  75: 17.39  76: 53.34  77:  1.10  78:  0.23  79:  5.37  80:  3.66
  81:  3.48  82:  4.71  83:  3.39  84:  3.57  85: 11.86  86: 26.48  87:  9.52  88:  4.48
  89:  4.45  90:  7.76  91:  7.60  92:  0.94  93:  1.23  94:  6.86  95:  6.07  96:  9.18
  97:  6.54  98:  7.54  99:  3.24 100:  2.39 101:  6.23 102: 29.72 103: 29.93 104: 33.30
 105: 23.01 106: 30.21 107: 25.03 108: 17.86 109:  9.58 110:  2.83 111: 50.78 112: 52.63
 113:  9.89 114: 35.54 115: 14.49 116: 17.65 117: 25.04 118: 18.36 119: 10.17 120: 19.39
 121:  9.64 122:  9.15 123: 11.78
 Raman intensities (Ä⁴*amu⁻¹)
   1:  0.00   2:  0.00   3:  0.00   4:  0.00   5:  0.00   6:  0.00   7:  0.00   8:  0.00
   9:  0.00  10:  0.00  11:  0.00  12:  0.00  13:  0.00  14:  0.00  15:  0.00  16:  0.00
  17:  0.00  18:  0.00  19:  0.00  20:  0.00  21:  0.00  22:  0.00  23:  0.00  24:  0.00
  25:  0.00  26:  0.00  27:  0.00  28:  0.00  29:  0.00  30:  0.00  31:  0.00  32:  0.00
  33:  0.00  34:  0.00  35:  0.00  36:  0.00  37:  0.00  38:  0.00  39:  0.00  40:  0.00
  41:  0.00  42:  0.00  43:  0.00  44:  0.00  45:  0.00  46:  0.00  47:  0.00  48:  0.00
  49:  0.00  50:  0.00  51:  0.00  52:  0.00  53:  0.00  54:  0.00  55:  0.00  56:  0.00
  57:  0.00  58:  0.00  59:  0.00  60:  0.00  61:  0.00  62:  0.00  63:  0.00  64:  0.00
  65:  0.00  66:  0.00  67:  0.00  68:  0.00  69:  0.00  70:  0.00  71:  0.00  72:  0.00
  73:  0.00  74:  0.00  75:  0.00  76:  0.00  77:  0.00  78:  0.00  79:  0.00  80:  0.00
  81:  0.00  82:  0.00  83:  0.00  84:  0.00  85:  0.00  86:  0.00  87:  0.00  88:  0.00
  89:  0.00  90:  0.00  91:  0.00  92:  0.00  93:  0.00  94:  0.00  95:  0.00  96:  0.00
  97:  0.00  98:  0.00  99:  0.00 100:  0.00 101:  0.00 102:  0.00 103:  0.00 104:  0.00
 105:  0.00 106:  0.00 107:  0.00 108:  0.00 109:  0.00 110:  0.00 111:  0.00 112:  0.00
 113:  0.00 114:  0.00 115:  0.00 116:  0.00 117:  0.00 118:  0.00 119:  0.00 120:  0.00
 121:  0.00 122:  0.00 123:  0.00
 output can be read by thermo (or use thermo option).
 writing <g98.out> molden fake output.
 recommended (thermochemical) frequency scaling factor: 1.0
           -------------------------------------------------
          |             Thermodynamic Functions             |
           -------------------------------------------------

Molecule has no symmetry elements
It seems to be the C1 point group
c1  symmetry found (for desy threshold:  0.10E+00) used in thermo

          ...................................................
          :                      SETUP                      :
          :.................................................:
          :  # frequencies                         117      :
          :  # imaginary freq.                       0      :
          :  linear?                             false      :
          :  only rotor calc.                    false      :
          :  symmetry                               c1      :
          :  rotational number                       1      :
          :  scaling factor                  1.0000000      :
          :  rotor cutoff                    0.0000000 cm⁻¹ :
          :  imag. cutoff                 -100.0000000 cm⁻¹ :
          :.................................................:

    mode    ω/cm⁻¹     T·S(HO)/kcal·mol⁻¹    T·S(FR)/kcal·mol⁻¹   T·S(vib)
   ------------------------------------------------------------------------
       1     47.38    -1.46801 (100.00%)    -1.07244 (  0.00%)    -1.46801
       2     49.47    -1.44263 (100.00%)    -1.05970 (  0.00%)    -1.44263
       3     54.04    -1.39051 (100.00%)    -1.03350 (  0.00%)    -1.39051
       4     62.31    -1.30672 (100.00%)    -0.99134 (  0.00%)    -1.30672
       5     65.35    -1.27871 (100.00%)    -0.97722 (  0.00%)    -1.27871
       6     61.53    -1.31414 (100.00%)    -0.99508 (  0.00%)    -1.31414
       7     64.48    -1.28659 (100.00%)    -0.98119 (  0.00%)    -1.28659
       8     68.35    -1.25228 (100.00%)    -0.96390 (  0.00%)    -1.25228
       9     76.52    -1.18611 (100.00%)    -0.93047 (  0.00%)    -1.18611
      10     81.09    -1.15215 (100.00%)    -0.91329 (  0.00%)    -1.15215
      11     79.18    -1.16607 (100.00%)    -0.92034 (  0.00%)    -1.16607
      12     87.41    -1.10830 (100.00%)    -0.89106 (  0.00%)    -1.10830
      13     99.66    -1.03190 (100.00%)    -0.85221 (  0.00%)    -1.03190
      14    110.89    -0.96995 (100.00%)    -0.82057 (  0.00%)    -0.96995
      15    101.20    -1.02299 (100.00%)    -0.84767 (  0.00%)    -1.02299
      16    120.48    -0.92206 (100.00%)    -0.79599 (  0.00%)    -0.92206
      17    135.90    -0.85295 (100.00%)    -0.76033 (  0.00%)    -0.85295
      18    146.16    -0.81147 (100.00%)    -0.73878 (  0.00%)    -0.81147
      19    161.88    -0.75362 (100.00%)    -0.70850 (  0.00%)    -0.75362
      20    178.18    -0.69989 (100.00%)    -0.68009 (  0.00%)    -0.69989
      21    194.55    -0.65118 (100.00%)    -0.65405 (  0.00%)    -0.65118
      22    226.88    -0.56753 (100.00%)    -0.60851 (  0.00%)    -0.56753
      23    209.83    -0.60975 (100.00%)    -0.63164 (  0.00%)    -0.60975
      24    238.44    -0.54100 (100.00%)    -0.59379 (  0.00%)    -0.54100
      25    235.97    -0.54654 (100.00%)    -0.59687 (  0.00%)    -0.54654
      26    227.14    -0.56691 (100.00%)    -0.60816 (  0.00%)    -0.56691
      27    247.14    -0.52202 (100.00%)    -0.58316 (  0.00%)    -0.52202
      28    285.40    -0.44755 (100.00%)    -0.54053 (  0.00%)    -0.44755
      29    293.22    -0.43389 (100.00%)    -0.53252 (  0.00%)    -0.43389
      30    294.34    -0.43199 (100.00%)    -0.53140 (  0.00%)    -0.43199
   ------------------------------------------------------------------------

   temp. (K)  partition function   enthalpy   heat capacity  entropy
                                   cal/mol     cal/K/mol   cal/K/mol   J/K/mol
 298.15  VIB  0.108E+13            15605.100     88.386    107.399
         ROT  0.110E+08              888.752      2.981     35.207
         INT  0.119E+20            16493.852     91.367    142.606
         TR   0.729E+28             1481.254      4.968     43.712
         TOT                       17975.1064    96.3352   186.3186   779.5569

       T/K    H(0)-H(T)+PV         H(T)/Eh          T*S/Eh         G(T)/Eh
   ------------------------------------------------------------------------
    298.15    0.286452E-01    0.341624E+00    0.885260E-01    0.253098E+00
   ------------------------------------------------------------------------

         :::::::::::::::::::::::::::::::::::::::::::::::::::::
         ::                  THERMODYNAMIC                  ::
         :::::::::::::::::::::::::::::::::::::::::::::::::::::
         :: total free energy         -64.794348624484 Eh   ::
         ::.................................................::
         :: total energy              -65.047446214280 Eh   ::
         :: zero point energy           0.312978402926 Eh   ::
         :: G(RRHO) w/o ZPVE           -0.059880813130 Eh   ::
         :: G(RRHO) contrib.            0.253097589796 Eh   ::
         :::::::::::::::::::::::::::::::::::::::::::::::::::::

optimized geometry written to: xtbopt.coord


           -------------------------------------------------
          | TOTAL ENERGY              -65.047446214280 Eh   |
          | TOTAL ENTHALPY            -64.705822655931 Eh   |
          | TOTAL FREE ENERGY         -64.794348624484 Eh   |
          | GRADIENT NORM               0.000046728324 Eh/α |
          | HOMO-LUMO GAP               3.234192629916 eV   |
           -------------------------------------------------

------------------------------------------------------------------------
 * finished run on 2025/04/09 at 13:59:10.650     
------------------------------------------------------------------------
 total:
 * wall-time:     0 d,  0 h,  0 min, 23.451 sec
 *  cpu-time:     0 d,  0 h,  0 min, 23.181 sec
 * ratio c/w:     0.988 speedup
 SCF:
 * wall-time:     0 d,  0 h,  0 min,  0.111 sec
 *  cpu-time:     0 d,  0 h,  0 min,  0.056 sec
 * ratio c/w:     0.501 speedup
 analytical hessian:
 * wall-time:     0 d,  0 h,  0 min, 10.404 sec
 *  cpu-time:     0 d,  0 h,  0 min, 10.361 sec
 * ratio c/w:     0.996 speedup

