      -----------------------------------------------------------      
     |                   =====================                   |     
     |                           x T B                           |     
     |                   =====================                   |     
     |                         S. Grimme                         |     
     |          Mulliken Center for Theoretical Chemistry        |     
     |                    University of Bonn                     |     
      -----------------------------------------------------------      

   * xtb version 6.7.1 (edcfbbe) compiled by 'albert@albert-system' on 2024-07-22

   xtb is free software: you can redistribute it and/or modify it under
   the terms of the GNU Lesser General Public License as published by
   the Free Software Foundation, either version 3 of the License, or
   (at your option) any later version.
   
   xtb is distributed in the hope that it will be useful,
   but WITHOUT ANY WARRANTY; without even the implied warranty of
   MERCHANTABILITY or FITNESS FOR A PARTICULAR PURPOSE.  See the
   GNU Lesser General Public License for more details.
   
   Cite this work as:
   * C. Bannwarth, E. Caldeweyher, S. Ehlert, A. Hansen, P. Pracht,
     J. Seibert, S. Spicher, S. Grimme, WIREs Comput. Mol. Sci., 2020, 11,
     e01493. DOI: 10.1002/wcms.1493
   
   for GFN2-xTB:
   * C. Bannwarth, S. Ehlert and S. Grimme., J. Chem. Theory Comput., 2019,
     15, 1652-1671. DOI: 10.1021/acs.jctc.8b01176
   for GFN1-xTB:
   * S. Grimme, C. Bannwarth, P. Shushkov, J. Chem. Theory Comput., 2017,
     13, 1989-2009. DOI: 10.1021/acs.jctc.7b00118
   for GFN0-xTB:
   * P. Pracht, E. Caldeweyher, S. Ehlert, S. Grimme, ChemRxiv, 2019, preprint.
     DOI: 10.26434/chemrxiv.8326202.v1
   for GFN-FF:
   * S. Spicher and S. Grimme, Angew. Chem. Int. Ed., 2020, 59, 15665-15673.
     DOI: 10.1002/anie.202004239
   
   for ALPB and GBSA implicit solvation:
   * S. Ehlert, M. Stahn, S. Spicher, S. Grimme, J. Chem. Theory Comput.,
     2021, 17, 4250-4261. DOI: 10.1021/acs.jctc.1c00471
   
   for ddCOSMO and CPCM-X implicit solvation:
   * M. Stahn, S. Ehlert, S. Grimme, J. Phys. Chem. A,
     2023, XX, XXXX-XXXX. DOI: 10.1021/acs.jpca.3c04382
   
   for DFT-D4:
   * E. Caldeweyher, C. Bannwarth and S. Grimme, J. Chem. Phys., 2017,
     147, 034112. DOI: 10.1063/1.4993215
   * E. Caldeweyher, S. Ehlert, A. Hansen, H. Neugebauer, S. Spicher,
     C. Bannwarth and S. Grimme, J. Chem. Phys., 2019, 150, 154122.
     DOI: 10.1063/1.5090222
   * E. Caldeweyher, J.-M. Mewes, S. Ehlert and S. Grimme, Phys. Chem. Chem. Phys.
     2020, 22, 8499-8512. DOI: 10.1039/D0CP00502A
   
   for sTDA-xTB:
   * S. Grimme and C. Bannwarth, J. Chem. Phys., 2016, 145, 054103.
     DOI: 10.1063/1.4959605
   
   in the mass-spec context:
   * V. Asgeirsson, C. Bauer and S. Grimme, Chem. Sci., 2017, 8, 4879.
     DOI: 10.1039/c7sc00601b
   * J. Koopman and S. Grimme, ACS Omega 2019, 4, 12, 15120-15133.
     DOI: 10.1021/acsomega.9b02011
   
   for metadynamics refer to:
   * S. Grimme, J. Chem. Theory Comput., 2019, 155, 2847-2862
     DOI: 10.1021/acs.jctc.9b00143
   
   for SPH calculations refer to:
   * S. Spicher and S. Grimme, J. Chem. Theory Comput., 2021, 17, 1701-1714
     DOI: 10.1021/acs.jctc.0c01306
   
   for ONIOM refer to:
   * C. Plett, A. Katbashev, S. Ehlert, S. Grimme, M. Bursch,
     Phys. Chem. Chem. Phys., 2023, 25, 17860-17868. DOI: 10.1039/D3CP02178E
   
   for DIPRO refer to:
   * J. Kohn, N. Gildemeister, S. Grimme, D. Fazzi, A. Hansen,
     J. Chem. Phys., 2023, just accepted.
   
   for PTB refer to:
   * S. Grimme, M. Mueller, A. Hansen, J. Chem. Phys., 2023, 158, 124111.
     DOI: 10.1063/5.0137838
   
   with help from (in alphabetical order)
   P. Atkinson, C. Bannwarth, F. Bohle, G. Brandenburg, E. Caldeweyher
   M. Checinski, S. Dohm, S. Ehlert, S. Ehrlich, I. Gerasimov, C. Hölzer
   A. Katbashev, J. Kohn, J. Koopman, C. Lavigne, S. Lehtola, F. März, M. Müller,
   F. Musil, H. Neugebauer, J. Pisarek, C. Plett, P. Pracht, F. Pultar,
   J. Seibert, P. Shushkov, S. Spicher, M. Stahn, M. Steiner, T. Strunk,
   J. Stückrath, T. Rose, and J. Unsleber
   
 * started run on 2025/04/09 at 05:21:15.672     
   ID    Z sym.   atoms
    1    6 C      1, 2, 7, 8, 10, 15, 16, 18, 19
    2    8 O      3, 6, 14, 17
    3   15 P      4, 12
    4   16 S      5, 9, 11, 13
    5    1 H      20-41

           -------------------------------------------------
          |                Calculation Setup                |
           -------------------------------------------------

          program call               : /srv/scratch/z5358697/.xtb/bin/xtb solv.coord --gfn2 --sp --chrg 0 --norestart --parallel 1 --alpb water reference -I xtb_sp-xcontrol-inp
          hostname                   : k163
          coordinate file            : solv.coord
          omp threads                :                     1


           -------------------------------------------------
          |                 G F N 2 - x T B                 |
           -------------------------------------------------

        Reference                      10.1021/acs.jctc.8b01176
      * Hamiltonian:
        H0-scaling (s, p, d)           1.850000    2.230000    2.230000
        zeta-weighting                 0.500000
      * Dispersion:
        s8                             2.700000
        a1                             0.520000
        a2                             5.000000
        s9                             5.000000
      * Repulsion:
        kExp                           1.500000    1.000000
        rExp                           1.000000
      * Coulomb:
        alpha                          2.000000
        third order                    shell-resolved
        anisotropic                    true
        a3                             3.000000
        a5                             4.000000
        cn-shift                       1.200000
        cn-exp                         4.000000
        max-rad                        5.000000

      * Solvation model:               ALPB
        Solvent                        water
        Parameter file                 internal GFN2-xTB/ALPB
        Dielectric constant                8.0200E+01
        Reference state                gsolv=reference [X=1]
        Free energy shift                  2.8945E-03 Eh       1.8164E+00 kcal/mol
        Temperature                        2.9815E+02 K
        Density                            1.0000E+00 kg/L
        Solvent mass                       1.8000E+01 g/mol
        Interaction kernel             P16
        Born radius scaling (c1)           1.4744E+00
        Born radii integrator          GBOBC
        Born offset                        0.0000E+00 a0       0.0000E+00 AA
        H-bond correction              true
        Ion screening                  false
        Surface tension                    1.0000E-05 Eh       1.5569E+01 dyn/cm
        Grid points                               974 per atom

          ...................................................
          :                      SETUP                      :
          :.................................................:
          :  # basis functions                 134          :
          :  # atomic orbitals                 128          :
          :  # shells                           66          :
          :  # electrons                       116          :
          :  max. iterations                   250          :
          :  Hamiltonian                  GFN2-xTB          :
          :  restarted?                      false          :
          :  GBSA solvation                   true          :
          :  PC potential                    false          :
          :  electronic temp.          300.0000000     K    :
          :  accuracy                    1.0000000          :
          :  -> integral cutoff          0.2500000E+02      :
          :  -> integral neglect         0.1000000E-07      :
          :  -> SCF convergence          0.1000000E-05 Eh   :
          :  -> wf. convergence          0.1000000E-03 e    :
          :  Broyden damping             0.4000000          :
          :  net charge                          0          :
          :  unpaired electrons                  0          :
          ...................................................

 iter      E             dE          RMSdq      gap      omega  full diag
   1    -65.4407389 -0.654407E+02  0.641E+00    3.97       0.0  T
   2    -65.5604695 -0.119731E+00  0.371E+00    3.35       1.0  T
   3    -65.5800339 -0.195644E-01  0.111E+00    2.89       1.0  T
   4    -65.5831007 -0.306683E-02  0.493E-01    2.85       1.0  T
   5    -65.5838682 -0.767535E-03  0.279E-01    2.93       1.0  T
   6    -65.5841080 -0.239814E-03  0.119E-01    2.94       1.0  T
   7    -65.5841601 -0.520403E-04  0.495E-02    2.97       1.0  T
   8    -65.5841679 -0.786726E-05  0.234E-02    2.97       1.0  T
   9    -65.5841697 -0.172239E-05  0.101E-02    2.97       1.6  T
  10    -65.5841698 -0.945274E-07  0.430E-03    2.98       3.6  T
  11    -65.5841699 -0.114757E-06  0.156E-03    2.98      10.0  T
  12    -65.5841699 -0.668005E-08  0.451E-04    2.98      34.6  T
  13    -65.5841699 -0.584123E-09  0.181E-04    2.98      86.5  T

   *** convergence criteria satisfied after 13 iterations ***

         #    Occupation            Energy/Eh            Energy/eV
      -------------------------------------------------------------
         1        2.0000           -0.7673123             -20.8796
       ...           ...                  ...                  ...
        52        2.0000           -0.4474768             -12.1765
        53        2.0000           -0.4192330             -11.4079
        54        2.0000           -0.4114100             -11.1950
        55        2.0000           -0.3954982             -10.7621
        56        2.0000           -0.3937681             -10.7150
        57        2.0000           -0.3932297             -10.7003
        58        2.0000           -0.3889422             -10.5837 (HOMO)
        59                         -0.2795379              -7.6066 (LUMO)
        60                         -0.2519331              -6.8554
        61                         -0.2269248              -6.1749
        62                         -0.2130416              -5.7972
        63                         -0.1705903              -4.6420
       ...                                ...                  ...
       128                          1.3366724              36.3727
      -------------------------------------------------------------
                  HL-Gap            0.1094043 Eh            2.9770 eV
             Fermi-level           -0.3342400 Eh           -9.0951 eV

 SCC (total)                   0 d,  0 h,  0 min,  0.074 sec
 SCC setup                      ...        0 min,  0.003 sec (  3.472%)
 Dispersion                     ...        0 min,  0.000 sec (  0.412%)
 classical contributions        ...        0 min,  0.000 sec (  0.079%)
 integral evaluation            ...        0 min,  0.022 sec ( 29.144%)
 iterations                     ...        0 min,  0.027 sec ( 36.451%)
 molecular gradient             ...        0 min,  0.022 sec ( 30.134%)
 printout                       ...        0 min,  0.000 sec (  0.281%)

         :::::::::::::::::::::::::::::::::::::::::::::::::::::
         ::                     SUMMARY                     ::
         :::::::::::::::::::::::::::::::::::::::::::::::::::::
         :: total energy             -65.023887667726 Eh    ::
         :: total w/o Gsasa/hb       -65.026002126627 Eh    ::
         :: gradient norm              0.000038951386 Eh/a0 ::
         :: HOMO-LUMO gap              2.977042510727 eV    ::
         ::.................................................::
         :: SCC energy               -65.583164346333 Eh    ::
         :: -> isotropic ES            0.130555113243 Eh    ::
         :: -> anisotropic ES         -0.019505595264 Eh    ::
         :: -> anisotropic XC          0.029252011056 Eh    ::
         :: -> dispersion             -0.054339186447 Eh    ::
         :: -> Gsolv                  -0.025515764390 Eh    ::
         ::    -> Gelec               -0.027630223291 Eh    ::
         ::    -> Gsasa                0.003541752099 Eh    ::
         ::    -> Ghb                 -0.004321842358 Eh    ::
         ::    -> Gshift               0.002894549160 Eh    ::
         :: repulsion energy           0.559276678607 Eh    ::
         :: add. restraining           0.000000000000 Eh    ::
         :: total charge              -0.000000000000 e     ::
         :::::::::::::::::::::::::::::::::::::::::::::::::::::

           -------------------------------------------------
          |                Property Printout                |
           -------------------------------------------------

    * Orbital Energies and Occupations

         #    Occupation            Energy/Eh            Energy/eV
      -------------------------------------------------------------
         1        2.0000           -0.7673123             -20.8796
       ...           ...                  ...                  ...
        46        2.0000           -0.4685260             -12.7492
        47        2.0000           -0.4638165             -12.6211
        48        2.0000           -0.4601929             -12.5225
        49        2.0000           -0.4552499             -12.3880
        50        2.0000           -0.4512861             -12.2801
        51        2.0000           -0.4490274             -12.2187
        52        2.0000           -0.4474768             -12.1765
        53        2.0000           -0.4192330             -11.4079
        54        2.0000           -0.4114100             -11.1950
        55        2.0000           -0.3954982             -10.7621
        56        2.0000           -0.3937681             -10.7150
        57        2.0000           -0.3932297             -10.7003
        58        2.0000           -0.3889422             -10.5837 (HOMO)
        59                         -0.2795379              -7.6066 (LUMO)
        60                         -0.2519331              -6.8554
        61                         -0.2269248              -6.1749
        62                         -0.2130416              -5.7972
        63                         -0.1705903              -4.6420
        64                         -0.1691008              -4.6015
        65                         -0.1621192              -4.4115
        66                         -0.1505693              -4.0972
        67                         -0.1366642              -3.7188
        68                         -0.1277814              -3.4771
        69                         -0.0477489              -1.2993
       ...                                ...                  ...
       128                          1.3366724              36.3727
      -------------------------------------------------------------
                  HL-Gap            0.1094043 Eh            2.9770 eV
             Fermi-level           -0.3342400 Eh           -9.0951 eV

     #   Z          covCN         q      C6AA      α(0)
     1   6 C        3.751    -0.134    23.142     6.860
     2   6 C        3.842     0.084    19.156     6.226
     3   8 O        1.655    -0.248    18.126     5.747
     4  15 P        3.901     0.360   145.233    21.648
     5  16 S        0.932    -0.496   161.245    21.478
     6   8 O        1.656    -0.268    18.455     5.799
     7   6 C        3.841     0.086    19.128     6.222
     8   6 C        3.751    -0.133    23.111     6.856
     9  16 S        1.974    -0.124   146.266    20.355
    10   6 C        3.801     0.024    20.179     6.396
    11  16 S        2.072    -0.126   146.324    20.359
    12  15 P        3.872     0.367   144.957    21.628
    13  16 S        0.926    -0.460   159.456    21.358
    14   8 O        1.655    -0.262    18.356     5.784
    15   6 C        3.875     0.091    19.029     6.203
    16   6 C        3.751    -0.125    22.968     6.835
    17   8 O        1.655    -0.260    18.332     5.780
    18   6 C        3.864     0.073    19.318     6.250
    19   6 C        3.751    -0.129    23.033     6.844
    20   1 H        0.925     0.066     2.127     2.281
    21   1 H        0.925     0.086     1.917     2.165
    22   1 H        0.925     0.081     1.966     2.192
    23   1 H        0.924     0.054     2.271     2.357
    24   1 H        0.924     0.076     2.026     2.226
    25   1 H        0.924     0.054     2.269     2.356
    26   1 H        0.924     0.066     2.127     2.281
    27   1 H        0.925     0.066     2.126     2.280
    28   1 H        0.925     0.084     1.935     2.176
    29   1 H        0.925     0.077     2.015     2.220
    30   1 H        0.925     0.122     1.599     1.978
    31   1 H        0.925     0.136     1.492     1.910
    32   1 H        0.924     0.079     1.989     2.206
    33   1 H        0.924     0.055     2.261     2.351
    34   1 H        0.925     0.075     2.034     2.230
    35   1 H        0.925     0.083     1.945     2.181
    36   1 H        0.925     0.056     2.252     2.347
    37   1 H        0.924     0.094     1.841     2.122
    38   1 H        0.924     0.061     2.185     2.311
    39   1 H        0.925     0.051     2.305     2.374
    40   1 H        0.925     0.073     2.055     2.242
    41   1 H        0.925     0.084     1.933     2.174

 Mol. C6AA /au·bohr⁶  :      26397.652368
 Mol. C8AA /au·bohr⁸  :     862805.737346
 Mol. α(0) /au        :        257.587127


Wiberg/Mayer (AO) data.
largest (>0.10) Wiberg bond orders for each atom

 ---------------------------------------------------------------------------
     #   Z sym  total        # sym  WBO       # sym  WBO       # sym  WBO
 ---------------------------------------------------------------------------
     1   6 C    3.980 --     2 C    1.020    22 H    0.981    20 H    0.981
                            21 H    0.974
     2   6 C    3.887 --     1 C    1.020    24 H    0.970    23 H    0.963
                             3 O    0.870
     3   8 O    2.414 --     4 P    1.348     2 C    0.870
     4  15 P    5.310 --     5 S    1.470     3 O    1.348     6 O    1.325
                             9 S    1.015
     5  16 S    1.813 --     4 P    1.470     9 S    0.137
     6   8 O    2.397 --     4 P    1.325     7 C    0.885
     7   6 C    3.891 --     8 C    1.018    26 H    0.972    25 H    0.965
                             6 O    0.885
     8   6 C    3.982 --     7 C    1.018    27 H    0.984    29 H    0.982
                            28 H    0.976
     9  16 S    2.288 --     4 P    1.015    10 C    0.961     5 S    0.137
    10   6 C    3.939 --    11 S    0.997     9 S    0.961    30 H    0.953
                            31 H    0.953
    11  16 S    2.294 --    10 C    0.997    12 P    0.970    13 S    0.101
    12  15 P    5.316 --    13 S    1.559    14 O    1.311    17 O    1.302
                            11 S    0.970
    13  16 S    1.848 --    12 P    1.559    11 S    0.101
    14   8 O    2.392 --    12 P    1.311    15 C    0.879
    15   6 C    3.893 --    16 C    1.023    33 H    0.969    32 H    0.966
                            14 O    0.879
    16   6 C    3.987 --    15 C    1.023    34 H    0.982    35 H    0.976
                            36 H    0.975
    17   8 O    2.404 --    12 P    1.302    18 C    0.892
    18   6 C    3.892 --    19 C    1.021    38 H    0.968    37 H    0.964
                            17 O    0.892
    19   6 C    3.987 --    18 C    1.021    40 H    0.982    41 H    0.977
                            39 H    0.975
    20   1 H    0.996 --     1 C    0.981
    21   1 H    0.991 --     1 C    0.974
    22   1 H    0.993 --     1 C    0.981
    23   1 H    0.997 --     2 C    0.963
    24   1 H    0.994 --     2 C    0.970
    25   1 H    0.997 --     7 C    0.965
    26   1 H    0.996 --     7 C    0.972
    27   1 H    0.996 --     8 C    0.984
    28   1 H    0.991 --     8 C    0.976
    29   1 H    0.994 --     8 C    0.982
    30   1 H    0.985 --    10 C    0.953
    31   1 H    0.979 --    10 C    0.953
    32   1 H    0.993 --    15 C    0.966
    33   1 H    0.997 --    15 C    0.969
    34   1 H    0.994 --    16 C    0.982
    35   1 H    0.992 --    16 C    0.976
    36   1 H    0.997 --    16 C    0.975
    37   1 H    0.991 --    18 C    0.964
    38   1 H    0.996 --    18 C    0.968
    39   1 H    0.997 --    19 C    0.975
    40   1 H    0.995 --    19 C    0.982
    41   1 H    0.992 --    19 C    0.977
 ---------------------------------------------------------------------------

Topologies differ in total number of bonds
Writing topology from bond orders to xtbtopo.mol

molecular dipole:
                 x           y           z       tot (Debye)
 q only:        0.039      -2.839       0.887
   full:        0.210      -2.666       1.130       7.378
molecular quadrupole (traceless):
                xx          xy          yy          xz          yz          zz
 q only:       16.911      12.348     -23.355      -0.966      22.973       6.444
  q+dip:       20.189      13.129     -22.159      -3.708      20.836       1.969
   full:       19.811      13.642     -23.329      -3.120      22.007       3.518


           -------------------------------------------------
          | TOTAL ENERGY              -65.023887667726 Eh   |
          | GRADIENT NORM               0.000038951386 Eh/α |
          | HOMO-LUMO GAP               2.977042510727 eV   |
           -------------------------------------------------

------------------------------------------------------------------------
 * finished run on 2025/04/09 at 05:21:15.815     
------------------------------------------------------------------------
 total:
 * wall-time:     0 d,  0 h,  0 min,  0.143 sec
 *  cpu-time:     0 d,  0 h,  0 min,  0.074 sec
 * ratio c/w:     0.518 speedup
 SCF:
 * wall-time:     0 d,  0 h,  0 min,  0.075 sec
 *  cpu-time:     0 d,  0 h,  0 min,  0.061 sec
 * ratio c/w:     0.813 speedup

