      -----------------------------------------------------------      
     |                   =====================                   |     
     |                           x T B                           |     
     |                   =====================                   |     
     |                         S. Grimme                         |     
     |          Mulliken Center for Theoretical Chemistry        |     
     |                    University of Bonn                     |     
      -----------------------------------------------------------      

   * xtb version 6.7.1 (edcfbbe) compiled by 'albert@albert-system' on 2024-07-22

   xtb is free software: you can redistribute it and/or modify it under
   the terms of the GNU Lesser General Public License as published by
   the Free Software Foundation, either version 3 of the License, or
   (at your option) any later version.
   
   xtb is distributed in the hope that it will be useful,
   but WITHOUT ANY WARRANTY; without even the implied warranty of
   MERCHANTABILITY or FITNESS FOR A PARTICULAR PURPOSE.  See the
   GNU Lesser General Public License for more details.
   
   Cite this work as:
   * C. Bannwarth, E. Caldeweyher, S. Ehlert, A. Hansen, P. Pracht,
     J. Seibert, S. Spicher, S. Grimme, WIREs Comput. Mol. Sci., 2020, 11,
     e01493. DOI: 10.1002/wcms.1493
   
   for GFN2-xTB:
   * C. Bannwarth, S. Ehlert and S. Grimme., J. Chem. Theory Comput., 2019,
     15, 1652-1671. DOI: 10.1021/acs.jctc.8b01176
   for GFN1-xTB:
   * S. Grimme, C. Bannwarth, P. Shushkov, J. Chem. Theory Comput., 2017,
     13, 1989-2009. DOI: 10.1021/acs.jctc.7b00118
   for GFN0-xTB:
   * P. Pracht, E. Caldeweyher, S. Ehlert, S. Grimme, ChemRxiv, 2019, preprint.
     DOI: 10.26434/chemrxiv.8326202.v1
   for GFN-FF:
   * S. Spicher and S. Grimme, Angew. Chem. Int. Ed., 2020, 59, 15665-15673.
     DOI: 10.1002/anie.202004239
   
   for ALPB and GBSA implicit solvation:
   * S. Ehlert, M. Stahn, S. Spicher, S. Grimme, J. Chem. Theory Comput.,
     2021, 17, 4250-4261. DOI: 10.1021/acs.jctc.1c00471
   
   for ddCOSMO and CPCM-X implicit solvation:
   * M. Stahn, S. Ehlert, S. Grimme, J. Phys. Chem. A,
     2023, XX, XXXX-XXXX. DOI: 10.1021/acs.jpca.3c04382
   
   for DFT-D4:
   * E. Caldeweyher, C. Bannwarth and S. Grimme, J. Chem. Phys., 2017,
     147, 034112. DOI: 10.1063/1.4993215
   * E. Caldeweyher, S. Ehlert, A. Hansen, H. Neugebauer, S. Spicher,
     C. Bannwarth and S. Grimme, J. Chem. Phys., 2019, 150, 154122.
     DOI: 10.1063/1.5090222
   * E. Caldeweyher, J.-M. Mewes, S. Ehlert and S. Grimme, Phys. Chem. Chem. Phys.
     2020, 22, 8499-8512. DOI: 10.1039/D0CP00502A
   
   for sTDA-xTB:
   * S. Grimme and C. Bannwarth, J. Chem. Phys., 2016, 145, 054103.
     DOI: 10.1063/1.4959605
   
   in the mass-spec context:
   * V. Asgeirsson, C. Bauer and S. Grimme, Chem. Sci., 2017, 8, 4879.
     DOI: 10.1039/c7sc00601b
   * J. Koopman and S. Grimme, ACS Omega 2019, 4, 12, 15120-15133.
     DOI: 10.1021/acsomega.9b02011
   
   for metadynamics refer to:
   * S. Grimme, J. Chem. Theory Comput., 2019, 155, 2847-2862
     DOI: 10.1021/acs.jctc.9b00143
   
   for SPH calculations refer to:
   * S. Spicher and S. Grimme, J. Chem. Theory Comput., 2021, 17, 1701-1714
     DOI: 10.1021/acs.jctc.0c01306
   
   for ONIOM refer to:
   * C. Plett, A. Katbashev, S. Ehlert, S. Grimme, M. Bursch,
     Phys. Chem. Chem. Phys., 2023, 25, 17860-17868. DOI: 10.1039/D3CP02178E
   
   for DIPRO refer to:
   * J. Kohn, N. Gildemeister, S. Grimme, D. Fazzi, A. Hansen,
     J. Chem. Phys., 2023, just accepted.
   
   for PTB refer to:
   * S. Grimme, M. Mueller, A. Hansen, J. Chem. Phys., 2023, 158, 124111.
     DOI: 10.1063/5.0137838
   
   with help from (in alphabetical order)
   P. Atkinson, C. Bannwarth, F. Bohle, G. Brandenburg, E. Caldeweyher
   M. Checinski, S. Dohm, S. Ehlert, S. Ehrlich, I. Gerasimov, C. Hölzer
   A. Katbashev, J. Kohn, J. Koopman, C. Lavigne, S. Lehtola, F. März, M. Müller,
   F. Musil, H. Neugebauer, J. Pisarek, C. Plett, P. Pracht, F. Pultar,
   J. Seibert, P. Shushkov, S. Spicher, M. Stahn, M. Steiner, T. Strunk,
   J. Stückrath, T. Rose, and J. Unsleber
   
 * started run on 2025/04/03 at 21:04:41.643     
   ID    Z sym.   atoms
    1    6 C      1-3, 5, 7, 9-13
    2    1 H      4, 6, 8, 21, 22
    3   17 Cl     14-20

           -------------------------------------------------
          |                Calculation Setup                |
           -------------------------------------------------

          program call               : /srv/scratch/z5358697/.xtb/bin/xtb xtb_rrho.coord --gfn2 --ohess vtight --chrg 0 --enso --norestart -I rrho-xcontrol-inp --parallel 1 --alpb water
          hostname                   : k163
          coordinate file            : xtb_rrho.coord
          omp threads                :                     1


           -------------------------------------------------
          |                 G F N 2 - x T B                 |
           -------------------------------------------------

        Reference                      10.1021/acs.jctc.8b01176
      * Hamiltonian:
        H0-scaling (s, p, d)           1.850000    2.230000    2.230000
        zeta-weighting                 0.500000
      * Dispersion:
        s8                             2.700000
        a1                             0.520000
        a2                             5.000000
        s9                             5.000000
      * Repulsion:
        kExp                           1.500000    1.000000
        rExp                           1.000000
      * Coulomb:
        alpha                          2.000000
        third order                    shell-resolved
        anisotropic                    true
        a3                             3.000000
        a5                             4.000000
        cn-shift                       1.200000
        cn-exp                         4.000000
        max-rad                        5.000000

      * Solvation model:               ALPB
        Solvent                        water
        Parameter file                 internal GFN2-xTB/ALPB
        Dielectric constant                8.0200E+01
        Reference state                gsolv [1 M gas/solution]
        Free energy shift                  1.0808E-03 Eh       6.7819E-01 kcal/mol
        Temperature                        2.9815E+02 K
        Density                            1.0000E+00 kg/L
        Solvent mass                       1.8000E+01 g/mol
        Interaction kernel             P16
        Born radius scaling (c1)           1.4744E+00
        Born radii integrator          GBOBC
        Born offset                        0.0000E+00 a0       0.0000E+00 AA
        H-bond correction              true
        Ion screening                  false
        Surface tension                    1.0000E-05 Eh       1.5569E+01 dyn/cm
        Grid points                               974 per atom

          ...................................................
          :                      SETUP                      :
          :.................................................:
          :  # basis functions                 115          :
          :  # atomic orbitals                 108          :
          :  # shells                           46          :
          :  # electrons                        94          :
          :  max. iterations                   250          :
          :  Hamiltonian                  GFN2-xTB          :
          :  restarted?                      false          :
          :  GBSA solvation                   true          :
          :  PC potential                    false          :
          :  electronic temp.          300.0000000     K    :
          :  accuracy                    1.0000000          :
          :  -> integral cutoff          0.2500000E+02      :
          :  -> integral neglect         0.1000000E-07      :
          :  -> SCF convergence          0.1000000E-05 Eh   :
          :  -> wf. convergence          0.1000000E-03 e    :
          :  Broyden damping             0.4000000          :
          :  net charge                          0          :
          :  unpaired electrons                  0          :
          ...................................................

 iter      E             dE          RMSdq      gap      omega  full diag
   1    -56.0646577 -0.560647E+02  0.459E+00    4.36       0.0  T
   2    -56.1383228 -0.736650E-01  0.294E+00    3.68       1.0  T
   3    -56.1473797 -0.905690E-02  0.148E+00    3.99       1.0  T
   4    -56.1577223 -0.103427E-01  0.286E-01    3.88       1.0  T
   5    -56.1589243 -0.120199E-02  0.114E-01    3.86       1.0  T
   6    -56.1589924 -0.681248E-04  0.829E-02    3.86       1.0  T
   7    -56.1590244 -0.319878E-04  0.550E-02    3.87       1.0  T
   8    -56.1590447 -0.203120E-04  0.320E-02    3.86       1.0  T
   9    -56.1590504 -0.562111E-05  0.235E-02    3.86       1.0  T
  10    -56.1590550 -0.459244E-05  0.134E-02    3.86       1.6  T
  11    -56.1590569 -0.189390E-05  0.941E-03    3.86       2.3  T
  12    -56.1590578 -0.907504E-06  0.551E-03    3.86       3.9  T
  13    -56.1590582 -0.398022E-06  0.305E-03    3.86       7.0  T
  14    -56.1590582 -0.689694E-07  0.153E-03    3.86      13.9  T
  15    -56.1590583 -0.257752E-07  0.803E-04    3.86      26.5  T
  16    -56.1590583 -0.331584E-08  0.516E-04    3.86      41.3  T

   *** convergence criteria satisfied after 16 iterations ***

         #    Occupation            Energy/Eh            Energy/eV
      -------------------------------------------------------------
         1        2.0000           -1.0954640             -29.8091
       ...           ...                  ...                  ...
        41        2.0000           -0.4467834             -12.1576
        42        2.0000           -0.4428670             -12.0510
        43        2.0000           -0.4385435             -11.9334
        44        2.0000           -0.4284589             -11.6590
        45        2.0000           -0.4239876             -11.5373
        46        2.0000           -0.4213616             -11.4658
        47        2.0000           -0.4198823             -11.4256 (HOMO)
        48                         -0.2779957              -7.5646 (LUMO)
        49                         -0.2524829              -6.8704
        50                         -0.2350022              -6.3947
        51                         -0.2104522              -5.7267
        52                         -0.1972876              -5.3685
       ...                                ...                  ...
       108                          0.5903954              16.0655
      -------------------------------------------------------------
                  HL-Gap            0.1418866 Eh            3.8609 eV
             Fermi-level           -0.3489390 Eh           -9.4951 eV

 SCC (total)                   0 d,  0 h,  0 min,  0.055 sec
 SCC setup                      ...        0 min,  0.001 sec (  2.227%)
 Dispersion                     ...        0 min,  0.000 sec (  0.242%)
 classical contributions        ...        0 min,  0.000 sec (  0.047%)
 integral evaluation            ...        0 min,  0.018 sec ( 32.821%)
 iterations                     ...        0 min,  0.023 sec ( 41.155%)
 molecular gradient             ...        0 min,  0.013 sec ( 23.068%)
 printout                       ...        0 min,  0.000 sec (  0.397%)

         :::::::::::::::::::::::::::::::::::::::::::::::::::::
         ::                     SUMMARY                     ::
         :::::::::::::::::::::::::::::::::::::::::::::::::::::
         :: total energy             -55.818378111270 Eh    ::
         :: total w/o Gsasa/hb       -55.816957535437 Eh    ::
         :: gradient norm              0.035043707173 Eh/a0 ::
         :: HOMO-LUMO gap              3.860932036975 eV    ::
         ::.................................................::
         :: SCC energy               -56.158452092483 Eh    ::
         :: -> isotropic ES            0.032500874169 Eh    ::
         :: -> anisotropic ES         -0.003983968434 Eh    ::
         :: -> anisotropic XC          0.012240143088 Eh    ::
         :: -> dispersion             -0.042267739968 Eh    ::
         :: -> Gsolv                  -0.008844544921 Eh    ::
         ::    -> Gelec               -0.007423969088 Eh    ::
         ::    -> Gsasa               -0.001094060612 Eh    ::
         ::    -> Ghb                 -0.001407274920 Eh    ::
         ::    -> Gshift               0.001080759698 Eh    ::
         :: repulsion energy           0.340073981213 Eh    ::
         :: add. restraining           0.000000000000 Eh    ::
         :: total charge              -0.000000000000 e     ::
         :::::::::::::::::::::::::::::::::::::::::::::::::::::

      ----------------------------------------------------------- 
     |                   =====================                   |
     |                        A N C O P T                        |
     |                   =====================                   |
     |               Approximate Normal Coordinate               |
     |                Rational Function Optimizer                |
      ----------------------------------------------------------- 
      ----------------------------------------------------------- 
     |                   =====================                   |
     |                        A N C O P T                        |
     |                   =====================                   |
     |               Approximate Normal Coordinate               |
     |                Rational Function Optimizer                |
      ----------------------------------------------------------- 

          ...................................................
          :                      SETUP                      :
          :.................................................:
          :   optimization level         verytight          :
          :   max. optcycles                   440          :
          :   ANC micro-cycles                  20          :
          :   degrees of freedom                60          :
          :.................................................:
          :   RF solver                   davidson          :
          :   write xtbopt.log                true          :
          :   linear?                        false          :
          :   energy convergence         0.1000000E-06 Eh   :
          :   grad. convergence          0.2000000E-03 Eh/α :
          :   maxmium RF displ.          1.0000000          :
          :   Hlow (freq-cutoff)         0.1000000E-01      :
          :   Hmax (freq-cutoff)         5.0000000          :
          :   S6 in model hess.         20.0000000          :
          ...................................................

generating ANC from exact Hessian ...
Using Lindh-Hessian (1995)
 Shifting diagonal of input Hessian by   6.714114269663448E-003
 Lowest  eigenvalues of input Hessian
    0.000000    0.000000    0.000000    0.000000    0.000000    0.000000
    0.010000    0.010799    0.013614    0.014159    0.017510    0.019821
    0.023344    0.023611    0.024429    0.026122    0.029443    0.033165
 Highest eigenvalues
    1.286683    1.328931    1.532044    1.624998    1.848129    1.914920
 

........................................................................
.............................. CYCLE    1 ..............................
........................................................................

 iter      E             dE          RMSdq      gap      omega  full diag
   1    -56.1590583 -0.561591E+02  0.269E-04    3.86       0.0  T
   2    -56.1590583 -0.199087E-09  0.221E-04    3.86      96.7  T
   3    -56.1590583 -0.263931E-09  0.141E-04    3.86     150.8  T
     SCC iter.                  ...        0 min,  0.005 sec
     gradient                   ...        0 min,  0.012 sec
 * total energy  :   -55.8183781 Eh     change       -0.2910646E-08 Eh
   gradient norm :     0.0350462 Eh/α   predicted     0.0000000E+00 (-100.00%)
   displ. norm   :     0.1739448 α      lambda       -0.3532037E-02
   maximum displ.:     0.0978509 α      in ANC's #14, #35, #22, ...

........................................................................
.............................. CYCLE    2 ..............................
........................................................................

 iter      E             dE          RMSdq      gap      omega  full diag
   1    -56.1746737 -0.561747E+02  0.143E-01    3.88       0.0  T
   2    -56.1747098 -0.360404E-04  0.982E-02    3.87       1.0  T
   3    -56.1747083  0.146861E-05  0.530E-02    3.88       1.0  T
   4    -56.1747340 -0.256932E-04  0.223E-02    3.87       1.0  T
   5    -56.1747354 -0.138887E-05  0.171E-02    3.87       1.2  T
   6    -56.1747374 -0.203548E-05  0.918E-03    3.87       2.3  T
   7    -56.1747382 -0.787192E-06  0.539E-03    3.87       4.0  T
   8    -56.1747384 -0.207821E-06  0.365E-03    3.87       5.8  T
   9    -56.1747385 -0.967726E-07  0.220E-03    3.87       9.7  T
  10    -56.1747385 -0.326501E-07  0.139E-03    3.87      15.4  T
  11    -56.1747386 -0.181075E-07  0.604E-04    3.87      35.3  T
  12    -56.1747386 -0.428688E-08  0.328E-04    3.87      65.0  T
     SCC iter.                  ...        0 min,  0.015 sec
     gradient                   ...        0 min,  0.013 sec
 * total energy  :   -55.8207017 Eh     change       -0.2323545E-02 Eh
   gradient norm :     0.0192179 Eh/α   predicted    -0.1819478E-02 ( -21.69%)
   displ. norm   :     0.1159928 α      lambda       -0.1114339E-02
   maximum displ.:     0.0595378 α      in ANC's #2, #35, #19, ...

........................................................................
.............................. CYCLE    3 ..............................
........................................................................

 iter      E             dE          RMSdq      gap      omega  full diag
   1    -56.1825159 -0.561825E+02  0.987E-02    3.87       0.0  T
   2    -56.1825362 -0.202447E-04  0.694E-02    3.87       1.0  T
   3    -56.1825370 -0.843749E-06  0.394E-02    3.88       1.0  T
   4    -56.1825490 -0.119557E-04  0.186E-02    3.87       1.1  T
   5    -56.1825498 -0.865345E-06  0.144E-02    3.87       1.5  T
   6    -56.1825512 -0.130668E-05  0.751E-03    3.87       2.8  T
   7    -56.1825517 -0.520796E-06  0.411E-03    3.87       5.2  T
   8    -56.1825518 -0.107412E-06  0.304E-03    3.87       7.0  T
   9    -56.1825518 -0.523902E-07  0.213E-03    3.87      10.0  T
  10    -56.1825519 -0.473792E-07  0.109E-03    3.87      19.5  T
  11    -56.1825519 -0.784117E-08  0.420E-04    3.87      50.8  T
  12    -56.1825519 -0.174750E-08  0.209E-04    3.87     101.9  T
     SCC iter.                  ...        0 min,  0.015 sec
     gradient                   ...        0 min,  0.012 sec
 * total energy  :   -55.8213006 Eh     change       -0.5989877E-03 Eh
   gradient norm :     0.0085600 Eh/α   predicted    -0.5646672E-03 (  -5.73%)
   displ. norm   :     0.0497714 α      lambda       -0.1430750E-03
   maximum displ.:     0.0372421 α      in ANC's #2, #1, #14, ...

........................................................................
.............................. CYCLE    4 ..............................
........................................................................

 iter      E             dE          RMSdq      gap      omega  full diag
   1    -56.1810936 -0.561811E+02  0.296E-02    3.87       0.0  T
   2    -56.1810946 -0.103762E-05  0.194E-02    3.87       1.1  T
   3    -56.1810944  0.152416E-06  0.926E-03    3.87       2.3  T
   4    -56.1810953 -0.840447E-06  0.589E-03    3.87       3.6  T
   5    -56.1810954 -0.135317E-06  0.458E-03    3.87       4.7  T
   6    -56.1810956 -0.153107E-06  0.254E-03    3.87       8.4  T
   7    -56.1810956 -0.555922E-07  0.147E-03    3.87      14.5  T
   8    -56.1810956 -0.186269E-07  0.963E-04    3.87      22.1  T
   9    -56.1810956 -0.683591E-08  0.576E-04    3.87      37.0  T
     SCC iter.                  ...        0 min,  0.012 sec
     gradient                   ...        0 min,  0.013 sec
 * total energy  :   -55.8213978 Eh     change       -0.9714584E-04 Eh
   gradient norm :     0.0039119 Eh/α   predicted    -0.7174123E-04 ( -26.15%)
   displ. norm   :     0.0459165 α      lambda       -0.5702089E-04
   maximum displ.:     0.0358205 α      in ANC's #2, #1, #3, ...

........................................................................
.............................. CYCLE    5 ..............................
........................................................................

 iter      E             dE          RMSdq      gap      omega  full diag
   1    -56.1795019 -0.561795E+02  0.270E-02    3.87       0.0  T
   2    -56.1795026 -0.690922E-06  0.174E-02    3.87       1.2  T
   3    -56.1795021  0.523038E-06  0.791E-03    3.87       2.7  T
   4    -56.1795030 -0.937824E-06  0.353E-03    3.87       6.0  T
   5    -56.1795031 -0.484027E-07  0.289E-03    3.87       7.4  T
   6    -56.1795031 -0.620818E-07  0.183E-03    3.87      11.7  T
   7    -56.1795032 -0.332706E-07  0.977E-04    3.87      21.8  T
   8    -56.1795032 -0.968950E-08  0.559E-04    3.87      38.1  T
     SCC iter.                  ...        0 min,  0.010 sec
     gradient                   ...        0 min,  0.013 sec
 * total energy  :   -55.8214278 Eh     change       -0.2996623E-04 Eh
   gradient norm :     0.0009205 Eh/α   predicted    -0.2857277E-04 (  -4.65%)
   displ. norm   :     0.0198474 α      lambda       -0.2847015E-05
   maximum displ.:     0.0171856 α      in ANC's #1, #2, #4, ...

........................................................................
.............................. CYCLE    6 ..............................
........................................................................

 iter      E             dE          RMSdq      gap      omega  full diag
   1    -56.1794854 -0.561795E+02  0.103E-02    3.87       0.0  T
   2    -56.1794855 -0.667476E-07  0.638E-03    3.87       3.3  T
   3    -56.1794854  0.864162E-07  0.284E-03    3.87       7.5  T
   4    -56.1794855 -0.128684E-06  0.996E-04    3.87      21.4  T
   5    -56.1794855 -0.503979E-08  0.818E-04    3.87      26.1  T
     SCC iter.                  ...        0 min,  0.007 sec
     gradient                   ...        0 min,  0.013 sec
 * total energy  :   -55.8214304 Eh     change       -0.2628573E-05 Eh
   gradient norm :     0.0005701 Eh/α   predicted    -0.1425493E-05 ( -45.77%)
   displ. norm   :     0.0172279 α      lambda       -0.1510261E-05
   maximum displ.:     0.0151653 α      in ANC's #1, #2, #4, ...

........................................................................
.............................. CYCLE    7 ..............................
........................................................................

 iter      E             dE          RMSdq      gap      omega  full diag
   1    -56.1796504 -0.561797E+02  0.852E-03    3.87       0.0  T
   2    -56.1796504 -0.943950E-08  0.503E-03    3.87       4.2  T
   3    -56.1796504  0.331706E-08  0.989E-04    3.87      21.6  T
   4    -56.1796504 -0.113528E-07  0.629E-04    3.87      33.9  T
     SCC iter.                  ...        0 min,  0.006 sec
     gradient                   ...        0 min,  0.013 sec
 * total energy  :   -55.8214320 Eh     change       -0.1639432E-05 Eh
   gradient norm :     0.0003547 Eh/α   predicted    -0.7577546E-06 ( -53.78%)
   displ. norm   :     0.0156796 α      lambda       -0.8513650E-06
   maximum displ.:     0.0135794 α      in ANC's #1, #2, #4, ...

........................................................................
.............................. CYCLE    8 ..............................
........................................................................

 iter      E             dE          RMSdq      gap      omega  full diag
   1    -56.1796988 -0.561797E+02  0.775E-03    3.87       0.0  T
   2    -56.1796988 -0.997516E-08  0.458E-03    3.87       4.7  T
   3    -56.1796988  0.244677E-07  0.136E-03    3.87      15.6  T
   4    -56.1796988 -0.333772E-07  0.572E-04    3.87      37.3  T
   5    -56.1796988 -0.151776E-08  0.487E-04    3.87      43.8  T
     SCC iter.                  ...        0 min,  0.007 sec
     gradient                   ...        0 min,  0.013 sec
 * total energy  :   -55.8214329 Eh     change       -0.9145142E-06 Eh
   gradient norm :     0.0002447 Eh/α   predicted    -0.4264500E-06 ( -53.37%)
   displ. norm   :     0.0116371 α      lambda       -0.3873711E-06
   maximum displ.:     0.0099425 α      in ANC's #1, #2, #4, ...

........................................................................
.............................. CYCLE    9 ..............................
........................................................................

 iter      E             dE          RMSdq      gap      omega  full diag
   1    -56.1796307 -0.561796E+02  0.591E-03    3.87       0.0  T
   2    -56.1796308 -0.255658E-08  0.345E-03    3.87       6.2  T
   3    -56.1796308  0.106503E-08  0.419E-04    3.87      50.9  T
   4    -56.1796308 -0.254478E-08  0.226E-04    3.87      94.4  T
     SCC iter.                  ...        0 min,  0.006 sec
     gradient                   ...        0 min,  0.013 sec
 * total energy  :   -55.8214334 Eh     change       -0.4259552E-06 Eh
   gradient norm :     0.0001913 Eh/α   predicted    -0.1974727E-06 ( -53.64%)
   displ. norm   :     0.0074936 α      lambda       -0.1675603E-06
   maximum displ.:     0.0066737 α      in ANC's #1, #2, #4, ...

........................................................................
.............................. CYCLE   10 ..............................
........................................................................

 iter      E             dE          RMSdq      gap      omega  full diag
   1    -56.1796470 -0.561796E+02  0.384E-03    3.87       0.0  T
   2    -56.1796470 -0.122498E-08  0.225E-03    3.87       9.5  T
   3    -56.1796470  0.322380E-09  0.349E-04    3.87      61.1  T
   4    -56.1796470 -0.144618E-08  0.223E-04    3.87      95.8  T
     SCC iter.                  ...        0 min,  0.006 sec
     gradient                   ...        0 min,  0.013 sec
 * total energy  :   -55.8214336 Eh     change       -0.1844185E-06 Eh
   gradient norm :     0.0001022 Eh/α   predicted    -0.8806892E-07 ( -52.25%)
   displ. norm   :     0.0042882 α      lambda        0.2328582E-07
   maximum displ.:     0.0040898 α      in ANC's #1, #2, #5, ...

........................................................................
.............................. CYCLE   11 ..............................
........................................................................

 iter      E             dE          RMSdq      gap      omega  full diag
   1    -56.1796515 -0.561797E+02  0.220E-03    3.87       0.0  T
   2    -56.1796515 -0.654872E-09  0.130E-03    3.87      16.4  T
   3    -56.1796515  0.325585E-09  0.300E-04    3.87      71.1  T
   4    -56.1796515 -0.110165E-08  0.189E-04    3.87     112.8  T
     SCC iter.                  ...        0 min,  0.006 sec
     gradient                   ...        0 min,  0.013 sec
 * total energy  :   -55.8214336 Eh     change       -0.1243484E-07 Eh
   gradient norm :     0.0001576 Eh/α   predicted     0.7579038E-08 (-160.95%)
   displ. norm   :     0.0019981 α      lambda       -0.7902236E-07
   maximum displ.:     0.0016179 α      in ANC's #1, #23, #4, ...

   *** GEOMETRY OPTIMIZATION CONVERGED AFTER 11 ITERATIONS ***

------------------------------------------------------------------------
 total energy gain   :        -0.0030555 Eh       -1.9173 kcal/mol
 total RMSD          :         0.0734216 a0        0.0389 Å
 total power (kW/mol):        -0.7292810 (step)  -25.5216 (real)
------------------------------------------------------------------------

 ANCopt (total)                0 d,  0 h,  0 min,  0.314 sec
 optimizer setup                ...        0 min,  0.000 sec (  0.108%)
 model hessian                  ...        0 min,  0.007 sec (  2.336%)
 ANC generation                 ...        0 min,  0.000 sec (  0.144%)
 coordinate transformation      ...        0 min,  0.000 sec (  0.025%)
 single point calculation       ...        0 min,  0.304 sec ( 96.552%)
 optimization log               ...        0 min,  0.001 sec (  0.431%)
 hessian update                 ...        0 min,  0.000 sec (  0.035%)
 rational function              ...        0 min,  0.001 sec (  0.220%)

================
 final structure:
================
$coord
        1.79069142066342        3.06977474516898       -3.35115443232673      C
        3.87863703014904        3.33744736910438       -1.99921568021044      C
        4.58853475827078        0.97869196899911       -0.62240663314219      C
        4.94883213713412        1.25353713163436        1.38570688331513      H
        2.42382635264890       -0.87099274576757       -1.17292899048325      C
        3.13592429631164       -2.65949973854096       -1.89960978777038      H
        0.64755351905861        0.49673176622194       -3.06323005687062      C
        0.44143287843020       -0.48015960776088       -4.86481672634478      H
       -1.93487106554601        0.49768640550095       -1.65372696116557      C
       -1.65835123860601        2.25736541270351        0.58927412767309      C
       -0.09879646873349        1.12794394191318        2.23313775621747      C
        0.65786077282372       -1.39377424348814        1.10272101734447      C
       -1.82783799296408       -2.07427590484195       -0.27658967950289      C
       -4.40366214141973       -2.56782631816603        1.81515753126079      Cl
       -1.61230544642254       -4.70181815706579       -2.29567552833056      Cl
        1.79106126040017       -3.63270292996467        3.27445068130430      Cl
        1.01089888104756        2.21943758645310        5.02742395455773      Cl
       -2.99513490821276        5.15023127513539        0.74246954819389      Cl
       -4.59304816731683        1.02730258818209       -3.55773848520976      Cl
        7.52483871423486       -0.23267083361523       -1.88246422489241      Cl
        0.92193344537084        4.47966293921903       -4.52347344245955      H
        5.05200239820968        4.99009189972422       -1.90331915857529      H
$end
 
 Bond Distances (Angstroems)
 ---------------------------
C1-C2=1.3239         C1-C7=1.4977         C1-H21=1.0737        C2-C1=1.3239         C2-C3=1.4933         C2-H22=1.0737        
C3-C2=1.4933         C3-H4=1.0894         C3-C5=1.5346         C3-Cl20=1.8083       H4-C3=1.0894         C5-C3=1.5346         
C5-H6=1.0889         C5-C7=1.5518         C5-C12=1.5492        H6-C5=1.0889         C7-C1=1.4977         C7-C5=1.5518         
C7-H8=1.0900         C7-C9=1.5569         H8-C7=1.0900         C9-C7=1.5569         C9-C10=1.5157        C9-C13=1.5449        
C9-Cl19=1.7528       C10-C9=1.5157        C10-C11=1.3398       C10-Cl18=1.6883      C11-C10=1.3398       C11-C12=1.5162       
C11-Cl17=1.6926      C12-C5=1.5492        C12-C11=1.5162       C12-C13=1.5468       C12-Cl16=1.7561      C13-C9=1.5449        
C13-C12=1.5468       C13-Cl14=1.7752      C13-Cl15=1.7572      Cl14-C13=1.7752      Cl15-C13=1.7572      Cl16-C12=1.7561      
Cl17-C11=1.6926      Cl18-C10=1.6883      Cl19-C9=1.7528       Cl20-C3=1.8083       H21-C1=1.0737        H22-C2=1.0737        
 C  H  Rav=1.0831 sigma=0.0077  Rmin=1.0737  Rmax=1.0900     5
 C  C  Rav=1.4976 sigma=0.0769  Rmin=1.3239  Rmax=1.5569    12
 Cl C  Rav=1.7472 sigma=0.0400  Rmin=1.6883  Rmax=1.8083     7
 
 selected bond angles (degree)
 --------------------
C7-C1-C2=112.30                H21-C1-C2=126.53               H21-C1-C7=121.17               C3-C2-C1=112.59                
H22-C2-C1=126.53               H22-C2-C3=120.81               H4-C3-C2=114.10                C5-C3-C2=104.64                
C5-C3-H4=113.64                Cl20-C3-C2=109.42              Cl20-C3-H4=104.87              Cl20-C3-C5=110.20              
H6-C5-C3=111.29                C7-C5-C3=106.08                C7-C5-H6=112.79                C12-C5-C3=114.62               
C12-C5-H6=109.15               C12-C5-C7=102.65               C5-C7-C1=104.18                H8-C7-C1=112.50                
H8-C7-C5=113.78                C9-C7-C1=113.76                C9-C7-C5=102.89                C9-C7-H8=109.35                
C10-C9-C7=106.90               C13-C9-C7=101.16               C13-C9-C10= 99.69              Cl19-C9-C7=115.41              
Cl19-C9-C10=115.43             Cl19-C9-C13=116.20             C11-C10-C9=107.09              Cl18-C10-C9=123.66             
Cl18-C10-C11=129.15            
 
 selected dihedral angles (degree)
 ---------------------------------
C3-C2-C1-C7=  2.06            C3-C2-C1-H21=181.11           H22-C2-C1-C7=179.26           H22-C2-C1-H21=358.31          
H4-C3-C2-C1=230.98            H4-C3-C2-H22= 53.60           C5-C3-C2-C1=355.79            C5-C3-C2-H22=178.41           
Cl20-C3-C2-C1=113.86          Cl20-C3-C2-H22=296.48         H6-C5-C3-C2=127.56            H6-C5-C3-H4=252.66            
H6-C5-C3-Cl20= 10.02          C7-C5-C3-C2=  4.53            C7-C5-C3-H4=129.63            C7-C5-C3-Cl20=246.99          
C12-C5-C3-C2=252.02           C12-C5-C3-H4= 17.13           C12-C5-C3-Cl20=134.48         C5-C7-C1-C2=  1.00            
C5-C7-C1-H21=181.89           H8-C7-C1-C2=237.30            H8-C7-C1-H21= 58.19           C9-C7-C1-C2=112.26            
C9-C7-C1-H21=293.15           C1-C7-C5-C3=356.53            C1-C7-C5-H6=234.46            C1-C7-C5-C12=117.13           
H8-C7-C5-C3=119.39            H8-C7-C5-H6=357.32            H8-C7-C5-C12=239.99           C9-C7-C5-C3=237.57            
C9-C7-C5-H6=115.50            C9-C7-C5-C12=358.17           C10-C9-C7-C1=316.48           C10-C9-C7-C5= 68.52           
C10-C9-C7-H8=189.77           C13-C9-C7-C1=212.64           C13-C9-C7-C5=324.68           C13-C9-C7-H8= 85.93           
Cl19-C9-C7-C1= 86.35          Cl19-C9-C7-C5=198.39          Cl19-C9-C7-H8=319.64          C11-C10-C9-C7=290.16          
C11-C10-C9-C13= 35.05         C11-C10-C9-Cl19=160.30        Cl18-C10-C9-C7=106.79         Cl18-C10-C9-C13=211.68        
Cl18-C10-C9-Cl19=336.92       
           -------------------------------------------------
          |                Final Singlepoint                |
           -------------------------------------------------

          ...................................................
          :                      SETUP                      :
          :.................................................:
          :  # basis functions                 115          :
          :  # atomic orbitals                 108          :
          :  # shells                           46          :
          :  # electrons                        94          :
          :  max. iterations                   250          :
          :  Hamiltonian                  GFN2-xTB          :
          :  restarted?                      false          :
          :  GBSA solvation                   true          :
          :  PC potential                    false          :
          :  electronic temp.          300.0000000     K    :
          :  accuracy                    1.0000000          :
          :  -> integral cutoff          0.2500000E+02      :
          :  -> integral neglect         0.1000000E-07      :
          :  -> SCF convergence          0.1000000E-05 Eh   :
          :  -> wf. convergence          0.1000000E-03 e    :
          :  Broyden damping             0.4000000          :
          :  net charge                          0          :
          :  unpaired electrons                  0          :
          ...................................................

 iter      E             dE          RMSdq      gap      omega  full diag
   1    -56.1796515 -0.561797E+02  0.144E-04    3.87       0.0  T
   2    -56.1796515 -0.756302E-10  0.123E-04    3.87     172.7  T
   3    -56.1796515 -0.488711E-10  0.107E-04    3.87     198.8  T

   *** convergence criteria satisfied after 3 iterations ***

         #    Occupation            Energy/Eh            Energy/eV
      -------------------------------------------------------------
         1        2.0000           -1.0977939             -29.8725
       ...           ...                  ...                  ...
        41        2.0000           -0.4483948             -12.2014
        42        2.0000           -0.4442807             -12.0895
        43        2.0000           -0.4397999             -11.9676
        44        2.0000           -0.4295867             -11.6896
        45        2.0000           -0.4246730             -11.5559
        46        2.0000           -0.4230664             -11.5122
        47        2.0000           -0.4202992             -11.4369 (HOMO)
        48                         -0.2779719              -7.5640 (LUMO)
        49                         -0.2463295              -6.7030
        50                         -0.2274615              -6.1895
        51                         -0.2049898              -5.5781
        52                         -0.1905415              -5.1849
       ...                                ...                  ...
       108                          0.6237022              16.9718
      -------------------------------------------------------------
                  HL-Gap            0.1423273 Eh            3.8729 eV
             Fermi-level           -0.3491355 Eh           -9.5005 eV

 SCC (total)                   0 d,  0 h,  0 min,  0.024 sec
 SCC setup                      ...        0 min,  0.001 sec (  4.813%)
 Dispersion                     ...        0 min,  0.000 sec (  0.355%)
 classical contributions        ...        0 min,  0.000 sec (  0.105%)
 integral evaluation            ...        0 min,  0.005 sec ( 20.351%)
 iterations                     ...        0 min,  0.005 sec ( 19.094%)
 molecular gradient             ...        0 min,  0.013 sec ( 54.415%)
 printout                       ...        0 min,  0.000 sec (  0.772%)

         :::::::::::::::::::::::::::::::::::::::::::::::::::::
         ::                     SUMMARY                     ::
         :::::::::::::::::::::::::::::::::::::::::::::::::::::
         :: total energy             -55.821433564555 Eh    ::
         :: total w/o Gsasa/hb       -55.820106961325 Eh    ::
         :: gradient norm              0.000157124395 Eh/a0 ::
         :: HOMO-LUMO gap              3.872922387686 eV    ::
         ::.................................................::
         :: SCC energy               -56.179054582144 Eh    ::
         :: -> isotropic ES            0.031530557197 Eh    ::
         :: -> anisotropic ES         -0.002915145526 Eh    ::
         :: -> anisotropic XC          0.011809003862 Eh    ::
         :: -> dispersion             -0.042894613069 Eh    ::
         :: -> Gsolv                  -0.008119712371 Eh    ::
         ::    -> Gelec               -0.006793109141 Eh    ::
         ::    -> Gsasa               -0.001077789753 Eh    ::
         ::    -> Ghb                 -0.001329573175 Eh    ::
         ::    -> Gshift               0.001080759698 Eh    ::
         :: repulsion energy           0.357621017589 Eh    ::
         :: add. restraining           0.000000000000 Eh    ::
         :: total charge               0.000000000000 e     ::
         :::::::::::::::::::::::::::::::::::::::::::::::::::::

           ------------------------------------------------- 
          |                Numerical Hessian                |
           ------------------------------------------------- 
step length          :   0.00500
SCC accuracy         :   0.30000
Hessian scale factor :   1.00000
frozen atoms in %    :   0.00000    0
RMS gradient         :   0.00016
estimated CPU  time      0.06 min
estimated wall time      0.06 min

writing file <hessian>.

 projected vibrational frequencies (cm⁻¹)
eigval :       -0.00    -0.00    -0.00    -0.00     0.00     0.00
eigval :       54.15    71.78    80.44    89.81   109.23   116.88
eigval :      132.72   133.48   137.76   150.27   169.38   204.77
eigval :      227.74   247.05   283.11   316.43   321.98   340.81
eigval :      358.25   394.08   432.15   473.00   529.92   570.68
eigval :      628.61   639.51   693.39   709.44   761.53   775.89
eigval :      802.04   834.12   869.99   874.13   907.00   936.98
eigval :      972.69   998.67  1026.03  1038.60  1051.18  1066.73
eigval :     1072.84  1093.22  1096.97  1128.28  1166.50  1193.79
eigval :     1211.22  1216.04  1235.41  1254.51  1283.08  1602.09
eigval :     1676.62  2977.17  2987.69  3007.44  3147.02  3162.12
           -------------------------------------------------
          |                Property Printout                |
           -------------------------------------------------

    * Orbital Energies and Occupations

         #    Occupation            Energy/Eh            Energy/eV
      -------------------------------------------------------------
         1        2.0000           -1.0977945             -29.8725
       ...           ...                  ...                  ...
        35        2.0000           -0.4645584             -12.6413
        36        2.0000           -0.4643270             -12.6350
        37        2.0000           -0.4576870             -12.4543
        38        2.0000           -0.4563822             -12.4188
        39        2.0000           -0.4545441             -12.3688
        40        2.0000           -0.4499242             -12.2431
        41        2.0000           -0.4483950             -12.2014
        42        2.0000           -0.4442809             -12.0895
        43        2.0000           -0.4398002             -11.9676
        44        2.0000           -0.4295869             -11.6897
        45        2.0000           -0.4246730             -11.5559
        46        2.0000           -0.4230665             -11.5122
        47        2.0000           -0.4202995             -11.4369 (HOMO)
        48                         -0.2779723              -7.5640 (LUMO)
        49                         -0.2463296              -6.7030
        50                         -0.2274618              -6.1895
        51                         -0.2049896              -5.5781
        52                         -0.1905419              -5.1849
        53                         -0.1859568              -5.0601
        54                         -0.1686440              -4.5890
        55                         -0.1642023              -4.4682
        56                         -0.1573163              -4.2808
        57                         -0.0877791              -2.3886
        58                         -0.0694071              -1.8887
       ...                                ...                  ...
       108                          0.6237020              16.9718
      -------------------------------------------------------------
                  HL-Gap            0.1423272 Eh            3.8729 eV
             Fermi-level           -0.3491359 Eh           -9.5005 eV

     #   Z          covCN         q      C6AA      α(0)
     1   6 C        2.934    -0.037    28.928     8.821
     2   6 C        2.971    -0.044    29.080     8.846
     3   6 C        3.801     0.066    19.480     6.284
     4   1 H        0.925     0.092     1.861     2.133
     5   6 C        3.951    -0.041    21.236     6.548
     6   1 H        0.925     0.113     1.675     2.024
     7   6 C        3.935    -0.040    21.219     6.546
     8   1 H        0.925     0.117     1.640     2.003
     9   6 C        4.021     0.092    18.980     6.189
    10   6 C        2.986     0.062    26.593     8.459
    11   6 C        2.988     0.057    26.715     8.478
    12   6 C        4.018     0.092    18.995     6.191
    13   6 C        3.855     0.158    18.017     6.037
    14  17 Cl       1.107    -0.142   103.629    15.574
    15  17 Cl       1.106    -0.113   102.709    15.505
    16  17 Cl       0.941    -0.141   103.542    15.567
    17  17 Cl       0.932    -0.078   101.573    15.419
    18  17 Cl       0.933    -0.068   101.266    15.395
    19  17 Cl       0.940    -0.134   103.336    15.552
    20  17 Cl       0.945    -0.209   105.754    15.733
    21   1 H        0.926     0.099     1.795     2.095
    22   1 H        0.926     0.100     1.783     2.088

 Mol. C6AA /au·bohr⁶  :      15696.012451
 Mol. C8AA /au·bohr⁸  :     544748.495299
 Mol. α(0) /au        :        191.486917


Wiberg/Mayer (AO) data.
largest (>0.10) Wiberg bond orders for each atom

 ---------------------------------------------------------------------------
     #   Z sym  total        # sym  WBO       # sym  WBO       # sym  WBO
 ---------------------------------------------------------------------------
     1   6 C    3.980 --     2 C    1.914     7 C    1.013    21 H    0.960
     2   6 C    3.976 --     1 C    1.914     3 C    1.025    22 H    0.960
     3   6 C    3.934 --     2 C    1.025     5 C    0.990     4 H    0.956
                            20 Cl   0.910
     4   1 H    0.991 --     3 C    0.956
     5   6 C    3.976 --     3 C    0.990     7 C    0.972     6 H    0.954
                            12 C    0.940
     6   1 H    0.987 --     5 C    0.954
     7   6 C    3.973 --     1 C    1.013     5 C    0.972     8 H    0.944
                             9 C    0.921
     8   1 H    0.986 --     7 C    0.944
     9   6 C    3.943 --    10 C    0.974    19 Cl   0.965    13 C    0.943
                             7 C    0.921
    10   6 C    3.928 --    11 C    1.707    18 Cl   1.043     9 C    0.974
    11   6 C    3.924 --    10 C    1.707    17 Cl   1.035    12 C    0.974
                            18 Cl   0.102
    12   6 C    3.944 --    11 C    0.974    16 Cl   0.961    13 C    0.941
                             5 C    0.940
    13   6 C    3.921 --    15 Cl   0.970    14 Cl   0.953     9 C    0.943
                            12 C    0.941
    14  17 Cl   1.060 --    13 C    0.953
    15  17 Cl   1.084 --    13 C    0.970
    16  17 Cl   1.055 --    12 C    0.961
    17  17 Cl   1.212 --    11 C    1.035
    18  17 Cl   1.222 --    10 C    1.043    11 C    0.102
    19  17 Cl   1.059 --     9 C    0.965
    20  17 Cl   0.999 --     3 C    0.910
    21   1 H    0.990 --     1 C    0.960
    22   1 H    0.989 --     2 C    0.960
 ---------------------------------------------------------------------------

Topologies differ in total number of bonds
Writing topology from bond orders to xtbtopo.mol

molecular dipole:
                 x           y           z       tot (Debye)
 q only:        0.603       1.115      -0.912
   full:        0.189       0.871      -0.360       2.442
molecular quadrupole (traceless):
                xx          xy          yy          xz          yz          zz
 q only:       -9.756       3.968       4.778      -0.454      -1.227       4.978
  q+dip:       -8.401       4.112       4.370       0.693      -1.103       4.032
   full:       -7.900       3.354       3.867      -0.494      -0.799       4.033

           -------------------------------------------------
          |                Geometry Summary                 |
           -------------------------------------------------

      molecular mass/u    :      373.3176258
   center of mass at/Å    :        0.0001721      -0.0003247       0.0002619
  moments of inertia/u·Å² :        0.1617363E+04   0.2070036E+04   0.2199505E+04
rotational constants/cm⁻¹ :        0.1042291E-01   0.8143644E-02   0.7664284E-02

 * 18 selected distances

     #   Z          #   Z                                           value/Å
     1   6 C        2   6 C                                       1.3238852
     3   6 C        4   1 H                                       1.0893694
     3   6 C        5   6 C                                       1.5346479
     5   6 C        6   1 H                                       1.0888593
     7   6 C        8   1 H                                       1.0899660
    10   6 C       11   6 C                                       1.3397794
     5   6 C       12   6 C                                       1.5491901
     9   6 C       13   6 C                                       1.5448853
    12   6 C       13   6 C                                       1.5468168
    13   6 C       14  17 Cl                                      1.7752196
    13   6 C       15  17 Cl                                      1.7572462
    12   6 C       16  17 Cl                                      1.7561475
    11   6 C       17  17 Cl                                      1.6926078
    10   6 C       18  17 Cl                                      1.6883270
     9   6 C       19  17 Cl                                      1.7528200
     3   6 C       20  17 Cl                                      1.8082867 (max)
     1   6 C       21   1 H                                       1.0737027 (min)
     2   6 C       22   1 H                                       1.0737496

 * 3 distinct bonds (by element types)

   Z      Z             #   av. dist./Å        max./Å        min./Å
   1 H    6 C           5     1.0831294     1.0899660     1.0737027
   6 C    6 C           6     1.4732008     1.5491901     1.3238852
   6 C   17 Cl          7     1.7472364     1.8082867     1.6883270

           -------------------------------------------------
          |               Frequency Printout                |
           -------------------------------------------------
 projected vibrational frequencies (cm⁻¹)
eigval :       -0.00    -0.00    -0.00    -0.00     0.00     0.00
eigval :       54.15    71.78    80.44    89.81   109.23   116.88
eigval :      132.72   133.48   137.76   150.27   169.38   204.77
eigval :      227.74   247.05   283.11   316.43   321.98   340.81
eigval :      358.25   394.08   432.15   473.00   529.92   570.68
eigval :      628.61   639.51   693.39   709.44   761.53   775.89
eigval :      802.04   834.12   869.99   874.13   907.00   936.98
eigval :      972.69   998.67  1026.03  1038.60  1051.18  1066.73
eigval :     1072.84  1093.22  1096.97  1128.28  1166.50  1193.79
eigval :     1211.22  1216.04  1235.41  1254.51  1283.08  1602.09
eigval :     1676.62  2977.17  2987.69  3007.44  3147.02  3162.12
 reduced masses (amu)
   1: 26.36   2: 30.52   3: 30.63   4: 29.75   5: 28.61   6: 30.92   7: 28.17   8: 32.10
   9: 31.79  10: 33.88  11: 30.32  12: 32.49  13: 34.63  14: 34.85  15: 33.41  16: 31.94
  17: 28.91  18: 29.96  19: 23.77  20: 23.02  21: 19.32  22: 29.86  23: 28.63  24: 33.71
  25: 19.01  26: 27.59  27: 15.12  28: 12.62  29: 17.20  30: 14.96  31: 14.88  32: 15.07
  33: 12.86  34: 12.89  35: 12.53  36:  9.74  37: 12.22  38:  7.62  39: 10.08  40:  6.11
  41: 11.83  42:  9.80  43:  8.90  44:  9.41  45: 10.93  46:  9.49  47: 11.53  48:  8.90
  49:  8.57  50:  3.79  51:  5.72  52: 11.06  53:  4.09  54:  6.07  55:  3.98  56:  5.69
  57:  6.04  58:  6.26  59:  7.08  60: 12.08  61: 11.52  62:  1.79  63:  1.79  64:  1.81
  65:  1.80  66:  1.98
 IR intensities (km·mol⁻¹)
   1:  0.09   2:  0.29   3:  0.05   4:  0.07   5:  0.19   6:  0.00   7:  1.23   8:  0.74
   9:  0.21  10:  0.47  11:  0.09  12:  0.10  13:  0.30  14:  0.39  15:  1.69  16:  2.30
  17:  3.45  18:  0.71  19:  4.00  20:  1.49  21:  3.96  22:  0.24  23:  1.46  24:  0.57
  25:  2.33  26:  3.30  27:  0.78  28:  0.04  29:  6.39  30:  6.33  31:  3.02  32:  3.87
  33:  1.23  34:  2.31  35:  4.64  36: 16.79  37:  5.29  38: 23.51  39:  3.89  40:  0.99
  41:  5.97  42:  7.01  43:  5.24  44: 10.49  45:  9.81  46:  4.06  47: 18.54  48:  9.59
  49:  8.31  50:  4.42  51:  8.01  52: 24.74  53:  4.46  54: 11.82  55:  3.44  56:  8.35
  57: 27.56  58: 11.70  59:  1.52  60: 38.46  61:  1.54  62:  1.87  63:  3.04  64:  3.36
  65:  0.66  66:  0.77
 Raman intensities (Ä⁴*amu⁻¹)
   1:  0.00   2:  0.00   3:  0.00   4:  0.00   5:  0.00   6:  0.00   7:  0.00   8:  0.00
   9:  0.00  10:  0.00  11:  0.00  12:  0.00  13:  0.00  14:  0.00  15:  0.00  16:  0.00
  17:  0.00  18:  0.00  19:  0.00  20:  0.00  21:  0.00  22:  0.00  23:  0.00  24:  0.00
  25:  0.00  26:  0.00  27:  0.00  28:  0.00  29:  0.00  30:  0.00  31:  0.00  32:  0.00
  33:  0.00  34:  0.00  35:  0.00  36:  0.00  37:  0.00  38:  0.00  39:  0.00  40:  0.00
  41:  0.00  42:  0.00  43:  0.00  44:  0.00  45:  0.00  46:  0.00  47:  0.00  48:  0.00
  49:  0.00  50:  0.00  51:  0.00  52:  0.00  53:  0.00  54:  0.00  55:  0.00  56:  0.00
  57:  0.00  58:  0.00  59:  0.00  60:  0.00  61:  0.00  62:  0.00  63:  0.00  64:  0.00
  65:  0.00  66:  0.00
 output can be read by thermo (or use thermo option).
 writing <g98.out> molden fake output.
 recommended (thermochemical) frequency scaling factor: 1.0
           -------------------------------------------------
          |             Thermodynamic Functions             |
           -------------------------------------------------

Molecule has no symmetry elements
It seems to be the C1 point group
c1  symmetry found (for desy threshold:  0.10E+00) used in thermo

          ...................................................
          :                      SETUP                      :
          :.................................................:
          :  # frequencies                          60      :
          :  # imaginary freq.                       0      :
          :  linear?                             false      :
          :  only rotor calc.                    false      :
          :  symmetry                               c1      :
          :  rotational number                       1      :
          :  scaling factor                  1.0000000      :
          :  rotor cutoff                    0.0000000 cm⁻¹ :
          :  imag. cutoff                 -100.0000000 cm⁻¹ :
          :.................................................:

    mode    ω/cm⁻¹     T·S(HO)/kcal·mol⁻¹    T·S(FR)/kcal·mol⁻¹   T·S(vib)
   ------------------------------------------------------------------------
       1     54.15    -1.38934 (100.00%)    -1.03290 (  0.00%)    -1.38934
       2     71.78    -1.22357 (100.00%)    -0.94939 (  0.00%)    -1.22357
       3     80.44    -1.15682 (100.00%)    -0.91564 (  0.00%)    -1.15682
       4     89.81    -1.09250 (100.00%)    -0.88303 (  0.00%)    -1.09250
       5    109.23    -0.97870 (100.00%)    -0.82504 (  0.00%)    -0.97870
       6    116.88    -0.93956 (100.00%)    -0.80498 (  0.00%)    -0.93956
       7    132.72    -0.86652 (100.00%)    -0.76734 (  0.00%)    -0.86652
       8    133.48    -0.86321 (100.00%)    -0.76563 (  0.00%)    -0.86321
       9    137.76    -0.84517 (100.00%)    -0.75629 (  0.00%)    -0.84517
      10    150.27    -0.79571 (100.00%)    -0.73055 (  0.00%)    -0.79571
      11    169.38    -0.72819 (100.00%)    -0.69509 (  0.00%)    -0.72819
      12    204.77    -0.62307 (100.00%)    -0.63887 (  0.00%)    -0.62307
      13    227.74    -0.56549 (100.00%)    -0.60738 (  0.00%)    -0.56549
      14    247.05    -0.52222 (100.00%)    -0.58328 (  0.00%)    -0.52222
      15    283.11    -0.45164 (100.00%)    -0.54291 (  0.00%)    -0.45164
   ------------------------------------------------------------------------

   temp. (K)  partition function   enthalpy   heat capacity  entropy
                                   cal/mol     cal/K/mol   cal/K/mol   J/K/mol
 298.15  VIB  0.681E+06             8807.470     54.197     56.231
         ROT  0.656E+07              888.752      2.981     34.173
         INT  0.446E+13             9696.222     57.178     90.403
         TR   0.698E+28             1481.254      4.968     43.625
         TOT                       11177.4764    62.1458   134.0277   560.7720

       T/K    H(0)-H(T)+PV         H(T)/Eh          T*S/Eh         G(T)/Eh
   ------------------------------------------------------------------------
    298.15    0.178124E-01    0.138657E+00    0.636809E-01    0.749757E-01
   ------------------------------------------------------------------------

         :::::::::::::::::::::::::::::::::::::::::::::::::::::
         ::                  THERMODYNAMIC                  ::
         :::::::::::::::::::::::::::::::::::::::::::::::::::::
         :: total free energy         -55.746457901211 Eh   ::
         ::.................................................::
         :: total energy              -55.821433564746 Eh   ::
         :: zero point energy           0.120844121669 Eh   ::
         :: G(RRHO) w/o ZPVE           -0.045868458134 Eh   ::
         :: G(RRHO) contrib.            0.074975663535 Eh   ::
         :::::::::::::::::::::::::::::::::::::::::::::::::::::

optimized geometry written to: xtbopt.coord


           -------------------------------------------------
          | TOTAL ENERGY              -55.821433564746 Eh   |
          | TOTAL ENTHALPY            -55.682777000611 Eh   |
          | TOTAL FREE ENERGY         -55.746457901211 Eh   |
          | GRADIENT NORM               0.000156396992 Eh/α |
          | HOMO-LUMO GAP               3.872920242363 eV   |
           -------------------------------------------------

------------------------------------------------------------------------
 * finished run on 2025/04/03 at 21:04:45.929     
------------------------------------------------------------------------
 total:
 * wall-time:     0 d,  0 h,  0 min,  4.285 sec
 *  cpu-time:     0 d,  0 h,  0 min,  4.205 sec
 * ratio c/w:     0.981 speedup
 SCF:
 * wall-time:     0 d,  0 h,  0 min,  0.056 sec
 *  cpu-time:     0 d,  0 h,  0 min,  0.044 sec
 * ratio c/w:     0.785 speedup
 ANC optimizer:
 * wall-time:     0 d,  0 h,  0 min,  0.352 sec
 *  cpu-time:     0 d,  0 h,  0 min,  0.338 sec
 * ratio c/w:     0.961 speedup
 analytical hessian:
 * wall-time:     0 d,  0 h,  0 min,  3.827 sec
 *  cpu-time:     0 d,  0 h,  0 min,  3.808 sec
 * ratio c/w:     0.995 speedup

