      -----------------------------------------------------------      
     |                   =====================                   |     
     |                           x T B                           |     
     |                   =====================                   |     
     |                         S. Grimme                         |     
     |          Mulliken Center for Theoretical Chemistry        |     
     |                    University of Bonn                     |     
      -----------------------------------------------------------      

   * xtb version 6.7.1 (edcfbbe) compiled by 'albert@albert-system' on 2024-07-22

   xtb is free software: you can redistribute it and/or modify it under
   the terms of the GNU Lesser General Public License as published by
   the Free Software Foundation, either version 3 of the License, or
   (at your option) any later version.
   
   xtb is distributed in the hope that it will be useful,
   but WITHOUT ANY WARRANTY; without even the implied warranty of
   MERCHANTABILITY or FITNESS FOR A PARTICULAR PURPOSE.  See the
   GNU Lesser General Public License for more details.
   
   Cite this work as:
   * C. Bannwarth, E. Caldeweyher, S. Ehlert, A. Hansen, P. Pracht,
     J. Seibert, S. Spicher, S. Grimme, WIREs Comput. Mol. Sci., 2020, 11,
     e01493. DOI: 10.1002/wcms.1493
   
   for GFN2-xTB:
   * C. Bannwarth, S. Ehlert and S. Grimme., J. Chem. Theory Comput., 2019,
     15, 1652-1671. DOI: 10.1021/acs.jctc.8b01176
   for GFN1-xTB:
   * S. Grimme, C. Bannwarth, P. Shushkov, J. Chem. Theory Comput., 2017,
     13, 1989-2009. DOI: 10.1021/acs.jctc.7b00118
   for GFN0-xTB:
   * P. Pracht, E. Caldeweyher, S. Ehlert, S. Grimme, ChemRxiv, 2019, preprint.
     DOI: 10.26434/chemrxiv.8326202.v1
   for GFN-FF:
   * S. Spicher and S. Grimme, Angew. Chem. Int. Ed., 2020, 59, 15665-15673.
     DOI: 10.1002/anie.202004239
   
   for ALPB and GBSA implicit solvation:
   * S. Ehlert, M. Stahn, S. Spicher, S. Grimme, J. Chem. Theory Comput.,
     2021, 17, 4250-4261. DOI: 10.1021/acs.jctc.1c00471
   
   for ddCOSMO and CPCM-X implicit solvation:
   * M. Stahn, S. Ehlert, S. Grimme, J. Phys. Chem. A,
     2023, XX, XXXX-XXXX. DOI: 10.1021/acs.jpca.3c04382
   
   for DFT-D4:
   * E. Caldeweyher, C. Bannwarth and S. Grimme, J. Chem. Phys., 2017,
     147, 034112. DOI: 10.1063/1.4993215
   * E. Caldeweyher, S. Ehlert, A. Hansen, H. Neugebauer, S. Spicher,
     C. Bannwarth and S. Grimme, J. Chem. Phys., 2019, 150, 154122.
     DOI: 10.1063/1.5090222
   * E. Caldeweyher, J.-M. Mewes, S. Ehlert and S. Grimme, Phys. Chem. Chem. Phys.
     2020, 22, 8499-8512. DOI: 10.1039/D0CP00502A
   
   for sTDA-xTB:
   * S. Grimme and C. Bannwarth, J. Chem. Phys., 2016, 145, 054103.
     DOI: 10.1063/1.4959605
   
   in the mass-spec context:
   * V. Asgeirsson, C. Bauer and S. Grimme, Chem. Sci., 2017, 8, 4879.
     DOI: 10.1039/c7sc00601b
   * J. Koopman and S. Grimme, ACS Omega 2019, 4, 12, 15120-15133.
     DOI: 10.1021/acsomega.9b02011
   
   for metadynamics refer to:
   * S. Grimme, J. Chem. Theory Comput., 2019, 155, 2847-2862
     DOI: 10.1021/acs.jctc.9b00143
   
   for SPH calculations refer to:
   * S. Spicher and S. Grimme, J. Chem. Theory Comput., 2021, 17, 1701-1714
     DOI: 10.1021/acs.jctc.0c01306
   
   for ONIOM refer to:
   * C. Plett, A. Katbashev, S. Ehlert, S. Grimme, M. Bursch,
     Phys. Chem. Chem. Phys., 2023, 25, 17860-17868. DOI: 10.1039/D3CP02178E
   
   for DIPRO refer to:
   * J. Kohn, N. Gildemeister, S. Grimme, D. Fazzi, A. Hansen,
     J. Chem. Phys., 2023, just accepted.
   
   for PTB refer to:
   * S. Grimme, M. Mueller, A. Hansen, J. Chem. Phys., 2023, 158, 124111.
     DOI: 10.1063/5.0137838
   
   with help from (in alphabetical order)
   P. Atkinson, C. Bannwarth, F. Bohle, G. Brandenburg, E. Caldeweyher
   M. Checinski, S. Dohm, S. Ehlert, S. Ehrlich, I. Gerasimov, C. Hölzer
   A. Katbashev, J. Kohn, J. Koopman, C. Lavigne, S. Lehtola, F. März, M. Müller,
   F. Musil, H. Neugebauer, J. Pisarek, C. Plett, P. Pracht, F. Pultar,
   J. Seibert, P. Shushkov, S. Spicher, M. Stahn, M. Steiner, T. Strunk,
   J. Stückrath, T. Rose, and J. Unsleber
   
 * started run on 2025/04/09 at 05:21:22.637     
   ID    Z sym.   atoms
    1    6 C      1, 2, 7, 8, 10, 15, 16, 18, 19
    2    8 O      3, 6, 14, 17
    3   15 P      4, 12
    4   16 S      5, 9, 11, 13
    5    1 H      20-41

           -------------------------------------------------
          |                Calculation Setup                |
           -------------------------------------------------

          program call               : /srv/scratch/z5358697/.xtb/bin/xtb solv.coord --gfn2 --sp --chrg 0 --norestart --parallel 1 --alpb water reference -I xtb_sp-xcontrol-inp
          hostname                   : k163
          coordinate file            : solv.coord
          omp threads                :                     1


           -------------------------------------------------
          |                 G F N 2 - x T B                 |
           -------------------------------------------------

        Reference                      10.1021/acs.jctc.8b01176
      * Hamiltonian:
        H0-scaling (s, p, d)           1.850000    2.230000    2.230000
        zeta-weighting                 0.500000
      * Dispersion:
        s8                             2.700000
        a1                             0.520000
        a2                             5.000000
        s9                             5.000000
      * Repulsion:
        kExp                           1.500000    1.000000
        rExp                           1.000000
      * Coulomb:
        alpha                          2.000000
        third order                    shell-resolved
        anisotropic                    true
        a3                             3.000000
        a5                             4.000000
        cn-shift                       1.200000
        cn-exp                         4.000000
        max-rad                        5.000000

      * Solvation model:               ALPB
        Solvent                        water
        Parameter file                 internal GFN2-xTB/ALPB
        Dielectric constant                8.0200E+01
        Reference state                gsolv=reference [X=1]
        Free energy shift                  2.8945E-03 Eh       1.8164E+00 kcal/mol
        Temperature                        2.9815E+02 K
        Density                            1.0000E+00 kg/L
        Solvent mass                       1.8000E+01 g/mol
        Interaction kernel             P16
        Born radius scaling (c1)           1.4744E+00
        Born radii integrator          GBOBC
        Born offset                        0.0000E+00 a0       0.0000E+00 AA
        H-bond correction              true
        Ion screening                  false
        Surface tension                    1.0000E-05 Eh       1.5569E+01 dyn/cm
        Grid points                               974 per atom

          ...................................................
          :                      SETUP                      :
          :.................................................:
          :  # basis functions                 134          :
          :  # atomic orbitals                 128          :
          :  # shells                           66          :
          :  # electrons                       116          :
          :  max. iterations                   250          :
          :  Hamiltonian                  GFN2-xTB          :
          :  restarted?                      false          :
          :  GBSA solvation                   true          :
          :  PC potential                    false          :
          :  electronic temp.          300.0000000     K    :
          :  accuracy                    1.0000000          :
          :  -> integral cutoff          0.2500000E+02      :
          :  -> integral neglect         0.1000000E-07      :
          :  -> SCF convergence          0.1000000E-05 Eh   :
          :  -> wf. convergence          0.1000000E-03 e    :
          :  Broyden damping             0.4000000          :
          :  net charge                          0          :
          :  unpaired electrons                  0          :
          ...................................................

 iter      E             dE          RMSdq      gap      omega  full diag
   1    -65.4409589 -0.654410E+02  0.660E+00    3.86       0.0  T
   2    -65.5603794 -0.119420E+00  0.388E+00    3.21       1.0  T
   3    -65.5794414 -0.190620E-01  0.115E+00    2.75       1.0  T
   4    -65.5825148 -0.307337E-02  0.491E-01    2.73       1.0  T
   5    -65.5832337 -0.718912E-03  0.287E-01    2.79       1.0  T
   6    -65.5834493 -0.215588E-03  0.116E-01    2.80       1.0  T
   7    -65.5834953 -0.460126E-04  0.454E-02    2.82       1.0  T
   8    -65.5835004 -0.513374E-05  0.196E-02    2.82       1.0  T
   9    -65.5835015 -0.110282E-05  0.790E-03    2.82       2.0  T
  10    -65.5835016 -0.385859E-07  0.335E-03    2.82       4.7  T
  11    -65.5835016 -0.667653E-07  0.139E-03    2.82      11.2  T
  12    -65.5835016 -0.516681E-08  0.539E-04    2.82      29.0  T
  13    -65.5835016 -0.729486E-09  0.140E-04    2.82     111.8  T

   *** convergence criteria satisfied after 13 iterations ***

         #    Occupation            Energy/Eh            Energy/eV
      -------------------------------------------------------------
         1        2.0000           -0.7647138             -20.8089
       ...           ...                  ...                  ...
        52        2.0000           -0.4430447             -12.0559
        53        2.0000           -0.4228429             -11.5061
        54        2.0000           -0.4119643             -11.2101
        55        2.0000           -0.3951609             -10.7529
        56        2.0000           -0.3898822             -10.6092
        57        2.0000           -0.3884293             -10.5697
        58        2.0000           -0.3861218             -10.5069 (HOMO)
        59                         -0.2825635              -7.6889 (LUMO)
        60                         -0.2582111              -7.0263
        61                         -0.2225357              -6.0555
        62                         -0.2061154              -5.6087
        63                         -0.1742338              -4.7411
       ...                                ...                  ...
       128                          1.3214054              35.9573
      -------------------------------------------------------------
                  HL-Gap            0.1035583 Eh            2.8180 eV
             Fermi-level           -0.3343426 Eh           -9.0979 eV

 SCC (total)                   0 d,  0 h,  0 min,  0.075 sec
 SCC setup                      ...        0 min,  0.003 sec (  3.449%)
 Dispersion                     ...        0 min,  0.000 sec (  0.404%)
 classical contributions        ...        0 min,  0.000 sec (  0.076%)
 integral evaluation            ...        0 min,  0.022 sec ( 29.631%)
 iterations                     ...        0 min,  0.027 sec ( 36.319%)
 molecular gradient             ...        0 min,  0.022 sec ( 29.814%)
 printout                       ...        0 min,  0.000 sec (  0.285%)

         :::::::::::::::::::::::::::::::::::::::::::::::::::::
         ::                     SUMMARY                     ::
         :::::::::::::::::::::::::::::::::::::::::::::::::::::
         :: total energy             -65.023256945902 Eh    ::
         :: total w/o Gsasa/hb       -65.025834870145 Eh    ::
         :: gradient norm              0.000187603249 Eh/a0 ::
         :: HOMO-LUMO gap              2.817965150552 eV    ::
         ::.................................................::
         :: SCC energy               -65.582440263711 Eh    ::
         :: -> isotropic ES            0.125990726079 Eh    ::
         :: -> anisotropic ES         -0.016597149014 Eh    ::
         :: -> anisotropic XC          0.029113439912 Eh    ::
         :: -> dispersion             -0.055515322699 Eh    ::
         :: -> Gsolv                  -0.021424203497 Eh    ::
         ::    -> Gelec               -0.024002127741 Eh    ::
         ::    -> Gsasa                0.003916565278 Eh    ::
         ::    -> Ghb                 -0.004233190195 Eh    ::
         ::    -> Gshift               0.002894549160 Eh    ::
         :: repulsion energy           0.559183317809 Eh    ::
         :: add. restraining           0.000000000000 Eh    ::
         :: total charge               0.000000000000 e     ::
         :::::::::::::::::::::::::::::::::::::::::::::::::::::

           -------------------------------------------------
          |                Property Printout                |
           -------------------------------------------------

    * Orbital Energies and Occupations

         #    Occupation            Energy/Eh            Energy/eV
      -------------------------------------------------------------
         1        2.0000           -0.7647138             -20.8089
       ...           ...                  ...                  ...
        46        2.0000           -0.4663615             -12.6903
        47        2.0000           -0.4616943             -12.5633
        48        2.0000           -0.4550289             -12.3820
        49        2.0000           -0.4536157             -12.3435
        50        2.0000           -0.4529019             -12.3241
        51        2.0000           -0.4490756             -12.2200
        52        2.0000           -0.4430447             -12.0559
        53        2.0000           -0.4228429             -11.5061
        54        2.0000           -0.4119643             -11.2101
        55        2.0000           -0.3951609             -10.7529
        56        2.0000           -0.3898822             -10.6092
        57        2.0000           -0.3884293             -10.5697
        58        2.0000           -0.3861218             -10.5069 (HOMO)
        59                         -0.2825635              -7.6889 (LUMO)
        60                         -0.2582111              -7.0263
        61                         -0.2225357              -6.0555
        62                         -0.2061154              -5.6087
        63                         -0.1742338              -4.7411
        64                         -0.1690747              -4.6008
        65                         -0.1552001              -4.2232
        66                         -0.1483793              -4.0376
        67                         -0.1380417              -3.7563
        68                         -0.1365586              -3.7159
        69                         -0.0476162              -1.2957
       ...                                ...                  ...
       128                          1.3214054              35.9573
      -------------------------------------------------------------
                  HL-Gap            0.1035583 Eh            2.8180 eV
             Fermi-level           -0.3343426 Eh           -9.0979 eV

     #   Z          covCN         q      C6AA      α(0)
     1   6 C        3.751    -0.134    23.149     6.862
     2   6 C        3.824     0.079    19.255     6.244
     3   8 O        1.655    -0.251    18.170     5.754
     4  15 P        3.808     0.366   144.976    21.629
     5  16 S        0.928    -0.481   160.483    21.427
     6   8 O        1.655    -0.267    18.436     5.796
     7   6 C        3.826     0.075    19.305     6.252
     8   6 C        3.751    -0.117    22.807     6.811
     9  16 S        1.982    -0.139   146.921    20.401
    10   6 C        3.801     0.029    20.095     6.382
    11  16 S        2.014    -0.134   146.695    20.385
    12  15 P        3.832     0.370   144.850    21.620
    13  16 S        0.928    -0.462   159.599    21.368
    14   8 O        1.656    -0.263    18.379     5.787
    15   6 C        3.868     0.076    19.268     6.242
    16   6 C        3.751    -0.125    22.967     6.834
    17   8 O        1.655    -0.257    18.273     5.770
    18   6 C        3.835     0.084    19.171     6.229
    19   6 C        3.751    -0.124    22.947     6.832
    20   1 H        0.925     0.078     2.002     2.213
    21   1 H        0.925     0.065     2.144     2.290
    22   1 H        0.925     0.088     1.901     2.156
    23   1 H        0.924     0.061     2.184     2.311
    24   1 H        0.924     0.081     1.964     2.192
    25   1 H        0.924     0.070     2.090     2.261
    26   1 H        0.924     0.095     1.827     2.114
    27   1 H        0.925     0.064     2.150     2.293
    28   1 H        0.924     0.048     2.340     2.392
    29   1 H        0.925     0.083     1.952     2.185
    30   1 H        0.925     0.113     1.673     2.023
    31   1 H        0.925     0.126     1.565     1.956
    32   1 H        0.924     0.090     1.877     2.142
    33   1 H        0.924     0.064     2.151     2.294
    34   1 H        0.925     0.083     1.946     2.181
    35   1 H        0.925     0.054     2.276     2.359
    36   1 H        0.925     0.070     2.088     2.260
    37   1 H        0.924     0.053     2.286     2.364
    38   1 H        0.924     0.083     1.948     2.183
    39   1 H        0.925     0.058     2.225     2.333
    40   1 H        0.925     0.079     1.989     2.205
    41   1 H        0.925     0.071     2.072     2.251

 Mol. C6AA /au·bohr⁶  :      26395.549141
 Mol. C8AA /au·bohr⁸  :     862743.977443
 Mol. α(0) /au        :        257.583198


Wiberg/Mayer (AO) data.
largest (>0.10) Wiberg bond orders for each atom

 ---------------------------------------------------------------------------
     #   Z sym  total        # sym  WBO       # sym  WBO       # sym  WBO
 ---------------------------------------------------------------------------
     1   6 C    3.979 --     2 C    1.020    20 H    0.982    21 H    0.976
                            22 H    0.974
     2   6 C    3.883 --     1 C    1.020    24 H    0.967    23 H    0.960
                             3 O    0.875
     3   8 O    2.420 --     4 P    1.350     2 C    0.875
     4  15 P    5.283 --     5 S    1.477     3 O    1.350     6 O    1.323
                             9 S    0.977
     5  16 S    1.823 --     4 P    1.477     9 S    0.141
     6   8 O    2.398 --     4 P    1.323     7 C    0.885
     7   6 C    3.890 --     8 C    1.023    25 H    0.967    26 H    0.963
                             6 O    0.885
     8   6 C    3.988 --     7 C    1.023    27 H    0.982    29 H    0.976
                            28 H    0.973
     9  16 S    2.287 --     4 P    0.977    10 C    0.976     5 S    0.141
    10   6 C    3.944 --    11 S    0.991     9 S    0.976    30 H    0.956
                            31 H    0.953
    11  16 S    2.306 --    10 C    0.991    12 P    0.973    13 S    0.139
    12  15 P    5.286 --    13 S    1.509    17 O    1.334    14 O    1.326
                            11 S    0.973
    13  16 S    1.836 --    12 P    1.509    11 S    0.139
    14   8 O    2.396 --    12 P    1.326    15 C    0.879
    15   6 C    3.890 --    16 C    1.023    33 H    0.966    32 H    0.965
                            14 O    0.879
    16   6 C    3.988 --    15 C    1.023    36 H    0.983    35 H    0.976
                            34 H    0.976
    17   8 O    2.413 --    12 P    1.334    18 C    0.884
    18   6 C    3.891 --    19 C    1.020    37 H    0.968    38 H    0.967
                            17 O    0.884
    19   6 C    3.986 --    18 C    1.020    41 H    0.983    39 H    0.981
                            40 H    0.977
    20   1 H    0.994 --     1 C    0.982
    21   1 H    0.996 --     1 C    0.976
    22   1 H    0.991 --     1 C    0.974
    23   1 H    0.996 --     2 C    0.960
    24   1 H    0.993 --     2 C    0.967
    25   1 H    0.995 --     7 C    0.967
    26   1 H    0.991 --     7 C    0.963
    27   1 H    0.996 --     8 C    0.982
    28   1 H    0.998 --     8 C    0.973
    29   1 H    0.993 --     8 C    0.976
    30   1 H    0.987 --    10 C    0.956
    31   1 H    0.984 --    10 C    0.953
    32   1 H    0.991 --    15 C    0.965
    33   1 H    0.996 --    15 C    0.966
    34   1 H    0.992 --    16 C    0.976
    35   1 H    0.997 --    16 C    0.976
    36   1 H    0.995 --    16 C    0.983
    37   1 H    0.997 --    18 C    0.968
    38   1 H    0.993 --    18 C    0.967
    39   1 H    0.997 --    19 C    0.981
    40   1 H    0.993 --    19 C    0.977
    41   1 H    0.995 --    19 C    0.983
 ---------------------------------------------------------------------------

Topologies differ in total number of bonds
Writing topology from bond orders to xtbtopo.mol

molecular dipole:
                 x           y           z       tot (Debye)
 q only:       -0.341      -1.154      -1.273
   full:       -0.208      -1.174      -1.336       4.552
molecular quadrupole (traceless):
                xx          xy          yy          xz          yz          zz
 q only:       12.811      -3.172      -9.147      -1.605      -1.693      -3.664
  q+dip:       18.264      -1.755     -10.115       2.843       0.242      -8.149
   full:       17.438      -1.273      -9.728       2.034      -0.727      -7.709


           -------------------------------------------------
          | TOTAL ENERGY              -65.023256945902 Eh   |
          | GRADIENT NORM               0.000187603249 Eh/α |
          | HOMO-LUMO GAP               2.817965150552 eV   |
           -------------------------------------------------

------------------------------------------------------------------------
 * finished run on 2025/04/09 at 05:21:22.780     
------------------------------------------------------------------------
 total:
 * wall-time:     0 d,  0 h,  0 min,  0.142 sec
 *  cpu-time:     0 d,  0 h,  0 min,  0.075 sec
 * ratio c/w:     0.526 speedup
 SCF:
 * wall-time:     0 d,  0 h,  0 min,  0.075 sec
 *  cpu-time:     0 d,  0 h,  0 min,  0.061 sec
 * ratio c/w:     0.811 speedup

