
                                 *****************
                                 * O   R   C   A *
                                 *****************

                                            #,                                       
                                            ###                                      
                                            ####                                     
                                            #####                                    
                                            ######                                   
                                           ########,                                 
                                     ,,################,,,,,                         
                               ,,#################################,,                 
                          ,,##########################################,,             
                       ,#########################################, ''#####,          
                    ,#############################################,,   '####,        
                  ,##################################################,,,,####,       
                ,###########''''           ''''###############################       
              ,#####''   ,,,,##########,,,,          '''####'''          '####       
            ,##' ,,,,###########################,,,                        '##       
           ' ,,###''''                  '''############,,,                           
         ,,##''                                '''############,,,,        ,,,,,,###''
      ,#''                                            '''#######################'''  
     '                                                          ''''####''''         
             ,#######,   #######,   ,#######,      ##                                
            ,#'     '#,  ##    ##  ,#'     '#,    #''#        ,####,   ,####,        
            ##       ##  ##   ,#'  ##            #'  '#       #'       #'  '#        
            ##       ##  #######   ##           ,######,      #####,   #    #        
            '#,     ,#'  ##    ##  '#,     ,#' ,#      #,     #,   #   #,  ,#        
             '#######'   ##     ##  '#######'  #'      '#     '####' # '####'        



                #########################################################
                #                        -***-                          #
                #          Department of theory and spectroscopy        #
                #                                                       #
                #                      Frank Neese                      #
                #                                                       #
                #     Directorship, Architecture, Infrastructure        #
                #                    SHARK, DRIVERS                     #
                #        Core code/Algorithms in most modules           #
                #                                                       #
                #        Max Planck Institute fuer Kohlenforschung      #
                #                Kaiser Wilhelm Platz 1                 #
                #                 D-45470 Muelheim/Ruhr                 #
                #                      Germany                          #
                #                                                       #
                #                  All rights reserved                  #
                #                        -***-                          #
                #########################################################


                         Program Version 6.0.0  -   RELEASE  -


 With contributions from (in alphabetic order):
   Daniel Aravena         : Magnetic Suceptibility
   Michael Atanasov       : Ab Initio Ligand Field Theory (pilot matlab implementation)
   Alexander A. Auer      : GIAO ZORA, VPT2 properties, NMR spectrum
   Ute Becker             : All parallelization in ORCA, NUMFREQ, NUMCALC
   Giovanni Bistoni       : ED, misc. LED, open-shell LED, HFLD
   Martin Brehm           : Molecular dynamics
   Dmytro Bykov           : pre 5.0 version of the SCF Hessian
   Marcos Casanova-Páez   : Triplet and SCS-CIS(D). UHF-(DLPNO)-IP/EA/STEOM-CCSD. UHF-CVS-IP/STEOM-CCSD
   Vijay G. Chilkuri      : MRCI spin determinant printing, contributions to CSF-ICE
   Pauline Colinet        : FMM embedding
   Dipayan Datta          : RHF DLPNO-CCSD density
   Achintya Kumar Dutta   : EOM-CC, STEOM-CC
   Nicolas Foglia         : Exact transition moments, OPA infrastructure, MCD improvements
   Dmitry Ganyushin       : Spin-Orbit,Spin-Spin,Magnetic field MRCI
   Miquel Garcia          : C-PCM and meta-GGA Hessian, CCSD/C-PCM, Gaussian charge scheme
   Tiago L. C. Gouveia    : GS-ROHF, GS-ROCIS
   Yang Guo               : DLPNO-NEVPT2, F12-NEVPT2, CIM, IAO-localization
   Andreas Hansen         : Spin unrestricted coupled pair/coupled cluster methods
   Ingolf Harden          : AUTO-CI MPn and infrastructure 
   Benjamin Helmich-Paris : MC-RPA, TRAH-(SCF,CASSCF), AVAS, COSX integrals, SCF dyn. polar.
   Lee Huntington         : MR-EOM, pCC
   Robert Izsak           : Overlap fitted RIJCOSX, COSX-SCS-MP3, EOM
   Riya Kayal             : Wick's Theorem for AUTO-CI, AUTO-CI UHF-CCSDT
   Emily Kempfer          : AUTO-CI, RHF CISDT and CCSDT
   Christian Kollmar      : KDIIS, OOCD, Brueckner-CCSD(T), CCSD density, CASPT2, CASPT2-K, improved NEVPT2
   Axel Koslowski         : Symmetry handling
   Simone Kossmann        : Meta GGA functionals, TD-DFT gradient, OOMP2, (MP2 Hessian; deprecated post 5.0)
   Lucas Lang             : DCDCAS
   Marvin Lechner         : AUTO-CI (C++ implementation), FIC-MRCC
   Spencer Leger          : CASSCF response
   Dagmar Lenk            : GEPOL surface, SMD, ORCA-2-JSON
   Dimitrios Liakos       : Extrapolation schemes; Compound Job, initial MDCI parallelization
   Dimitrios Manganas     : Further ROCIS development; embedding schemes. LFT, Crystal Embedding
   Dimitrios Pantazis     : SARC Basis sets
   Anastasios Papadopoulos: AUTO-CI, single reference methods and gradients
   Taras Petrenko         : pre 6.0 DFT Hessian and TD-DFT gradient, (ASA, deprecated), ECA, 1-Electron XAS/XES, NRVS
   Peter Pinski           : DLPNO-MP2, DLPNO-MP2 Gradient
   Christoph Reimann      : Effective Core Potentials
   Marius Retegan         : Local ZFS, SOC
   Christoph Riplinger    : Optimizer, TS searches, QM/MM, DLPNO-CCSD(T), (RO)-DLPNO pert. Triples
   Michael Roemelt        : Original ROCIS implementation
   Masaaki Saitow         : Open-shell DLPNO-CCSD energy and density
   Barbara Sandhoefer     : DKH picture change effects
   Kantharuban Sivalingam : CASSCF convergence/infrastructure, NEVPT2 and variants, FIC-MRCI
   Bernardo de Souza      : ESD, SOC TD-DFT
   Georgi Stoychev        : AutoAux, RI-MP2 NMR, DLPNO-MP2 response, X2C
   Van Anh Tran           : RI-MP2 g-tensors
   Willem Van den Heuvel  : Paramagnetic NMR
   Zikuan Wang            : NOTCH, Electric field optimization 
   Frank Wennmohs         : Technical directorship and infrastructure
   Hang Xu                : AUTO-CI-Response properties 


 We gratefully acknowledge several colleagues who have allowed us to
 interface, adapt or use parts of their codes:
   Stefan Grimme, W. Hujo, H. Kruse, P. Pracht,  : VdW corrections, initial TS optimization,
                  C. Bannwarth, S. Ehlert,         DFT functionals, gCP, sTDA/sTD-DF
                  L. Wittmann, M. Mueller
   Ed Valeev, F. Pavosevic, A. Kumar             : LibInt (2-el integral package), F12 methods
   Garnet Chan, S. Sharma, J. Yang, R. Olivares  : DMRG
   Ulf Ekstrom                                   : XCFun DFT Library
   Mihaly Kallay                                 : mrcc  (arbitrary order and MRCC methods)
   Frank Weinhold                                : gennbo (NPA and NBO analysis)
   Simon Mueller                                 : openCOSMO-RS
   Christopher J. Cramer and Donald G. Truhlar   : smd solvation model
   Lars Goerigk                                  : TD-DFT with DH, B97 family of functionals
   V. Asgeirsson, H. Jonsson                     : NEB implementation
   FAccTs GmbH                                   : IRC, NEB, NEB-TS, DLPNO-Multilevel, CI-OPT
                                                   MM, QMMM, 2- and 3-layer-ONIOM, Crystal-QMMM,
                                                   LR-CPCM, SF, NACMEs, symmetry and pop. for TD-DFT,
                                                   nearIR, NL-DFT gradient (VV10), updates on ESD,
                                                   ML-optimized integration grids, MBIS, APM,
                                                   GOAT, DOCKER, SOLVATOR, interface openCOSMO-RS
   S Lehtola, MJT Oliveira, MAL Marques          : LibXC Library
   Liviu Ungur et al                             : ANISO software


 Your calculation uses the libint2 library for the computation of 2-el integrals
 For citations please refer to: http://libint.valeyev.net

 Your ORCA version has been built with support for libXC version: 6.2.2
 For citations please refer to: https://libxc.gitlab.io

 This ORCA versions uses:
   CBLAS   interface :  Fast vector & matrix operations
   LAPACKE interface :  Fast linear algebra routines
   SCALAPACK package :  Parallel linear algebra routines
   Shared memory     :  Shared parallel matrices
   BLAS/LAPACK       :  OpenBLAS 0.3.27  USE64BITINT DYNAMIC_ARCH NO_AFFINITY SkylakeX SINGLE_THREADED
        Core in use  :  SkylakeX
   Copyright (c) 2011-2014, The OpenBLAS Project


Your calculation utilizes the geometrical counterpoise correction gCP
Please cite in your paper:
H.Kruse, S. Grimme J.Chem.Phys., 136, (2012), 154101 
   

Your calculation utilizes the DFT-NL dispersion correction.
Cite in your paper:
Vydrov, O. A.; Van Voorhis, T. J. Chem. Phys. 2010, 133, 244103
Hujo, W.; Grimme, S. J. Chem. Theory Comput. 2011, 7, 3866 
   

Your calculation utilizes the SMD solvation module
Please cite in your paper:
A.V. Marenich, C.J. Cramer, D.G. Truhlar J. Phys. Chem. B, 113, (2009), 6378 

================================================================================

----- Orbital basis set information -----
Your calculation utilizes the basis: def2-TZVP
   F. Weigend and R. Ahlrichs, Phys. Chem. Chem. Phys. 7, 3297 (2005).

----- AuxJ basis set information -----
Your calculation utilizes the auxiliary basis: def2/J
   F. Weigend, Phys. Chem. Chem. Phys. 8, 1057 (2006).

================================================================================
                                        WARNINGS
                       Please study these warnings very carefully!
================================================================================


================================================================================
                                       INPUT FILE
================================================================================
NAME = sp_solv.inp
|  1> ! wb97x-v def2-tzvp def2/J RIJCOSX DEFGRID2 scfconv7 GCP(DFT/TZ) printgap
|  2> %output
|  3>     printlevel normal
|  4> end
|  5> %cpcm
|  6>     smd true
|  7>     smdsolvent "water"
|  8> end
|  9> * xyz 0 1
| 10> C -0.6700591370250851 1.2656251084933492 0.0002967652945445375
| 11> C 0.6702060938405774 1.2655710225752084 0.00018331384794506865
| 12> C 1.4251661410686318 -7.296433456281655e-05 -2.2945206311044168e-05
| 13> O 2.6584766361003047 -0.00012455946681319929 -0.00020068074555942475
| 14> C 0.6701037507165636 -1.2656554609058164 0.0002897719043320811
| 15> C -0.6701633460114864 -1.2655993785495996 0.0004006905760465965
| 16> C -1.4251234852727181 4.4442752882856426e-05 -0.0007691411006279365
| 17> O -2.658435562383514 9.230048251978431e-05 1.3651748003298544e-05
| 18> H -1.2527792481568154 2.181626881965539 0.0004688079747510325
| 19> H 1.2529960795638855 2.1815274512775313 -8.251139155004483e-05
| 20> H 1.252820181145119 -2.181659271476196 0.00010839966266030829
| 21> H -1.2529566605881586 -2.181555555502739 0.0006515431253360617
| 22> *
| 23> 
| 24>                          ****END OF INPUT****
================================================================================

                       ****************************
                       * Single Point Calculation *
                       ****************************

---------------------------------
CARTESIAN COORDINATES (ANGSTROEM)
---------------------------------
  C     -0.670059    1.265625    0.000297
  C      0.670206    1.265571    0.000183
  C      1.425166   -0.000073   -0.000023
  O      2.658477   -0.000125   -0.000201
  C      0.670104   -1.265655    0.000290
  C     -0.670163   -1.265599    0.000401
  C     -1.425123    0.000044   -0.000769
  O     -2.658436    0.000092    0.000014
  H     -1.252779    2.181627    0.000469
  H      1.252996    2.181527   -0.000083
  H      1.252820   -2.181659    0.000108
  H     -1.252957   -2.181556    0.000652

----------------------------
CARTESIAN COORDINATES (A.U.)
----------------------------
  NO LB      ZA    FRAG     MASS         X           Y           Z
   0 C     6.0000    0    12.011   -1.266228    2.391685    0.000561
   1 C     6.0000    0    12.011    1.266506    2.391583    0.000346
   2 C     6.0000    0    12.011    2.693174   -0.000138   -0.000043
   3 O     8.0000    0    15.999    5.023793   -0.000235   -0.000379
   4 C     6.0000    0    12.011    1.266313   -2.391742    0.000548
   5 C     6.0000    0    12.011   -1.266425   -2.391636    0.000757
   6 C     6.0000    0    12.011   -2.693093    0.000084   -0.001453
   7 O     8.0000    0    15.999   -5.023715    0.000174    0.000026
   8 H     1.0000    0     1.008   -2.367410    4.122677    0.000886
   9 H     1.0000    0     1.008    2.367819    4.122489   -0.000156
  10 H     1.0000    0     1.008    2.367487   -4.122739    0.000205
  11 H     1.0000    0     1.008   -2.367745   -4.122543    0.001231

--------------------------------
INTERNAL COORDINATES (ANGSTROEM)
--------------------------------
 C      0   0   0     0.000000000000     0.00000000     0.00000000
 C      1   0   0     1.340265236759     0.00000000     0.00000000
 C      2   1   0     1.473709407263   120.81850276     0.00000000
 O      3   2   1     1.233310508918   120.81858788   179.99603277
 C      3   2   1     1.473709050913   118.36297462     0.00000000
 C      5   3   2     1.340267102491   120.81843496     0.00000000
 C      1   2   3     1.473708834081   120.81860871   359.95529608
 O      7   1   2     1.233312326462   120.81866424   179.96330182
 H      1   2   3     1.085643590927   122.46504020   179.99876839
 H      2   1   3     1.085642859049   122.46481172   179.98001360
 H      5   3   2     1.085643335616   116.71665839   179.99884130
 H      6   5   3     1.085644430069   122.46488175   180.00134607

---------------------------
INTERNAL COORDINATES (A.U.)
---------------------------
 C      0   0   0     0.000000000000     0.00000000     0.00000000
 C      1   0   0     2.532734244289     0.00000000     0.00000000
 C      2   1   0     2.784907180710   120.81850276     0.00000000
 O      3   2   1     2.330619099942   120.81858788   179.99603277
 C      3   2   1     2.784906507307   118.36297462     0.00000000
 C      5   3   2     2.532737770012   120.81843496     0.00000000
 C      1   2   3     2.784906097553   120.81860871   359.95529608
 O      7   1   2     2.330622534602   120.81866424   179.96330182
 H      1   2   3     2.051569065898   122.46504020   179.99876839
 H      2   1   3     2.051567682849   122.46481172   179.98001360
 H      5   3   2     2.051568583430   116.71665839   179.99884130
 H      6   5   3     2.051570651648   122.46488175   180.00134607

---------------------
BASIS SET INFORMATION
---------------------
There are 3 groups of distinct atoms

 Group   1 Type C   : 11s6p2d1f contracted to 5s3p2d1f pattern {62111/411/11/1}
 Group   2 Type O   : 11s6p2d1f contracted to 5s3p2d1f pattern {62111/411/11/1}
 Group   3 Type H   : 5s1p contracted to 3s1p pattern {311/1}

Atom   0C    basis set group =>   1
Atom   1C    basis set group =>   1
Atom   2C    basis set group =>   1
Atom   3O    basis set group =>   2
Atom   4C    basis set group =>   1
Atom   5C    basis set group =>   1
Atom   6C    basis set group =>   1
Atom   7O    basis set group =>   2
Atom   8H    basis set group =>   3
Atom   9H    basis set group =>   3
Atom  10H    basis set group =>   3
Atom  11H    basis set group =>   3
---------------------------------
AUXILIARY/J BASIS SET INFORMATION
---------------------------------
There are 3 groups of distinct atoms

 Group   1 Type C   : 12s5p4d2f1g contracted to 6s4p3d1f1g pattern {711111/2111/211/2/1}
 Group   2 Type O   : 12s5p4d2f1g contracted to 6s4p3d1f1g pattern {711111/2111/211/2/1}
 Group   3 Type H   : 5s2p1d contracted to 3s1p1d pattern {311/2/1}

Atom   0C    basis set group =>   1
Atom   1C    basis set group =>   1
Atom   2C    basis set group =>   1
Atom   3O    basis set group =>   2
Atom   4C    basis set group =>   1
Atom   5C    basis set group =>   1
Atom   6C    basis set group =>   1
Atom   7O    basis set group =>   2
Atom   8H    basis set group =>   3
Atom   9H    basis set group =>   3
Atom  10H    basis set group =>   3
Atom  11H    basis set group =>   3

Checking for AutoStart:
The File: sp_solv.gbw exists
Trying to determine its content:
     ... Fine, the file contains calculation information
     ... Fine, the calculation information was read
     ... Fine, the file contains a basis set
     ... Fine, the basis set was read
     ... Fine, the file contains a geometry
     ... Fine, the geometry was read
     ... Fine, the file contains a set of orbitals
     ... Fine, the orbitals can be read
     => possible old guess file was deleted
     => GBW file was renamed to GES file
     => GES file is set as startup file
     => Guess is set to MORead
     ... now leaving AutoStart

------------------------------------------------------------------------------
                             ORCA STARTUP CALCULATIONS
                           -- RI-GTO INTEGRALS CHOSEN --
------------------------------------------------------------------------------
------------------------------------------------------------------------------
                   ___                                                        
                  /   \      - P O W E R E D   B Y -                         
                 /     \                                                     
                 |  |  |   _    _      __       _____    __    __             
                 |  |  |  | |  | |    /  \     |  _  \  |  |  /  |          
                  \  \/   | |  | |   /    \    | | | |  |  | /  /          
                 / \  \   | |__| |  /  /\  \   | |_| |  |  |/  /          
                |  |  |   |  __  | /  /__\  \  |    /   |      \           
                |  |  |   | |  | | |   __   |  |    \   |  |\   \          
                \     /   | |  | | |  |  |  |  | |\  \  |  | \   \       
                 \___/    |_|  |_| |__|  |__|  |_| \__\ |__|  \__/        
                                                                              
                      - O R C A' S   B I G   F R I E N D -                    
                                      &                                       
                       - I N T E G R A L  F E E D E R -                       
                                                                              
 v1 FN, 2020, v2 2021, v3 2022-2024                                           
------------------------------------------------------------------------------


----------------------
SHARK INTEGRAL PACKAGE
----------------------

Number of atoms                             ...     12
Number of basis functions                   ...    272
Number of shells                            ...    104
Maximum angular momentum                    ...      3
Integral batch strategy                     ... SHARK/LIBINT Hybrid
RI-J (if used) integral strategy            ... SPLIT-RIJ (Revised 2003 algorithm where possible)
Printlevel                                  ...      1
Contraction scheme used                     ... SEGMENTED contraction
Prescreening option                         ... SCHWARTZ
   Thresh                                   ... 3.000e-11
   Tcut                                     ... 1.000e-12
   Tpresel                                  ... 1.000e-12 
Coulomb Range Separation                    ... NOT USED
Exchange Range Separation                   ... Long Range
   Mu parameter                             ... 3.000e-01
   Scaling (regular/separated)              ... 1.670e-01 8.330e-01
Multipole approximations                    ... NOT USED
Finite Nucleus Model                        ... NOT USED
CABS basis                                  ... NOT available
Auxiliary Coulomb fitting basis             ... AVAILABLE
   # of basis functions in Aux-J            ...    436
   # of shells in Aux-J                     ...    140
   Maximum angular momentum in Aux-J        ...      4
Auxiliary J/K fitting basis                 ... NOT available
Auxiliary Correlation fitting basis         ... NOT available
Auxiliary 'external' fitting basis          ... NOT available

Checking pre-screening integrals            ... done (  0.0 sec) Dimension = 104
Check shell pair data                       ... done (  0.0 sec)
Shell pair information
Shell pair cut-off parameter TPreSel        ...   1.0e-12
Total number of shell pairs                 ...      5460
Shell pairs after pre-screening             ...      5086
Total number of primitive shell pairs       ...     17208
Primitive shell pairs kept                  ...     12173
          la=0 lb=0:   1217 shell pairs
          la=1 lb=0:   1376 shell pairs
          la=1 lb=1:    395 shell pairs
          la=2 lb=0:    776 shell pairs
          la=2 lb=1:    434 shell pairs
          la=2 lb=2:    131 shell pairs
          la=3 lb=0:    384 shell pairs
          la=3 lb=1:    216 shell pairs
          la=3 lb=2:    122 shell pairs
          la=3 lb=3:     35 shell pairs

Calculating one electron integrals          ... done (  0.0 sec)
Calculating RI/J V-Matrix + Cholesky decomp.... done (  0.1 sec)
Calculating Nuclear repulsion               ... done (  0.0 sec) ENN=    323.115600322829 Eh

Diagonalization of the overlap matrix:
Smallest eigenvalue                        ... 1.550e-05
Time for diagonalization                   ...    0.006 sec
Threshold for overlap eigenvalues          ... 1.000e-07
Number of eigenvalues below threshold      ... 0
Time for construction of square roots      ...    0.020 sec
Total time needed                          ...    0.034 sec

-------------------
DFT GRID GENERATION
-------------------

General Integration Accuracy     IntAcc      ... 4.388
Radial Grid Type                 RadialGrid  ... OptM3 with GC (2021)
Angular Grid (max. ang.)         AngularGrid ... 4 (Lebedev-302)
Angular grid pruning method      GridPruning ... 4 (adaptive)
Weight generation scheme         WeightScheme... mBecke (2022)
Basis function cutoff            BFCut       ... 1.0000e-11
Integration weight cutoff        WCut        ... 1.0000e-14
Partially contracted basis set               ... off
Rotationally invariant grid construction     ... off
Angular grids for H and He will be reduced by one unit

Total number of grid points                  ...    61232
Total number of batches                      ...      964
Average number of points per batch           ...       63
Average number of grid points per atom       ...     5103

--------------------
COSX GRID GENERATION
--------------------

GRIDX 1
-------
General Integration Accuracy     IntAcc      ... 3.816
Radial Grid Type                 RadialGrid  ... OptM3 with GC (2021)
Angular Grid (max. ang.)         AngularGrid ... 1 (Lebedev-50)
Angular grid pruning method      GridPruning ... 4 (adaptive)
Weight generation scheme         WeightScheme... mBecke (2022)
Basis function cutoff            BFCut       ... 1.0000e-11
Integration weight cutoff        WCut        ... 1.0000e-14
Partially contracted basis set               ... on
Rotationally invariant grid construction     ... off
Angular grids for H and He will be reduced by one unit

Total number of grid points                  ...     7784
Total number of batches                      ...       66
Average number of points per batch           ...      117
Average number of grid points per atom       ...      649
UseSFitting                                  ... on

GRIDX 2
-------
General Integration Accuracy     IntAcc      ... 4.020
Radial Grid Type                 RadialGrid  ... OptM3 with GC (2021)
Angular Grid (max. ang.)         AngularGrid ... 2 (Lebedev-110)
Angular grid pruning method      GridPruning ... 4 (adaptive)
Weight generation scheme         WeightScheme... mBecke (2022)
Basis function cutoff            BFCut       ... 1.0000e-11
Integration weight cutoff        WCut        ... 1.0000e-14
Partially contracted basis set               ... on
Rotationally invariant grid construction     ... off
Angular grids for H and He will be reduced by one unit

Total number of grid points                  ...    17582
Total number of batches                      ...      142
Average number of points per batch           ...      123
Average number of grid points per atom       ...     1465
UseSFitting                                  ... on

GRIDX 3
-------
General Integration Accuracy     IntAcc      ... 4.338
Radial Grid Type                 RadialGrid  ... OptM3 with GC (2021)
Angular Grid (max. ang.)         AngularGrid ... 3 (Lebedev-194)
Angular grid pruning method      GridPruning ... 4 (adaptive)
Weight generation scheme         WeightScheme... mBecke (2022)
Basis function cutoff            BFCut       ... 1.0000e-11
Integration weight cutoff        WCut        ... 1.0000e-14
Partially contracted basis set               ... on
Rotationally invariant grid construction     ... off
Angular grids for H and He will be reduced by one unit

Total number of grid points                  ...    38875
Total number of batches                      ...      306
Average number of points per batch           ...      127
Average number of grid points per atom       ...     3240
UseSFitting                                  ... on
Initializing property integral containers    ... done (  0.0 sec)

SHARK setup successfully completed in   1.6 seconds

Maximum memory used throughout the entire STARTUP-calculation: 37.4 MB
-------------------------------------------------------------------------------
                                 ORCA GUESS
                   Start orbitals & Density for SCF / CASSCF
-------------------------------------------------------------------------------

------------
SCF SETTINGS
------------
Hamiltonian:
 Density Functional     Method          .... DFT(GTOs)
 Exchange Functional    Exchange        .... WB97X-V
 Correlation Functional Correlation     .... WB97X-V
 Gradients option       PostSCFGGA      .... off
 Hybrid DFT is turned on
   Fraction HF Exchange ScalHFX         ....  0.167000
   Scaling of DF-GGA-X  ScalDFX         ....  0.000000
   Scaling of DF-GGA-C  ScalDFC         ....  1.000000
   Scaling of DF-LDA-C  ScalLDAC        ....  1.000000
   Perturbative correction              ....  0.000000
 Long-range corrected/Screened/Range-Separated Hybrid DFT is turned on
   Amount of maximum screened exact exchange              ....  0.833000
   Range separation parameter mu (erf(mu*r12)/r12)        ....  0.300000
   NL short-range parameter             ....  6.000000
   NL long-range parameter              ....  0.010000
 RI-approximation to the Coulomb term is turned on
   Number of AuxJ basis functions       .... 436
   RIJ-COSX (HFX calculated with COS-X)).... on


General Settings:
 Integral files         IntName         .... sp_solv
 Hartree-Fock type      HFTyp           .... RHF
 Total Charge           Charge          ....    0
 Multiplicity           Mult            ....    1
 Number of Electrons    NEL             ....   56
 Basis Dimension        Dim             ....  272
 Nuclear Repulsion      ENuc            ....    323.1156003228 Eh

Convergence Acceleration:
 AO-DIIS                CNVDIIS         .... on
   Start iteration      DIISMaxIt       ....    12
   Startup error        DIISStart       ....  0.200000
   # of expansion vecs  DIISMaxEq       ....     5
   Bias factor          DIISBfac        ....   1.050
   Max. coefficient     DIISMaxC        ....  10.000
 MO-DIIS                CNVKDIIS        .... off
 Trust-Rad. Augm. Hess. CNVTRAH         .... auto
   Auto Start mean grad. ratio tolernc. ....  1.125000
   Auto Start start iteration           ....     1
   Auto Start num. interpolation iter.  ....    10
   Max. Number of Micro iterations      ....    24
   Max. Number of Macro iterations      .... Maxiter - #DIIS iter
   Number of Davidson start vectors     ....     2
   Converg. threshold    (grad. norm)   ....   1.000e-04
   Grad. Scal. Fac. for Micro threshold ....   0.100
   Minimum threshold for Micro iter.    ....   1.000e-02
   NR start threshold (gradient norm)   ....   1.000e-04
   Initial trust radius                 ....   0.400
   Minimum AH scaling param. (alpha)    ....   1.000
   Maximum AH scaling param. (alpha)    .... 1000.000
   Quad. conv. algorithm                .... NR
   White noise on init. David. guess    .... on
   Maximum white noise                  ....   0.010
   Pseudo random numbers                .... off
   Inactive MOs                         .... canonical
   Orbital update algorithm             .... Taylor
   Preconditioner                       .... Diag
   Full preconditioner red. dimension   ....   250
 SOSCF                  CNVSOSCF        .... on
   Start iteration      SOSCFMaxIt      ....   150
   Startup grad/error   SOSCFStart      ....  0.003300
   Hessian update       SOSCFHessUp     .... L-BFGS
 Level Shifting         CNVShift        .... on
   Level shift para.    LevelShift      ....    0.2500
   Turn off err/grad.   ShiftErr        ....    0.0010
 Zerner damping         CNVZerner       .... off
 Static damping         CNVDamp         .... on
   Fraction old density DampFac         ....    0.7000
   Max. Damping (<1)    DampMax         ....    0.9800
   Min. Damping (>=0)   DampMin         ....    0.0000
   Turn off err/grad.   DampErr         ....    0.1000

SCF Procedure:
 Maximum # iterations   MaxIter         ....   125
 SCF integral mode      SCFMode         .... Direct
   Integral package                     .... SHARK and LIBINT hybrid scheme
 Reset frequency        DirectResetFreq ....    20
 Integral Threshold     Thresh          ....  3.000e-11 Eh
 Primitive CutOff       TCut            ....  1.000e-12 Eh

Convergence Tolerance:
 Convergence Check Mode ConvCheckMode   .... Total+1el-Energy
 Convergence forced     ConvForced      .... 0
 Energy Change          TolE            ....  1.000e-07 Eh
 1-El. energy change                    ....  1.000e-04 Eh
 Orbital Gradient       TolG            ....  1.000e-04
 Orbital Rotation angle TolX            ....  1.000e-04
 DIIS Error             TolErr          ....  1.000e-07

---------------------
INITIAL GUESS: MOREAD
---------------------
Guess MOs are being read from file: sp_solv.ges
Input Geometry matches current geometry (good)
Atom 0: N(Shells)= 11 and 9 - projection required
Input basis set needs projection
NBasis(read)= 182
NBasis(calc)= 272
Basis set overlap was calculated
Using GuessMode=FMatrix for the initial guess
C*T matrix was formed
Effective Fockian was calculated
Effective Fockian was diagonalized
Initial density was built
                      ------------------
                      INITIAL GUESS DONE (   0.0 sec)
                      ------------------
             **** ENERGY FILE WAS UPDATED (sp_solv.en.tmp) ****
Finished Guess after   0.3 sec
Maximum memory used throughout the entire GUESS-calculation: 23.3 MB

-------------------------------------------------------------------------------------------
                                      ORCA LEAN-SCF
                              memory conserving SCF solver
-------------------------------------------------------------------------------------------

--------------------
CPCM SOLVATION MODEL
--------------------
CPCM parameters:
  Epsilon                                         ...      78.3550
  Refrac                                          ...       1.3328
  Rsolv                                           ...       1.3000
  Surface type                                    ... GAUSSIAN VDW
  Discretization scheme                           ... Constant charge density
    Threshold for H atoms                         ...       5.0000 (charges/Ang^2)
    Threshold for non-H atoms                     ...       5.0000 (charges/Ang^2)
  Epsilon function type                           ...         CPCM
Solvent:                                          ... WATER
SMD-CDS solvent descriptors:
  Soln                                            ...       1.3328
  Soln25                                          ...       1.3323
  Sola                                            ...       0.0000
  Solb                                            ...       0.0000
  Solg                                            ...       0.0000
  Solc                                            ...       0.0000
  Solh                                            ...       0.0000
Radii:
  Scheme                                          ... Element-dependent radii
  Radius for C  used is    3.4960 Bohr (=   1.8500 Ang.)
  Radius for O  used is    2.8724 Bohr (=   1.5200 Ang.)
  Radius for H  used is    2.2677 Bohr (=   1.2000 Ang.)
Calculating surface                               ...        done! (  0.0s)
Cavity surface points                             ...          990
Cavity Volume                                     ...     698.7472
Cavity Surface-area                               ...     445.7731
Calculating surface distance matrix               ...        done! (  0.0s)
Performing Cholesky decomposition & store         ...        done! (  0.0s)
Overall time for CPCM initialization              ...                 0.0s

----------------------------------------D-I-I-S--------------------------------------------
Iteration    Energy (Eh)           Delta-E    RMSDP     MaxDP     DIISErr   Damp  Time(sec)
-------------------------------------------------------------------------------------------
               ***  Starting incremental Fock matrix formation  ***
    1    -381.6944183281709684     0.00e+00  1.53e-03  3.48e-02  5.15e-02  0.700  12.3
    2    -381.7002458796830524    -5.83e-03  1.36e-03  3.54e-02  3.72e-02  0.700   6.2
                               ***Turning on AO-DIIS***
    3    -381.7047602421974943    -4.51e-03  1.16e-03  3.32e-02  2.66e-02  0.700   6.2
    4    -381.7081639843571566    -3.40e-03  2.96e-03  8.75e-02  1.87e-02  0.000   6.1
                              *** Initializing SOSCF ***
---------------------------------------S-O-S-C-F--------------------------------------
Iteration    Energy (Eh)           Delta-E    RMSDP     MaxDP     MaxGrad    Time(sec)
--------------------------------------------------------------------------------------
    5    -381.7172021257626966    -9.04e-03  1.70e-04  5.96e-03  2.40e-03     6.5
               *** Restarting incremental Fock matrix formation ***
    6    -381.7173023708038500    -1.00e-04  6.68e-05  2.24e-03  1.56e-03    12.5
    7    -381.7173347041755278    -3.23e-05  4.77e-05  1.23e-03  6.79e-04    10.1
    8    -381.7173395848213886    -4.88e-06  1.65e-05  5.60e-04  2.47e-04     9.9
    9    -381.7173403213832898    -7.37e-07  4.94e-06  1.50e-04  2.27e-04     9.1
   10    -381.7173407071801421    -3.86e-07  1.99e-06  7.04e-05  1.20e-05     9.0
                  *** Gradient check signals convergence ***

               *****************************************************
               *                     SUCCESS                       *
               *           SCF CONVERGED AFTER  10 CYCLES          *
               *****************************************************


------------------
NL GRID GENERATION
------------------

General Integration Accuracy     IntAcc      ... 4.004
Radial Grid Type                 RadialGrid  ... OptM3 with GC (2021)
Angular Grid (max. ang.)         AngularGrid ... 2 (Lebedev-110)
Angular grid pruning method      GridPruning ... 4 (adaptive)
Weight generation scheme         WeightScheme... mBecke (2022)
Basis function cutoff            BFCut       ... 1.0000e-10
Integration weight cutoff        WCut        ... 1.0000e-14
Partially contracted basis set               ... off
Rotationally invariant grid construction     ... off
Angular grids for H and He will be reduced by one unit

Total number of grid points                  ...    20260
Total number of batches                      ...      320
Average number of points per batch           ...       63
Average number of grid points per atom       ...     1688
Final grid set up in    0.1 sec

-------------------------------------------------------------------------------
                    post-SCF DFT-NL dispersion correction                      
-------------------------------------------------------------------------------

SCF Energy:     -381.717340707 
NL    Energy:      0.217804368 
SC+NL Energy:   -381.499536339 
NL done in  :              1.6 sec
-------------------------------------------------------------------------------
Recomputing exchange energy using gridx3       ... done (   21.457 sec)
Old exchange energy                            :    -15.511063403 Eh
New exchange energy                            :    -15.511063140 Eh
Exchange energy change after final integration :      0.000000263 Eh
Total energy after final integration           :   -381.499536076 Eh

SMD CDS free energy correction energy :                 4.44224     Kcal/mol
Total Energy after SMD CDS correction =              -381.492456919 Eh
             **** ENERGY FILE WAS UPDATED (sp_solv.en.tmp) ****

----------------
TOTAL SCF ENERGY
----------------

Total Energy       :       -381.49245691929923 Eh          -10380.93751 eV

Components:
Nuclear Repulsion  :        323.11560032282875 Eh            8792.42248 eV
Electronic Energy  :       -704.80972757714301 Eh          -19178.84772 eV
One Electron Energy:      -1157.36769212939112 Eh          -31493.57601 eV
Two Electron Energy:        452.55796455224811 Eh           12314.72828 eV
CPCM Dielectric    :         -0.02321345286589 Eh              -0.63167 eV
SMD CDS (Gcds)     :          0.00707915711893 Eh               0.19263 eV

Virial components:
Potential Energy   :       -761.60177863439776 Eh          -20724.23800 eV
Kinetic Energy     :        380.10932171509847 Eh           10343.30049 eV
Virial Ratio       :          2.00363878264800

DFT components:
N(Alpha)           :       28.000009129869 electrons
N(Beta)            :       28.000009129869 electrons
N(Total)           :       56.000018259738 electrons
E(X)               :      -33.445185944550 Eh       
E(C)               :       -2.367854843561 Eh       
NL Energy, E(C,NL) :        0.217804367765 Eh       
E(XC)              :      -35.595236420346 Eh       

CPCM Solvation Model Properties:
Surface-charge          :         -0.04212584186171
Corrected charge        :         -0.00000000000000
Outlying charge corr.   :          0.00015069029391 Eh               0.00410 eV
Free-energy (cav+disp)  :          0.00707915711893 Eh               0.19263 eV

---------------
SCF CONVERGENCE
---------------

  Last Energy change         ...    3.8580e-07  Tolerance :   1.0000e-07
  Last MAX-Density change    ...    7.0405e-05  Tolerance :   1.0000e-05
  Last RMS-Density change    ...    1.9908e-06  Tolerance :   1.0000e-06
  Last DIIS Error            ...    2.4015e-03  Tolerance :   1.0000e-07
  Last Orbital Gradient      ...    1.1954e-05  Tolerance :   1.0000e-04
  Last Orbital Rotation      ...    2.7497e-05  Tolerance :   1.0000e-04


----------------
ORBITAL ENERGIES
----------------

  NO   OCC          E(Eh)            E(eV) 
   0   2.0000     -21.690622      -590.2318 
   1   2.0000     -21.690592      -590.2310 
   2   2.0000     -12.164643      -331.0168 
   3   2.0000     -12.164338      -331.0085 
   4   2.0000     -12.083637      -328.8125 
   5   2.0000     -12.083118      -328.7983 
   6   2.0000     -12.081200      -328.7462 
   7   2.0000     -12.080793      -328.7351 
   8   2.0000      -1.730977       -47.1023 
   9   2.0000      -1.730285       -47.0834 
  10   2.0000      -1.391705       -37.8702 
  11   2.0000      -1.319458       -35.9043 
  12   2.0000      -1.250451       -34.0265 
  13   2.0000      -1.147033       -31.2124 
  14   2.0000      -1.139096       -30.9964 
  15   2.0000      -1.068756       -29.0823 
  16   2.0000      -1.045447       -28.4481 
  17   2.0000      -1.033729       -28.1292 
  18   2.0000      -0.935498       -25.4562 
  19   2.0000      -0.934047       -25.4167 
  20   2.0000      -0.925229       -25.1768 
  21   2.0000      -0.920127       -25.0379 
  22   2.0000      -0.915518       -24.9125 
  23   2.0000      -0.912005       -24.8169 
  24   2.0000      -0.869683       -23.6653 
  25   2.0000      -0.793755       -21.5992 
  26   2.0000      -0.737458       -20.0672 
  27   2.0000      -0.690268       -18.7831 
  28   0.0000      -0.439424       -11.9573 
  29   0.0000      -0.274948        -7.4817 
  30   0.0000      -0.235520        -6.4088 
  31   0.0000      -0.103274        -2.8102 
  32   0.0000      -0.094663        -2.5759 
  33   0.0000      -0.044133        -1.2009 
  34   0.0000      -0.025194        -0.6856 
  35   0.0000      -0.023871        -0.6496 
  36   0.0000       0.005030         0.1369 
  37   0.0000       0.017365         0.4725 
  38   0.0000       0.053512         1.4561 
*Only the first 10 virtual orbitals were printed.

                    ********************************
                    * MULLIKEN POPULATION ANALYSIS *
                    ********************************

-----------------------
MULLIKEN ATOMIC CHARGES
-----------------------
   0 C :   -0.177562
   1 C :   -0.177375
   2 C :    0.397639
   3 O :   -0.406716
   4 C :   -0.177500
   5 C :   -0.177430
   6 C :    0.397674
   7 O :   -0.406718
   8 H :    0.181979
   9 H :    0.182022
  10 H :    0.181989
  11 H :    0.181997
Sum of atomic charges:   -0.0000000

--------------------------------
MULLIKEN REDUCED ORBITAL CHARGES
--------------------------------
  0 C s       :     3.237986  s :     3.237986
      pz      :     0.916480  p :     2.850608
      px      :     0.962635
      py      :     0.971494
      dz2     :     0.003158  d :     0.081969
      dxz     :     0.016938
      dyz     :     0.005051
      dx2y2   :     0.021065
      dxy     :     0.035757
      f0      :     0.001506  f :     0.006998
      f+1     :     0.000586
      f-1     :     0.000719
      f+2     :     0.000532
      f-2     :     0.000293
      f+3     :     0.001154
      f-3     :     0.002209

  1 C s       :     3.237671  s :     3.237671
      pz      :     0.916479  p :     2.850734
      px      :     0.962660
      py      :     0.971594
      dz2     :     0.003158  d :     0.081971
      dxz     :     0.016938
      dyz     :     0.005051
      dx2y2   :     0.021071
      dxy     :     0.035752
      f0      :     0.001506  f :     0.006998
      f+1     :     0.000586
      f-1     :     0.000719
      f+2     :     0.000532
      f-2     :     0.000293
      f+3     :     0.001154
      f-3     :     0.002209

  2 C s       :     3.023835  s :     3.023835
      pz      :     0.684935  p :     2.366358
      px      :     0.797310
      py      :     0.884113
      dz2     :     0.006920  d :     0.194566
      dxz     :     0.048847
      dyz     :     0.017887
      dx2y2   :     0.036796
      dxy     :     0.084117
      f0      :     0.002343  f :     0.017602
      f+1     :     0.001181
      f-1     :     0.000769
      f+2     :     0.001926
      f-2     :     0.001015
      f+3     :     0.002766
      f-3     :     0.007602

  3 O s       :     3.806411  s :     3.806411
      pz      :     1.342036  p :     4.568279
      px      :     1.361716
      py      :     1.864527
      dz2     :     0.002508  d :     0.030248
      dxz     :     0.010848
      dyz     :     0.000048
      dx2y2   :     0.008893
      dxy     :     0.007952
      f0      :     0.000152  f :     0.001777
      f+1     :     0.000152
      f-1     :     0.000020
      f+2     :     0.000450
      f-2     :     0.000006
      f+3     :     0.000477
      f-3     :     0.000522

  4 C s       :     3.237900  s :     3.237900
      pz      :     0.916480  p :     2.850638
      px      :     0.962636
      py      :     0.971523
      dz2     :     0.003158  d :     0.081964
      dxz     :     0.016938
      dyz     :     0.005051
      dx2y2   :     0.021059
      dxy     :     0.035758
      f0      :     0.001506  f :     0.006998
      f+1     :     0.000586
      f-1     :     0.000719
      f+2     :     0.000532
      f-2     :     0.000293
      f+3     :     0.001154
      f-3     :     0.002209

  5 C s       :     3.237810  s :     3.237810
      pz      :     0.916480  p :     2.850650
      px      :     0.962627
      py      :     0.971543
      dz2     :     0.003159  d :     0.081972
      dxz     :     0.016938
      dyz     :     0.005051
      dx2y2   :     0.021079
      dxy     :     0.035746
      f0      :     0.001506  f :     0.006998
      f+1     :     0.000585
      f-1     :     0.000719
      f+2     :     0.000532
      f-2     :     0.000293
      f+3     :     0.001154
      f-3     :     0.002209

  6 C s       :     3.023784  s :     3.023784
      pz      :     0.684934  p :     2.366374
      px      :     0.797290
      py      :     0.884151
      dz2     :     0.006920  d :     0.194565
      dxz     :     0.048847
      dyz     :     0.017886
      dx2y2   :     0.036807
      dxy     :     0.084104
      f0      :     0.002343  f :     0.017602
      f+1     :     0.001181
      f-1     :     0.000769
      f+2     :     0.001926
      f-2     :     0.001015
      f+3     :     0.002766
      f-3     :     0.007602

  7 O s       :     3.806402  s :     3.806402
      pz      :     1.342036  p :     4.568290
      px      :     1.361726
      py      :     1.864528
      dz2     :     0.002508  d :     0.030248
      dxz     :     0.010848
      dyz     :     0.000048
      dx2y2   :     0.008893
      dxy     :     0.007952
      f0      :     0.000152  f :     0.001777
      f+1     :     0.000152
      f-1     :     0.000020
      f+2     :     0.000450
      f-2     :     0.000006
      f+3     :     0.000477
      f-3     :     0.000522

  8 H s       :     0.795914  s :     0.795914
      pz      :     0.003955  p :     0.022107
      px      :     0.006364
      py      :     0.011788

  9 H s       :     0.795872  s :     0.795872
      pz      :     0.003955  p :     0.022107
      px      :     0.006365
      py      :     0.011787

 10 H s       :     0.795904  s :     0.795904
      pz      :     0.003955  p :     0.022107
      px      :     0.006364
      py      :     0.011788

 11 H s       :     0.795896  s :     0.795896
      pz      :     0.003955  p :     0.022107
      px      :     0.006365
      py      :     0.011787


------------------------
MULLIKEN OVERLAP CHARGES
------------------------
B(  0-C ,  1-C ) :   0.4461 B(  0-C ,  2-C ) :   0.1521 B(  0-C ,  4-C ) :  -0.0580 
B(  0-C ,  5-C ) :  -0.0702 B(  0-C ,  6-C ) :   0.4782 B(  0-C ,  7-O ) :  -0.1995 
B(  0-C ,  8-H ) :   0.8134 B(  1-C ,  2-C ) :   0.4782 B(  1-C ,  3-O ) :  -0.1994 
B(  1-C ,  4-C ) :  -0.0701 B(  1-C ,  5-C ) :  -0.0582 B(  1-C ,  6-C ) :   0.1522 
B(  1-C ,  9-H ) :   0.8132 B(  2-C ,  3-O ) :   1.2416 B(  2-C ,  4-C ) :   0.4783 
B(  2-C ,  5-C ) :   0.1521 B(  2-C ,  6-C ) :  -0.1435 B(  2-C ,  9-H ) :  -0.0902 
B(  2-C , 10-H ) :  -0.0903 B(  3-O ,  4-C ) :  -0.1994 B(  4-C ,  5-C ) :   0.4466 
B(  4-C ,  6-C ) :   0.1519 B(  4-C , 10-H ) :   0.8134 B(  5-C ,  6-C ) :   0.4783 
B(  5-C ,  7-O ) :  -0.1995 B(  5-C , 11-H ) :   0.8133 B(  6-C ,  7-O ) :   1.2417 
B(  6-C ,  8-H ) :  -0.0903 B(  6-C , 11-H ) :  -0.0903 


                     *******************************
                     * LOEWDIN POPULATION ANALYSIS *
                     *******************************

----------------------
LOEWDIN ATOMIC CHARGES
----------------------
   0 C :   -0.066253
   1 C :   -0.066252
   2 C :   -0.269703
   3 O :    0.070745
   4 C :   -0.066252
   5 C :   -0.066252
   6 C :   -0.269702
   7 O :    0.070743
   8 H :    0.165732
   9 H :    0.165732
  10 H :    0.165732
  11 H :    0.165732

-------------------------------
LOEWDIN REDUCED ORBITAL CHARGES
-------------------------------
  0 C s       :     2.781361  s :     2.781361
      pz      :     0.838160  p :     2.899738
      px      :     1.076976
      py      :     0.984602
      dz2     :     0.026371  d :     0.345902
      dxz     :     0.047251
      dyz     :     0.016766
      dx2y2   :     0.097803
      dxy     :     0.157712
      f0      :     0.003162  f :     0.039251
      f+1     :     0.004281
      f-1     :     0.003279
      f+2     :     0.004029
      f-2     :     0.001901
      f+3     :     0.008228
      f-3     :     0.014372

  1 C s       :     2.781360  s :     2.781360
      pz      :     0.838160  p :     2.899739
      px      :     1.076977
      py      :     0.984602
      dz2     :     0.026371  d :     0.345902
      dxz     :     0.047249
      dyz     :     0.016768
      dx2y2   :     0.097800
      dxy     :     0.157714
      f0      :     0.003162  f :     0.039251
      f+1     :     0.004281
      f-1     :     0.003279
      f+2     :     0.004029
      f-2     :     0.001901
      f+3     :     0.008227
      f-3     :     0.014372

  2 C s       :     2.748771  s :     2.748771
      pz      :     0.665327  p :     2.658857
      px      :     0.959395
      py      :     1.034135
      dz2     :     0.048137  d :     0.752952
      dxz     :     0.125949
      dyz     :     0.062218
      dx2y2   :     0.214698
      dxy     :     0.301950
      f0      :     0.007171  f :     0.109124
      f+1     :     0.009452
      f-1     :     0.004058
      f+2     :     0.014693
      f-2     :     0.006105
      f+3     :     0.016801
      f-3     :     0.050843

  3 O s       :     3.409112  s :     3.409112
      pz      :     1.260439  p :     4.450037
      px      :     1.496285
      py      :     1.693313
      dz2     :     0.007059  d :     0.064518
      dxz     :     0.011676
      dyz     :     0.000048
      dx2y2   :     0.022816
      dxy     :     0.022920
      f0      :     0.000321  f :     0.005588
      f+1     :     0.000802
      f-1     :     0.000145
      f+2     :     0.000640
      f-2     :     0.000014
      f+3     :     0.001622
      f-3     :     0.002044

  4 C s       :     2.781361  s :     2.781361
      pz      :     0.838160  p :     2.899739
      px      :     1.076976
      py      :     0.984602
      dz2     :     0.026371  d :     0.345901
      dxz     :     0.047251
      dyz     :     0.016766
      dx2y2   :     0.097803
      dxy     :     0.157711
      f0      :     0.003162  f :     0.039251
      f+1     :     0.004281
      f-1     :     0.003279
      f+2     :     0.004029
      f-2     :     0.001901
      f+3     :     0.008228
      f-3     :     0.014372

  5 C s       :     2.781361  s :     2.781361
      pz      :     0.838160  p :     2.899739
      px      :     1.076976
      py      :     0.984602
      dz2     :     0.026371  d :     0.345902
      dxz     :     0.047249
      dyz     :     0.016768
      dx2y2   :     0.097800
      dxy     :     0.157714
      f0      :     0.003162  f :     0.039251
      f+1     :     0.004281
      f-1     :     0.003279
      f+2     :     0.004029
      f-2     :     0.001901
      f+3     :     0.008227
      f-3     :     0.014372

  6 C s       :     2.748771  s :     2.748771
      pz      :     0.665327  p :     2.658857
      px      :     0.959394
      py      :     1.034136
      dz2     :     0.048137  d :     0.752951
      dxz     :     0.125949
      dyz     :     0.062218
      dx2y2   :     0.214698
      dxy     :     0.301949
      f0      :     0.007171  f :     0.109124
      f+1     :     0.009452
      f-1     :     0.004058
      f+2     :     0.014693
      f-2     :     0.006105
      f+3     :     0.016801
      f-3     :     0.050843

  7 O s       :     3.409113  s :     3.409113
      pz      :     1.260440  p :     4.450038
      px      :     1.496284
      py      :     1.693314
      dz2     :     0.007059  d :     0.064518
      dxz     :     0.011676
      dyz     :     0.000048
      dx2y2   :     0.022816
      dxy     :     0.022919
      f0      :     0.000321  f :     0.005588
      f+1     :     0.000802
      f-1     :     0.000145
      f+2     :     0.000640
      f-2     :     0.000014
      f+3     :     0.001622
      f-3     :     0.002044

  8 H s       :     0.773619  s :     0.773619
      pz      :     0.011431  p :     0.060649
      px      :     0.017596
      py      :     0.031622

  9 H s       :     0.773619  s :     0.773619
      pz      :     0.011431  p :     0.060649
      px      :     0.017598
      py      :     0.031620

 10 H s       :     0.773619  s :     0.773619
      pz      :     0.011431  p :     0.060649
      px      :     0.017596
      py      :     0.031622

 11 H s       :     0.773619  s :     0.773619
      pz      :     0.011431  p :     0.060649
      px      :     0.017598
      py      :     0.031620


---------------------------------
LOEWDIN BOND ORDERS (THRESH 0.050000)
---------------------------------
B(  0-C ,  1-C ) :   1.9296 B(  0-C ,  2-C ) :   0.2379 B(  0-C ,  5-C ) :   0.1414 
B(  0-C ,  6-C ) :   1.1769 B(  0-C ,  7-O ) :   0.1825 B(  0-C ,  8-H ) :   0.8182 
B(  0-C ,  9-H ) :   0.1082 B(  1-C ,  2-C ) :   1.1769 B(  1-C ,  3-O ) :   0.1825 
B(  1-C ,  4-C ) :   0.1414 B(  1-C ,  6-C ) :   0.2379 B(  1-C ,  8-H ) :   0.1082 
B(  1-C ,  9-H ) :   0.8182 B(  2-C ,  3-O ) :   2.5275 B(  2-C ,  4-C ) :   1.1769 
B(  2-C ,  5-C ) :   0.2379 B(  2-C ,  6-C ) :   0.0505 B(  2-C ,  9-H ) :   0.0822 
B(  2-C , 10-H ) :   0.0822 B(  3-O ,  4-C ) :   0.1825 B(  4-C ,  5-C ) :   1.9296 
B(  4-C ,  6-C ) :   0.2379 B(  4-C , 10-H ) :   0.8182 B(  4-C , 11-H ) :   0.1082 
B(  5-C ,  6-C ) :   1.1769 B(  5-C ,  7-O ) :   0.1825 B(  5-C , 10-H ) :   0.1082 
B(  5-C , 11-H ) :   0.8182 B(  6-C ,  7-O ) :   2.5275 B(  6-C ,  8-H ) :   0.0822 
B(  6-C , 11-H ) :   0.0822 

------------------------------------------
LOEWDIN REDUCED ORBITAL POPULATIONS PER MO
-------------------------------------------
THRESHOLD FOR PRINTING IS 0.1%%
                      0         1         2         3         4         5   
                 -21.69062 -21.69059 -12.16464 -12.16434 -12.08364 -12.08312
                   2.00000   2.00000   2.00000   2.00000   2.00000   2.00000
                  --------  --------  --------  --------  --------  --------
 0 C  s               0.0       0.0       0.0       0.0      24.7      24.7
 1 C  s               0.0       0.0       0.0       0.0      24.7      24.7
 2 C  s               0.0       0.0      49.5      49.5       0.0       0.0
 3 O  s              49.4      50.3       0.0       0.0       0.0       0.0
 4 C  s               0.0       0.0       0.0       0.0      24.7      24.7
 5 C  s               0.0       0.0       0.0       0.0      24.7      24.7
 6 C  s               0.0       0.0      49.6      49.5       0.0       0.0
 7 O  s              50.3      49.4       0.0       0.0       0.0       0.0

                      6         7         8         9        10        11   
                 -12.08120 -12.08079  -1.73098  -1.73028  -1.39170  -1.31946
                   2.00000   2.00000   2.00000   2.00000   2.00000   2.00000
                  --------  --------  --------  --------  --------  --------
 0 C  s              24.7      24.8       0.4       0.2      11.5      12.9
 0 C  px              0.0       0.0       0.3       0.8       2.1       3.2
 0 C  py              0.0       0.0       0.5       0.3       1.5       0.3
 0 C  dz2             0.0       0.0       0.0       0.1       0.5       0.2
 0 C  dx2y2           0.1       0.1       0.0       0.0       0.0       0.8
 0 C  dxy             0.0       0.0       0.2       0.3       0.0       0.0
 0 C  f+3             0.0       0.0       0.0       0.0       0.1       0.1
 1 C  s              24.7      24.8       0.4       0.2      11.5      12.9
 1 C  px              0.0       0.0       0.3       0.8       2.1       3.2
 1 C  py              0.0       0.0       0.5       0.3       1.5       0.3
 1 C  dz2             0.0       0.0       0.0       0.1       0.5       0.2
 1 C  dx2y2           0.1       0.1       0.0       0.0       0.0       0.8
 1 C  dxy             0.0       0.0       0.2       0.3       0.0       0.0
 1 C  f+3             0.0       0.0       0.0       0.0       0.1       0.1
 2 C  s               0.0       0.0       7.0       6.3       5.7       0.0
 2 C  px              0.0       0.0       7.8       8.4       7.4       0.0
 2 C  py              0.0       0.0       0.0       0.0       0.0       8.3
 2 C  dz2             0.0       0.1       0.6       0.6       0.3       0.0
 2 C  dx2y2           0.0       0.0       1.9       1.9       0.2       0.0
 2 C  dxy             0.1       0.0       0.0       0.0       0.0       2.1
 2 C  f+1             0.0       0.0       0.1       0.2       0.1       0.0
 2 C  f+3             0.0       0.0       0.3       0.3       0.0       0.0
 3 O  s               0.0       0.0      26.7      26.4       1.1       0.0
 3 O  px              0.0       0.0       2.3       2.2       0.9       0.0
 3 O  py              0.0       0.0       0.0       0.0       0.0       0.3
 3 O  dx2y2           0.0       0.0       0.2       0.2       0.0       0.0
 4 C  s              24.8      24.8       0.4       0.2      11.5      12.9
 4 C  px              0.0       0.0       0.3       0.8       2.1       3.2
 4 C  py              0.0       0.0       0.5       0.3       1.5       0.3
 4 C  dz2             0.0       0.0       0.0       0.1       0.5       0.2
 4 C  dx2y2           0.1       0.1       0.0       0.0       0.0       0.8
 4 C  dxy             0.0       0.0       0.2       0.3       0.0       0.0
 4 C  f+3             0.0       0.0       0.0       0.0       0.1       0.1
 5 C  s              24.8      24.8       0.4       0.2      11.5      12.9
 5 C  px              0.0       0.0       0.3       0.8       2.1       3.2
 5 C  py              0.0       0.0       0.5       0.3       1.5       0.3
 5 C  dz2             0.0       0.0       0.0       0.1       0.5       0.2
 5 C  dx2y2           0.1       0.1       0.0       0.0       0.0       0.8
 5 C  dxy             0.0       0.0       0.2       0.3       0.0       0.0
 5 C  f+3             0.0       0.0       0.0       0.0       0.1       0.1
 6 C  s               0.0       0.0       6.9       6.4       5.7       0.0
 6 C  px              0.0       0.0       7.7       8.5       7.4       0.0
 6 C  py              0.0       0.0       0.0       0.0       0.0       8.3
 6 C  dz2             0.0       0.1       0.6       0.6       0.3       0.0
 6 C  dx2y2           0.0       0.0       1.9       1.9       0.2       0.0
 6 C  dxy             0.1       0.0       0.0       0.0       0.0       2.1
 6 C  f+1             0.0       0.0       0.1       0.2       0.1       0.0
 6 C  f+3             0.0       0.0       0.3       0.3       0.0       0.0
 7 O  s               0.0       0.0      26.6      26.5       1.1       0.0
 7 O  px              0.0       0.0       2.3       2.2       0.9       0.0
 7 O  py              0.0       0.0       0.0       0.0       0.0       0.3
 7 O  dx2y2           0.0       0.0       0.2       0.2       0.0       0.0
 8 H  s               0.0       0.0       0.1       0.0       1.3       1.8
 8 H  px              0.0       0.0       0.0       0.0       0.0       0.1
 8 H  py              0.0       0.0       0.0       0.0       0.1       0.1
 9 H  s               0.0       0.0       0.1       0.0       1.3       1.8
 9 H  px              0.0       0.0       0.0       0.0       0.0       0.1
 9 H  py              0.0       0.0       0.0       0.0       0.1       0.1
10 H  s               0.0       0.0       0.1       0.0       1.3       1.8
10 H  px              0.0       0.0       0.0       0.0       0.0       0.1
10 H  py              0.0       0.0       0.0       0.0       0.1       0.1
11 H  s               0.0       0.0       0.1       0.0       1.3       1.8
11 H  px              0.0       0.0       0.0       0.0       0.0       0.1
11 H  py              0.0       0.0       0.0       0.0       0.1       0.1

                     12        13        14        15        16        17   
                  -1.25045  -1.14703  -1.13910  -1.06876  -1.04545  -1.03373
                   2.00000   2.00000   2.00000   2.00000   2.00000   2.00000
                  --------  --------  --------  --------  --------  --------
 0 C  s               3.4       1.3       5.0       1.2       0.5       0.0
 0 C  px              3.7       4.4       5.6       1.1       0.9       7.9
 0 C  py              1.6       3.0       0.2       0.1       8.6       1.9
 0 C  dx2y2           1.1       0.3       0.1       0.6       0.5       0.1
 0 C  dxy             0.6       0.1       0.1       0.0       0.2       0.0
 1 C  s               3.4       1.3       5.0       1.2       0.5       0.0
 1 C  px              3.7       4.4       5.6       1.1       0.9       7.9
 1 C  py              1.6       3.0       0.2       0.1       8.6       1.9
 1 C  dx2y2           1.1       0.3       0.1       0.6       0.5       0.1
 1 C  dxy             0.6       0.1       0.1       0.0       0.2       0.0
 2 C  s              10.3       5.3       0.0       0.7       0.9       0.0
 2 C  px              4.2       0.4       0.0       8.1       7.8       0.0
 2 C  py              0.0       0.0      17.7       0.0       0.0      13.4
 2 C  dz2             0.0       0.2       0.0       0.3       0.0       0.0
 2 C  dx2y2           1.9       0.7       0.0       0.2       0.3       0.0
 2 C  dxy             0.0       0.0       0.3       0.0       0.0       0.8
 3 O  s               3.9       5.5       0.0       4.8       2.1       0.0
 3 O  px              6.5      18.0       0.0      28.2      13.7       0.0
 3 O  py              0.0       0.0       4.0       0.0       0.0      15.0
 3 O  dx2y2           0.1       0.2       0.0       0.2       0.1       0.0
 3 O  dxy             0.0       0.0       0.3       0.0       0.0       0.2
 4 C  s               3.4       1.3       5.0       1.2       0.5       0.0
 4 C  px              3.7       4.4       5.6       1.1       0.9       7.9
 4 C  py              1.6       3.0       0.2       0.1       8.6       1.9
 4 C  dx2y2           1.1       0.3       0.1       0.6       0.5       0.1
 4 C  dxy             0.6       0.1       0.1       0.0       0.2       0.0
 5 C  s               3.4       1.3       5.0       1.2       0.5       0.0
 5 C  px              3.7       4.4       5.6       1.1       0.9       7.9
 5 C  py              1.6       3.0       0.2       0.1       8.6       1.9
 5 C  dx2y2           1.1       0.3       0.1       0.6       0.5       0.1
 5 C  dxy             0.6       0.1       0.1       0.0       0.2       0.0
 6 C  s              10.3       5.3       0.0       0.7       0.9       0.0
 6 C  px              4.2       0.4       0.0       8.1       7.8       0.0
 6 C  py              0.0       0.0      17.7       0.0       0.0      13.4
 6 C  dz2             0.0       0.2       0.0       0.3       0.0       0.0
 6 C  dx2y2           1.9       0.7       0.0       0.2       0.3       0.0
 6 C  dxy             0.0       0.0       0.3       0.0       0.0       0.8
 7 O  s               3.9       5.5       0.0       4.8       2.1       0.0
 7 O  px              6.5      18.0       0.0      28.2      13.7       0.0
 7 O  py              0.0       0.0       4.0       0.0       0.0      15.0
 7 O  dx2y2           0.1       0.2       0.0       0.2       0.1       0.0
 7 O  dxy             0.0       0.0       0.3       0.0       0.0       0.2
 8 H  s               0.7       0.5       2.4       0.6       1.7       0.0
 8 H  px              0.0       0.1       0.0       0.0       0.2       0.1
 8 H  py              0.1       0.0       0.3       0.1       0.0       0.0
 9 H  s               0.7       0.5       2.4       0.6       1.7       0.0
 9 H  px              0.0       0.1       0.0       0.0       0.2       0.1
 9 H  py              0.1       0.0       0.3       0.1       0.0       0.0
10 H  s               0.7       0.5       2.4       0.6       1.7       0.0
10 H  px              0.0       0.1       0.0       0.0       0.2       0.1
10 H  py              0.1       0.0       0.3       0.1       0.0       0.0
11 H  s               0.7       0.5       2.4       0.6       1.7       0.0
11 H  px              0.0       0.1       0.0       0.0       0.2       0.1
11 H  py              0.1       0.0       0.3       0.1       0.0       0.0

                     18        19        20        21        22        23   
                  -0.93550  -0.93405  -0.92523  -0.92013  -0.91552  -0.91201
                   2.00000   2.00000   2.00000   2.00000   2.00000   2.00000
                  --------  --------  --------  --------  --------  --------
 0 C  s               0.0       1.2       0.6       0.0       1.2       0.3
 0 C  pz              1.5       0.0       0.0       1.0       0.0       0.0
 0 C  px              0.0       0.7      12.0       0.0       1.6       6.0
 0 C  py              0.0       1.1       2.1       0.0       7.8       8.7
 0 C  dxz             0.1       0.0       0.0       0.5       0.0       0.0
 0 C  dyz             0.4       0.0       0.0       0.4       0.0       0.0
 0 C  dx2y2           0.0       0.4       0.3       0.0       0.0       0.3
 0 C  dxy             0.0       0.7       0.0       0.0       2.8       0.0
 0 C  f-3             0.0       0.0       0.0       0.0       0.2       0.1
 1 C  s               0.0       1.2       0.6       0.0       1.2       0.3
 1 C  pz              1.5       0.0       0.0       1.0       0.0       0.0
 1 C  px              0.0       0.7      12.0       0.0       1.6       6.0
 1 C  py              0.0       1.1       2.1       0.0       7.8       8.7
 1 C  dxz             0.1       0.0       0.0       0.5       0.0       0.0
 1 C  dyz             0.4       0.0       0.0       0.4       0.0       0.0
 1 C  dx2y2           0.0       0.4       0.3       0.0       0.0       0.3
 1 C  dxy             0.0       0.7       0.0       0.0       2.8       0.0
 1 C  f-3             0.0       0.0       0.0       0.0       0.2       0.1
 2 C  s               0.0       0.0       0.6       0.0       1.7       0.0
 2 C  pz             14.9       0.0       0.0      15.9       0.0       0.0
 2 C  px              0.0       0.0       1.1       0.0       2.8       0.0
 2 C  py              0.0       0.7       0.0       0.0       0.0       0.8
 2 C  dz2             0.0       0.0       0.0       0.0       0.2       0.0
 2 C  dxz             1.5       0.0       0.0       1.5       0.0       0.0
 2 C  dx2y2           0.0       0.0       2.8       0.0       0.7       0.0
 2 C  dxy             0.0       3.4       0.0       0.0       0.0       0.4
 2 C  f0              0.2       0.0       0.0       0.2       0.0       0.0
 2 C  f+2             0.3       0.0       0.0       0.2       0.0       0.0
 2 C  f-3             0.0       1.0       0.0       0.0       0.0       0.7
 3 O  s               0.0       0.0       0.2       0.0       0.1       0.0
 3 O  pz             28.8       0.0       0.0      28.0       0.0       0.0
 3 O  px              0.0       0.0       2.5       0.0       0.5       0.0
 3 O  py              0.0      31.4       0.0       0.0       0.0       1.4
 3 O  dxz             0.2       0.0       0.0       0.3       0.0       0.0
 4 C  s               0.0       1.2       0.6       0.0       1.2       0.3
 4 C  pz              1.5       0.0       0.0       1.0       0.0       0.0
 4 C  px              0.0       0.7      12.0       0.0       1.6       6.0
 4 C  py              0.0       1.1       2.1       0.0       7.8       8.7
 4 C  dxz             0.1       0.0       0.0       0.5       0.0       0.0
 4 C  dyz             0.4       0.0       0.0       0.4       0.0       0.0
 4 C  dx2y2           0.0       0.4       0.3       0.0       0.0       0.3
 4 C  dxy             0.0       0.7       0.0       0.0       2.8       0.0
 4 C  f-3             0.0       0.0       0.0       0.0       0.2       0.1
 5 C  s               0.0       1.2       0.6       0.0       1.2       0.3
 5 C  pz              1.5       0.0       0.0       1.0       0.0       0.0
 5 C  px              0.0       0.7      12.0       0.0       1.6       6.0
 5 C  py              0.0       1.1       2.1       0.0       7.8       8.7
 5 C  dxz             0.1       0.0       0.0       0.5       0.0       0.0
 5 C  dyz             0.4       0.0       0.0       0.4       0.0       0.0
 5 C  dx2y2           0.0       0.4       0.3       0.0       0.0       0.3
 5 C  dxy             0.0       0.7       0.0       0.0       2.8       0.0
 5 C  f-3             0.0       0.0       0.0       0.0       0.2       0.1
 6 C  s               0.0       0.0       0.6       0.0       1.7       0.0
 6 C  pz             14.9       0.0       0.0      15.9       0.0       0.0
 6 C  px              0.0       0.0       1.1       0.0       2.8       0.0
 6 C  py              0.0       0.7       0.0       0.0       0.0       0.8
 6 C  dz2             0.0       0.0       0.0       0.0       0.2       0.0
 6 C  dxz             1.5       0.0       0.0       1.5       0.0       0.0
 6 C  dx2y2           0.0       0.0       2.8       0.0       0.7       0.0
 6 C  dxy             0.0       3.4       0.0       0.0       0.0       0.4
 6 C  f0              0.2       0.0       0.0       0.2       0.0       0.0
 6 C  f+2             0.3       0.0       0.0       0.2       0.0       0.0
 6 C  f-3             0.0       1.0       0.0       0.0       0.0       0.7
 7 O  s               0.0       0.0       0.2       0.0       0.1       0.0
 7 O  pz             28.8       0.0       0.0      28.0       0.0       0.0
 7 O  px              0.0       0.0       2.5       0.0       0.5       0.0
 7 O  py              0.0      31.4       0.0       0.0       0.0       1.4
 7 O  dxz             0.2       0.0       0.0       0.3       0.0       0.0
 8 H  s               0.0       2.5       6.0       0.0       8.2       7.5
 8 H  px              0.0       0.1       0.0       0.0       0.1       0.1
 8 H  py              0.0       0.1       0.3       0.0       0.2       0.2
 9 H  s               0.0       2.5       6.0       0.0       8.2       7.5
 9 H  px              0.0       0.1       0.0       0.0       0.1       0.1
 9 H  py              0.0       0.1       0.3       0.0       0.2       0.2
10 H  s               0.0       2.5       6.0       0.0       8.2       7.5
10 H  px              0.0       0.1       0.0       0.0       0.1       0.1
10 H  py              0.0       0.1       0.3       0.0       0.2       0.2
11 H  s               0.0       2.5       6.0       0.0       8.2       7.5
11 H  px              0.0       0.1       0.0       0.0       0.1       0.1
11 H  py              0.0       0.1       0.3       0.0       0.2       0.2

                     24        25        26        27        28        29   
                  -0.86968  -0.79376  -0.73746  -0.69027  -0.43942  -0.27495
                   2.00000   2.00000   2.00000   2.00000   0.00000   0.00000
                  --------  --------  --------  --------  --------  --------
 0 C  s               0.1       0.1       0.0       0.0       0.0       0.0
 0 C  pz              0.0       0.0      17.7      21.7       5.3       2.8
 0 C  px              3.1       0.3       0.0       0.0       0.0       0.0
 0 C  py              3.6       7.8       0.0       0.0       0.0       0.0
 0 C  dxz             0.0       0.0       0.8       1.0       1.4       1.3
 0 C  dyz             0.0       0.0       0.0       0.1       0.5       1.8
 0 C  dxy             0.1       2.7       0.0       0.0       0.0       0.0
 0 C  f+2             0.0       0.0       0.0       0.1       0.2       0.2
 0 C  f-2             0.0       0.0       0.0       0.0       0.1       0.1
 1 C  s               0.1       0.1       0.0       0.0       0.0       0.0
 1 C  pz              0.0       0.0      17.7      21.7       5.3       2.8
 1 C  px              3.1       0.3       0.0       0.0       0.0       0.0
 1 C  py              3.6       7.8       0.0       0.0       0.0       0.0
 1 C  dxz             0.0       0.0       0.8       1.0       1.4       1.3
 1 C  dyz             0.0       0.0       0.0       0.1       0.5       1.8
 1 C  dxy             0.1       2.7       0.0       0.0       0.0       0.0
 1 C  f+2             0.0       0.0       0.0       0.1       0.2       0.2
 1 C  f-2             0.0       0.0       0.0       0.0       0.1       0.1
 2 C  pz              0.0       0.0       2.4       0.0      14.5      23.4
 2 C  py              3.6       7.2       0.0       0.0       0.0       0.0
 2 C  dxz             0.0       0.0       3.3       0.0       2.4       0.3
 2 C  dyz             0.0       0.0       0.0       3.1       0.0       0.0
 2 C  dxy             5.1       2.9       0.0       0.0       0.0       0.0
 2 C  f0              0.0       0.0       0.0       0.0       0.0       0.5
 2 C  f+2             0.0       0.0       0.2       0.0       0.6       0.1
 2 C  f-2             0.0       0.0       0.0       0.3       0.0       0.0
 2 C  f-3             0.7       0.1       0.0       0.0       0.0       0.0
 3 O  pz              0.0       0.0       6.2       0.0      16.7      11.3
 3 O  py             25.8       6.8       0.0       0.0       0.0       0.0
 3 O  dxz             0.0       0.0       0.0       0.0       0.7       1.4
 3 O  dxy             0.3       0.3       0.0       0.0       0.0       0.0
 4 C  s               0.1       0.1       0.0       0.0       0.0       0.0
 4 C  pz              0.0       0.0      17.7      21.7       5.3       2.8
 4 C  px              3.1       0.3       0.0       0.0       0.0       0.0
 4 C  py              3.6       7.8       0.0       0.0       0.0       0.0
 4 C  dxz             0.0       0.0       0.8       1.0       1.4       1.3
 4 C  dyz             0.0       0.0       0.0       0.1       0.5       1.8
 4 C  dxy             0.1       2.7       0.0       0.0       0.0       0.0
 4 C  f+2             0.0       0.0       0.0       0.1       0.2       0.2
 4 C  f-2             0.0       0.0       0.0       0.0       0.1       0.1
 5 C  s               0.1       0.1       0.0       0.0       0.0       0.0
 5 C  pz              0.0       0.0      17.7      21.7       5.3       2.8
 5 C  px              3.1       0.3       0.0       0.0       0.0       0.0
 5 C  py              3.6       7.8       0.0       0.0       0.0       0.0
 5 C  dxz             0.0       0.0       0.8       1.0       1.4       1.3
 5 C  dyz             0.0       0.0       0.0       0.1       0.5       1.8
 5 C  dxy             0.1       2.7       0.0       0.0       0.0       0.0
 5 C  f+2             0.0       0.0       0.0       0.1       0.2       0.2
 5 C  f-2             0.0       0.0       0.0       0.0       0.1       0.1
 6 C  pz              0.0       0.0       2.4       0.0      14.5      23.4
 6 C  py              3.6       7.2       0.0       0.0       0.0       0.0
 6 C  dxz             0.0       0.0       3.3       0.0       2.4       0.3
 6 C  dyz             0.0       0.0       0.0       3.1       0.0       0.0
 6 C  dxy             5.1       2.9       0.0       0.0       0.0       0.0
 6 C  f0              0.0       0.0       0.0       0.0       0.0       0.5
 6 C  f+2             0.0       0.0       0.2       0.0       0.6       0.1
 6 C  f-2             0.0       0.0       0.0       0.3       0.0       0.0
 6 C  f-3             0.7       0.1       0.0       0.0       0.0       0.0
 7 O  pz              0.0       0.0       6.2       0.0      16.7      11.3
 7 O  py             25.8       6.8       0.0       0.0       0.0       0.0
 7 O  dxz             0.0       0.0       0.0       0.0       0.7       1.4
 7 O  dxy             0.3       0.3       0.0       0.0       0.0       0.0
 8 H  s               0.1       5.1       0.0       0.0       0.0       0.0
 8 H  pz              0.0       0.0       0.2       0.3       0.1       0.1
 9 H  s               0.1       5.1       0.0       0.0       0.0       0.0
 9 H  pz              0.0       0.0       0.2       0.3       0.1       0.1
10 H  s               0.1       5.1       0.0       0.0       0.0       0.0
10 H  pz              0.0       0.0       0.2       0.3       0.1       0.1
11 H  s               0.1       5.1       0.0       0.0       0.0       0.0
11 H  pz              0.0       0.0       0.2       0.3       0.1       0.1

                     30        31        32        33        34        35   
                  -0.23552  -0.10327  -0.09466  -0.04413  -0.02519  -0.02387
                   0.00000   0.00000   0.00000   0.00000   0.00000   0.00000
                  --------  --------  --------  --------  --------  --------
 0 C  s               0.0       0.0       0.4       2.8       3.8       0.1
 0 C  pz             18.5      13.6       0.0       0.0       0.0       0.0
 0 C  px              0.0       0.0       1.0       1.0       1.0       0.4
 0 C  py              0.0       0.0       3.4       1.0       0.3       5.0
 0 C  dz2             0.0       0.0       0.2       1.2       1.3       0.1
 0 C  dxz             2.9       1.0       0.0       0.0       0.0       0.0
 0 C  dyz             0.0       1.1       0.0       0.0       0.0       0.0
 0 C  dx2y2           0.0       0.0       0.5       5.1       1.6       0.0
 0 C  dxy             0.0       0.0       6.9       0.6       0.2       7.1
 0 C  f0              0.2       0.5       0.0       0.0       0.0       0.0
 0 C  f+2             0.3       0.1       0.0       0.0       0.0       0.0
 0 C  f-2             0.0       0.2       0.0       0.0       0.0       0.0
 0 C  f+3             0.0       0.0       0.2       0.0       0.5       0.0
 0 C  f-3             0.0       0.0       0.1       0.1       0.1       0.0
 1 C  s               0.0       0.0       0.4       2.8       3.8       0.1
 1 C  pz             18.5      13.6       0.0       0.0       0.0       0.0
 1 C  px              0.0       0.0       1.0       1.0       1.0       0.4
 1 C  py              0.0       0.0       3.4       1.0       0.3       5.0
 1 C  dz2             0.0       0.0       0.2       1.2       1.3       0.1
 1 C  dxz             2.9       1.0       0.0       0.0       0.0       0.0
 1 C  dyz             0.0       1.1       0.0       0.0       0.0       0.0
 1 C  dx2y2           0.0       0.0       0.5       5.1       1.6       0.0
 1 C  dxy             0.0       0.0       6.9       0.6       0.2       7.1
[...]
 1 C  s               0.0       0.0       0.0       0.1       0.4       0.2
 1 C  dx2y2           0.0       0.0       0.0       0.0       0.0       0.3
 1 C  f+3             0.0       0.0       0.0       0.0       0.1       0.3
 1 C  f-3             0.0       0.0       0.0       0.0       0.0       0.1
 2 C  s               0.0       0.0       0.0       1.8       2.0       0.0
 2 C  pz              0.9       0.9       0.0       0.0       0.0       0.0
 2 C  px              0.0       0.0       0.0       1.0       1.0       0.0
 2 C  py              0.0       0.0       1.0       0.0       0.0       0.5
 2 C  dz2             0.0       0.0       0.0       0.1       0.1       0.0
 2 C  dxz             1.6       1.6       0.0       0.0       0.0       0.0
 2 C  dx2y2           0.0       0.0       0.0       0.2       0.4       0.0
 2 C  dxy             0.0       0.0       2.2       0.0       0.0       2.7
 2 C  f0              0.1       0.1       0.0       0.0       0.0       0.0
 2 C  f+1             0.0       0.0       0.0       0.2       0.2       0.0
 2 C  f-1             0.0       0.0       0.1       0.0       0.0       0.1
 2 C  f+2             0.2       0.2       0.0       0.0       0.0       0.0
 2 C  f+3             0.0       0.0       0.0       1.0       1.3       0.0
 2 C  f-3             0.0       0.0       0.9       0.0       0.0       2.0
 3 O  s               0.0       0.0       0.0       0.9       0.9       0.0
 3 O  pz              1.1       1.1       0.0       0.0       0.0       0.0
 3 O  px              0.0       0.0       0.0       1.2       1.1       0.0
 3 O  py              0.0       0.0       1.9       0.0       0.0       2.3
 3 O  dz2             0.0       0.0       0.0       9.3      10.4       0.0
 3 O  dxz            33.9      33.7       0.0       0.0       0.0       0.0
 3 O  dx2y2           0.0       0.0       0.0      27.2      24.8       0.0
 3 O  dxy             0.0       0.0      29.3       0.0       0.0      24.2
 3 O  f0              4.6       4.5       0.0       0.0       0.0       0.0
 3 O  f+1             0.0       0.0       0.0       3.1       3.6       0.0
 3 O  f-1             0.0       0.0       0.7       0.0       0.0       0.8
 3 O  f+2             7.7       7.7       0.0       0.0       0.0       0.0
 3 O  f+3             0.0       0.0       0.0       3.6       2.9       0.0
 3 O  f-3             0.0       0.0      13.5       0.0       0.0      15.1
 4 C  s               0.0       0.0       0.0       0.1       0.4       0.2
 4 C  dx2y2           0.0       0.0       0.0       0.0       0.0       0.3
 4 C  f+3             0.0       0.0       0.0       0.0       0.1       0.3
 4 C  f-3             0.0       0.0       0.0       0.0       0.0       0.1
 5 C  s               0.0       0.0       0.0       0.1       0.4       0.2
 5 C  dx2y2           0.0       0.0       0.0       0.0       0.0       0.3
 5 C  f+3             0.0       0.0       0.0       0.0       0.1       0.3
 5 C  f-3             0.0       0.0       0.0       0.0       0.0       0.1
 6 C  s               0.0       0.0       0.0       1.8       2.0       0.0
 6 C  pz              0.9       0.9       0.0       0.0       0.0       0.0
 6 C  px              0.0       0.0       0.0       1.0       1.0       0.0
 6 C  py              0.0       0.0       1.0       0.0       0.0       0.5
 6 C  dz2             0.0       0.0       0.0       0.1       0.1       0.0
 6 C  dxz             1.6       1.6       0.0       0.0       0.0       0.0
 6 C  dx2y2           0.0       0.0       0.0       0.2       0.4       0.0
 6 C  dxy             0.0       0.0       2.2       0.0       0.0       2.7
 6 C  f0              0.1       0.1       0.0       0.0       0.0       0.0
 6 C  f+1             0.0       0.0       0.0       0.2       0.2       0.0
 6 C  f-1             0.0       0.0       0.1       0.0       0.0       0.1
 6 C  f+2             0.2       0.2       0.0       0.0       0.0       0.0
 6 C  f+3             0.0       0.0       0.0       1.0       1.3       0.0
 6 C  f-3             0.0       0.0       0.9       0.0       0.0       2.0
 7 O  s               0.0       0.0       0.0       0.9       0.9       0.0
 7 O  pz              1.1       1.1       0.0       0.0       0.0       0.0
 7 O  px              0.0       0.0       0.0       1.2       1.1       0.0
 7 O  py              0.0       0.0       1.9       0.0       0.0       2.3
 7 O  dz2             0.0       0.0       0.0       9.3      10.4       0.0
 7 O  dxz            33.9      33.7       0.0       0.0       0.0       0.0
 7 O  dx2y2           0.0       0.0       0.0      27.2      24.8       0.0
 7 O  dxy             0.0       0.0      29.3       0.0       0.0      24.2
 7 O  f0              4.6       4.5       0.0       0.0       0.0       0.0
 7 O  f+1             0.0       0.0       0.0       3.1       3.6       0.0
 7 O  f-1             0.0       0.0       0.7       0.0       0.0       0.8
 7 O  f+2             7.7       7.7       0.0       0.0       0.0       0.0
 7 O  f+3             0.0       0.0       0.0       3.6       2.9       0.0
 7 O  f-3             0.0       0.0      13.5       0.0       0.0      15.1

                    264       265       266       267       268       269   
                  20.48716  20.80400  21.12819  21.25928  21.41068  21.79120
                   0.00000   0.00000   0.00000   0.00000   0.00000   0.00000
                  --------  --------  --------  --------  --------  --------
 0 C  s              23.6      24.4      24.6      20.1       1.0       4.4
 0 C  px              0.1       0.1       0.2       0.3       0.0       0.1
 1 C  s              23.6      24.4      24.6      20.1       1.0       4.4
 1 C  px              0.1       0.1       0.2       0.3       0.0       0.1
 2 C  s               1.8       0.0       0.0       8.4      46.7      39.6
 2 C  px              0.2       0.0       0.0       0.0       0.2       0.1
 2 C  py              0.0       0.4       0.0       0.0       0.0       0.0
 2 C  dxy             0.0       0.3       0.1       0.0       0.0       0.0
 3 O  s               0.2       0.0       0.0       0.1       0.4       0.4
 3 O  px              0.0       0.0       0.0       0.0       0.3       0.3
 4 C  s              23.6      24.4      24.6      20.1       1.0       4.4
 4 C  px              0.1       0.1       0.2       0.3       0.0       0.1
 5 C  s              23.6      24.4      24.6      20.1       1.0       4.4
 5 C  px              0.1       0.1       0.2       0.3       0.0       0.1
 6 C  s               1.8       0.0       0.0       8.4      46.7      39.6
 6 C  px              0.2       0.0       0.0       0.0       0.2       0.1
 6 C  py              0.0       0.4       0.0       0.0       0.0       0.0
 6 C  dxy             0.0       0.3       0.1       0.0       0.0       0.0
 7 O  s               0.2       0.0       0.0       0.1       0.4       0.4
 7 O  px              0.0       0.0       0.0       0.0       0.3       0.3

                    270       271   
                  41.48047  41.56079
                   0.00000   0.00000
                  --------  --------
 3 O  s              49.9      49.9
 7 O  s              49.9      49.9


                      *****************************
                      * MAYER POPULATION ANALYSIS *
                      *****************************

  NA   - Mulliken gross atomic population
  ZA   - Total nuclear charge
  QA   - Mulliken gross atomic charge
  VA   - Mayer's total valence
  BVA  - Mayer's bonded valence
  FA   - Mayer's free valence

  ATOM       NA         ZA         QA         VA         BVA        FA
  0 C      6.1776     6.0000    -0.1776     3.8122     3.8122    -0.0000
  1 C      6.1774     6.0000    -0.1774     3.8121     3.8121    -0.0000
  2 C      5.6024     6.0000     0.3976     3.9991     3.9991    -0.0000
  3 O      8.4067     8.0000    -0.4067     2.0530     2.0530     0.0000
  4 C      6.1775     6.0000    -0.1775     3.8121     3.8121    -0.0000
  5 C      6.1774     6.0000    -0.1774     3.8121     3.8121    -0.0000
  6 C      5.6023     6.0000     0.3977     3.9990     3.9990     0.0000
  7 O      8.4067     8.0000    -0.4067     2.0531     2.0531     0.0000
  8 H      0.8180     1.0000     0.1820     0.9696     0.9696     0.0000
  9 H      0.8180     1.0000     0.1820     0.9696     0.9696    -0.0000
 10 H      0.8180     1.0000     0.1820     0.9696     0.9696    -0.0000
 11 H      0.8180     1.0000     0.1820     0.9696     0.9696     0.0000

  Mayer bond orders larger than 0.100000
B(  0-C ,  1-C ) :   1.7552 B(  0-C ,  6-C ) :   1.0232 B(  0-C ,  8-H ) :   0.9485 
B(  1-C ,  2-C ) :   1.0233 B(  1-C ,  9-H ) :   0.9484 B(  2-C ,  3-O ) :   1.8858 
B(  2-C ,  4-C ) :   1.0232 B(  4-C ,  5-C ) :   1.7552 B(  4-C , 10-H ) :   0.9484 
B(  5-C ,  6-C ) :   1.0232 B(  5-C , 11-H ) :   0.9484 B(  6-C ,  7-O ) :   1.8858 


-------
TIMINGS
-------

Total SCF time: 0 days 0 hours 1 min 51 sec 

Total time                  ....     111.585 sec
Sum of individual times     ....     109.456 sec  ( 98.1%)

SCF preparation             ....       0.254 sec  (  0.2%)
Fock matrix formation       ....     108.082 sec  ( 96.9%)
  Startup                   ....       0.053 sec  (  0.0% of F)
  Split-RI-J                ....       4.335 sec  (  4.0% of F)
  Chain of spheres X        ....      88.495 sec  ( 81.9% of F)
  XC integration            ....      12.064 sec  ( 11.2% of F)
    XC Preparation          ....       0.000 sec  (  0.0% of XC)
    Basis function eval.    ....       2.624 sec  ( 21.7% of XC)
    Density eval.           ....       2.156 sec  ( 17.9% of XC)
    XC-Functional eval.     ....       2.405 sec  ( 19.9% of XC)
    XC-Potential eval.      ....       4.059 sec  ( 33.6% of XC)
  CPCM terms                ....       4.227 sec  (  3.9% of F)
Diagonalization             ....       0.000 sec  (  0.0%)
Density matrix formation    ....       0.183 sec  (  0.2%)
Total Energy calculation    ....       0.054 sec  (  0.0%)
Population analysis         ....       0.137 sec  (  0.1%)
Orbital Transformation      ....       0.062 sec  (  0.1%)
Orbital Orthonormalization  ....       0.000 sec  (  0.0%)
DIIS solution               ....       0.313 sec  (  0.3%)
  MO trafo                  ....       0.000 sec  (  0.0 % of DIIS)
  Orb grad                  ....       0.000 sec  (  0.0 % of DIIS)
  Energy W gradient         ....       0.000 sec  (  0.0 % of DIIS)
  DIIS error                ....       0.010 sec  (  3.2 % of DIIS)
  DIIS work                 ....       0.262 sec  ( 83.5 % of DIIS)
  Form Q                    ....       0.000 sec  (  0.0 % of DIIS)
  Form QpQm                 ....       0.000 sec  (  0.0 % of DIIS)
  Exp/Cayley                ....       0.000 sec  (  0.0 % of DIIS)
  Orb update                ....       0.000 sec  (  0.0 % of DIIS)
  Wake-sleep                ....       0.011 sec  (  3.4 % of DIIS)
SOSCF solution              ....       0.226 sec  (  0.2%)
  MO trafo                  ....       0.077 sec  ( 34.3 % of SOSCF)
  Orb grad                  ....       0.003 sec  (  1.2 % of SOSCF)
  Rot update                ....       0.080 sec  ( 35.4 % of SOSCF)
  Step                      ....       0.066 sec  ( 29.0 % of SOSCF)
Grid generation             ....       0.144 sec  (  0.1%)
Finished LeanSCF after 111.7 sec

Maximum memory used throughout the entire LEANSCF-calculation: 33.7 MB
------------------   -----------------
gCP correction             0.005485213
------------------   -----------------

-------------------------   --------------------
FINAL SINGLE POINT ENERGY      -381.486971706599
-------------------------   --------------------


------------------------------------------------------------------------------
                              ORCA PROPERTY CALCULATIONS
------------------------------------------------------------------------------

GBWName                                 ... sp_solv.gbw
Number of atoms                         ...     12
Number of basis functions               ...    272
Max core memory                         ...   1024 MB

Electric properties:
Dipole moment                           ... YES
Quadrupole moment                       ...  NO
Static polarizability (Dipole/Dipole)   ...  NO
Static polarizability (Dipole/Quad.)    ...  NO
Static polarizability (Quad./Quad.)     ...  NO
Static polarizability (Velocity)        ...  NO

Atomic electric properties:
Dipole moment                           ...  NO
Quadrupole moment                       ...  NO
Static polarizability                   ...  NO

Choice of electric origin               ... Center of mass
Position of electric origin             ...     0.000040    -0.000028     0.000047

General magnetic properties:
Magnetizability                         ...  NO

EPR properties:
g-Tensor (aka g-matrix)                 ...  NO
Zero-Field splitting spin-orbit         ...  NO
Zero-field splitting spin-spin          ...  NO
Hyperfine couplings                     ...  NO (   0 nuclei)
Quadrupole couplings                    ...  NO (   0 nuclei)
Contact density                         ...  NO (   0 nuclei)

NMR properties:
Chemical shifts                         ...  NO (   0 nuclei)
Spin-rotation constants                 ...  NO (   0 nuclei)
Spin-spin couplings                     ...  NO (   0 nuclei,    0 pairs)

Choice of magnetic origin               ... GIAO
Position of magnetic origin             ...     0.000000     0.000000     0.000000

Properties with geometric perturbations:
SCF Hessian                             ...  NO
IR spectrum                             ...  NO
VCD spectrum                            ...  NO
X-ray spectroscopy properties:
SCF XES/XAS/RIXS spectra                ...  NO


-------------
DIPOLE MOMENT
-------------

Method             : SCF
Type of density    : Electron Density
Multiplicity       :   1
Irrep              :   0
Energy             :  -381.4924569192992294 Eh
Relativity type    : 
Basis              : AO
                                X                 Y                 Z
Electronic contribution:      0.000007461       0.000005760      -0.001388341
Nuclear contribution   :     -0.000004477      -0.000000379       0.000977829
                        -----------------------------------------
Total Dipole Moment    :      0.000002984       0.000005381      -0.000410512
                        -----------------------------------------
Magnitude (a.u.)       :      0.000410558
Magnitude (Debye)      :      0.001043555



--------------------
Rotational spectrum 
--------------------
 
Rotational constants in cm-1:             0.175335             0.055666             0.042252 
Rotational constants in MHz :          5256.408353          1668.819165          1266.672543 

Dipole components along the rotational axes: 
x,y,z [a.u.] :     0.000003     0.000005    -0.000411 
x,y,z [Debye]:     0.000008     0.000014    -0.001043 

 

Dipole moment calculation done in   0.0 sec 

Maximum memory used throughout the entire PROP-calculation: 21.3 MB

--------------------------------
SUGGESTED CITATIONS FOR THIS RUN
--------------------------------

Below you find a list of papers that are relevant to this ORCA run
We neither can nor want to force you to cite these papers, but we appreciate if you do
You receive ORCA, which is the product of decades of hard work by many enthusiastic individuals, for free
The only thing we kindly ask in return is that you cite our papers,
We deeply appreciate it, if you show your appreciation for ORCA by not just citing the generic ORCA reference.

Please note that relegating all ORCA citations to the supporting information does *not* help us.
SI sections are not indexed - citations you put there will not count into any citation statistics
But we need these citations in order to attract the funding resources that allow us to do what we are doing

Therefore, if you are a happy ORCA user, please consider citing a few of the papers listed below in the main body of your paper

In addition to the list printed below, the program has created the file sp_solv.bibtex that contains the list in bibtex format
You can import this file easily into all common literature databanks and citation aid programs


List of essential papers. We consider these as the minimum necessary citations

  1. Neese,F.
     Software update: the ORCA program system, version 5.0
     WIRES Comput. Molec. Sci., 2022 12(1)e1606
     doi.org/10.1002/wcms.1606

List of papers to cite with high priority. The work reported in these papers was absolutely
necessary for this run to complete.
Our perspective: the developers of density functionals and basis sets usually get cited in chemistry papers
Good! But without the algorithms to do something with them, the functionals or basis sets would not do anything.
Hence, in our opinion, the algorithm design and method developments papers are equally worthy of getting cited

  1. Neese,F.
     An improvement of the resolution of the identity approximation for the formation of the Coulomb matrix
     J. Comp. Chem., 2003 24(14)1740-1747
     doi.org/10.1002/jcc.10318
  2. Neese,F.; Wennmohs,F.; Hansen,A.; Becker,U.
     Efficient, approximate and parallel Hartree-Fock and hybrid DFT calculations. A 'chain-of-spheres' algorithm for the Hartree-Fock exchange
     Chem. Phys., 2009 356(1-3)98-109
     doi.org/10.1016/j.chemphys.2008.10.036
  3. Garcia-Rates,M.; Neese,F.
     Effect of the Solute Cavity on the Solvation Energy and its Derivatives within the Framework of the Gaussian Charge Scheme
     J. Comput. Chem., 2020 41 922-939
     doi.org/10.1002/jcc.26139
  4. Helmich-Paris,B.; de Souza,B.; Neese,F.; Izsák,R.
     An improved chain of spheres for exchange algorithm
     J. Chem. Phys., 2021 155 104109
     doi.org/doi: 10.1063/5.0058766.
  5. Neese,F.
     The SHARK Integral Generation and Digestion System
     J. Comp. Chem., 2022  1-16
     doi.org/10.1002/jcc.26942

List of suggested additional citations. These are papers that are important in the 'surrounding' of 
of this run, or papers that preceded the highly important papers. If you like your results we are grateful for a citation.

  1. Izsak,R.; Neese,F.
     An overlap fitted chain of spheres exchange method
     J. Chem. Phys., 2011 135 144105
     doi.org/10.1063/1.3646921
  2. Izsak,R.; Hansen,A.; Neese,F.
     The resolution of identity and chain of spheres approximations for the LPNO-CCSD singles Fock term
     Molec. Phys., 2012 110 2413-2417
     doi.org/10.1080/00268976.2012.687466
  3. Neese,F.
     The ORCA program system
     WIRES Comput. Molec. Sci., 2012 2(1)73-78
     doi.org/10.1002/wcms.81
  4. Izsak,R.; Neese,F.; Klopper,W.
     Robust fitting techniques in the chain of spheres approximation to the Fock exchange: The role of the complementary space
     J. Chem. Phys., 2013 139 
     doi.org/10.1063/1.4819264
  5. Neese,F.
     Software update: the ORCA program system, version 4.0
     WIRES Comput. Molec. Sci., 2018 8(1)1-6
     doi.org/10.1002/wcms.1327
  6. Neese,F.; Wennmohs,F.; Becker,U.; Riplinger,C.
     The ORCA quantum chemistry program package
     J. Chem. Phys., 2020 152 Art. No. L224108
     doi.org/10.1063/5.0004608

List of optional additional citations

  1. Neese,F.
     Approximate second-order SCF convergence for spin unrestricted wavefunctions
     Chem. Phys. Lett., 2000 325(1-3)93-98
     doi.org/10.1016/s0009-2614(00)00662-x

Timings for individual modules:

Sum of individual times          ...      113.756 sec (=   1.896 min)
Startup calculation              ...        1.672 sec (=   0.028 min)   1.5 %
SCF iterations                   ...      111.985 sec (=   1.866 min)  98.4 %
Property calculations            ...        0.099 sec (=   0.002 min)   0.1 %
                             ****ORCA TERMINATED NORMALLY****
TOTAL RUN TIME: 0 days 0 hours 1 minutes 54 seconds 384 msec
