      -----------------------------------------------------------      
     |                   =====================                   |     
     |                           x T B                           |     
     |                   =====================                   |     
     |                         S. Grimme                         |     
     |          Mulliken Center for Theoretical Chemistry        |     
     |                    University of Bonn                     |     
      -----------------------------------------------------------      

   * xtb version 6.7.1 (edcfbbe) compiled by 'albert@albert-system' on 2024-07-22

   xtb is free software: you can redistribute it and/or modify it under
   the terms of the GNU Lesser General Public License as published by
   the Free Software Foundation, either version 3 of the License, or
   (at your option) any later version.
   
   xtb is distributed in the hope that it will be useful,
   but WITHOUT ANY WARRANTY; without even the implied warranty of
   MERCHANTABILITY or FITNESS FOR A PARTICULAR PURPOSE.  See the
   GNU Lesser General Public License for more details.
   
   Cite this work as:
   * C. Bannwarth, E. Caldeweyher, S. Ehlert, A. Hansen, P. Pracht,
     J. Seibert, S. Spicher, S. Grimme, WIREs Comput. Mol. Sci., 2020, 11,
     e01493. DOI: 10.1002/wcms.1493
   
   for GFN2-xTB:
   * C. Bannwarth, S. Ehlert and S. Grimme., J. Chem. Theory Comput., 2019,
     15, 1652-1671. DOI: 10.1021/acs.jctc.8b01176
   for GFN1-xTB:
   * S. Grimme, C. Bannwarth, P. Shushkov, J. Chem. Theory Comput., 2017,
     13, 1989-2009. DOI: 10.1021/acs.jctc.7b00118
   for GFN0-xTB:
   * P. Pracht, E. Caldeweyher, S. Ehlert, S. Grimme, ChemRxiv, 2019, preprint.
     DOI: 10.26434/chemrxiv.8326202.v1
   for GFN-FF:
   * S. Spicher and S. Grimme, Angew. Chem. Int. Ed., 2020, 59, 15665-15673.
     DOI: 10.1002/anie.202004239
   
   for ALPB and GBSA implicit solvation:
   * S. Ehlert, M. Stahn, S. Spicher, S. Grimme, J. Chem. Theory Comput.,
     2021, 17, 4250-4261. DOI: 10.1021/acs.jctc.1c00471
   
   for ddCOSMO and CPCM-X implicit solvation:
   * M. Stahn, S. Ehlert, S. Grimme, J. Phys. Chem. A,
     2023, XX, XXXX-XXXX. DOI: 10.1021/acs.jpca.3c04382
   
   for DFT-D4:
   * E. Caldeweyher, C. Bannwarth and S. Grimme, J. Chem. Phys., 2017,
     147, 034112. DOI: 10.1063/1.4993215
   * E. Caldeweyher, S. Ehlert, A. Hansen, H. Neugebauer, S. Spicher,
     C. Bannwarth and S. Grimme, J. Chem. Phys., 2019, 150, 154122.
     DOI: 10.1063/1.5090222
   * E. Caldeweyher, J.-M. Mewes, S. Ehlert and S. Grimme, Phys. Chem. Chem. Phys.
     2020, 22, 8499-8512. DOI: 10.1039/D0CP00502A
   
   for sTDA-xTB:
   * S. Grimme and C. Bannwarth, J. Chem. Phys., 2016, 145, 054103.
     DOI: 10.1063/1.4959605
   
   in the mass-spec context:
   * V. Asgeirsson, C. Bauer and S. Grimme, Chem. Sci., 2017, 8, 4879.
     DOI: 10.1039/c7sc00601b
   * J. Koopman and S. Grimme, ACS Omega 2019, 4, 12, 15120-15133.
     DOI: 10.1021/acsomega.9b02011
   
   for metadynamics refer to:
   * S. Grimme, J. Chem. Theory Comput., 2019, 155, 2847-2862
     DOI: 10.1021/acs.jctc.9b00143
   
   for SPH calculations refer to:
   * S. Spicher and S. Grimme, J. Chem. Theory Comput., 2021, 17, 1701-1714
     DOI: 10.1021/acs.jctc.0c01306
   
   for ONIOM refer to:
   * C. Plett, A. Katbashev, S. Ehlert, S. Grimme, M. Bursch,
     Phys. Chem. Chem. Phys., 2023, 25, 17860-17868. DOI: 10.1039/D3CP02178E
   
   for DIPRO refer to:
   * J. Kohn, N. Gildemeister, S. Grimme, D. Fazzi, A. Hansen,
     J. Chem. Phys., 2023, just accepted.
   
   for PTB refer to:
   * S. Grimme, M. Mueller, A. Hansen, J. Chem. Phys., 2023, 158, 124111.
     DOI: 10.1063/5.0137838
   
   with help from (in alphabetical order)
   P. Atkinson, C. Bannwarth, F. Bohle, G. Brandenburg, E. Caldeweyher
   M. Checinski, S. Dohm, S. Ehlert, S. Ehrlich, I. Gerasimov, C. Hölzer
   A. Katbashev, J. Kohn, J. Koopman, C. Lavigne, S. Lehtola, F. März, M. Müller,
   F. Musil, H. Neugebauer, J. Pisarek, C. Plett, P. Pracht, F. Pultar,
   J. Seibert, P. Shushkov, S. Spicher, M. Stahn, M. Steiner, T. Strunk,
   J. Stückrath, T. Rose, and J. Unsleber
   
 * started run on 2025/04/09 at 07:31:32.221     
   ID    Z sym.   atoms
    1    6 C      1, 2, 4, 6, 7, 9, 12, 13, 18, 20
    2    8 O      3, 5, 10, 11, 17, 19
    3    1 H      8, 21-38
    4   16 S      14, 16
    5   15 P      15

           -------------------------------------------------
          |                Calculation Setup                |
           -------------------------------------------------

          program call               : /software/projects/pawsey0265/mwang1/xtb/bin/xtb solv.coord --gfn2 --sp --chrg 0 --norestart --parallel 1 --alpb water reference -I xtb_sp-xcontrol-inp
          hostname                   : nid002043
          coordinate file            : solv.coord
          omp threads                :                     1


           -------------------------------------------------
          |                 G F N 2 - x T B                 |
           -------------------------------------------------

        Reference                      10.1021/acs.jctc.8b01176
      * Hamiltonian:
        H0-scaling (s, p, d)           1.850000    2.230000    2.230000
        zeta-weighting                 0.500000
      * Dispersion:
        s8                             2.700000
        a1                             0.520000
        a2                             5.000000
        s9                             5.000000
      * Repulsion:
        kExp                           1.500000    1.000000
        rExp                           1.000000
      * Coulomb:
        alpha                          2.000000
        third order                    shell-resolved
        anisotropic                    true
        a3                             3.000000
        a5                             4.000000
        cn-shift                       1.200000
        cn-exp                         4.000000
        max-rad                        5.000000

      * Solvation model:               ALPB
        Solvent                        water
        Parameter file                 internal GFN2-xTB/ALPB
        Dielectric constant                8.0200E+01
        Reference state                gsolv=reference [X=1]
        Free energy shift                  2.8945E-03 Eh       1.8164E+00 kcal/mol
        Temperature                        2.9815E+02 K
        Density                            1.0000E+00 kg/L
        Solvent mass                       1.8000E+01 g/mol
        Interaction kernel             P16
        Born radius scaling (c1)           1.4744E+00
        Born radii integrator          GBOBC
        Born offset                        0.0000E+00 a0       0.0000E+00 AA
        H-bond correction              true
        Ion screening                  false
        Surface tension                    1.0000E-05 Eh       1.5569E+01 dyn/cm
        Grid points                               974 per atom

          ...................................................
          :                      SETUP                      :
          :.................................................:
          :  # basis functions                 113          :
          :  # atomic orbitals                 110          :
          :  # shells                           60          :
          :  # electrons                       112          :
          :  max. iterations                   250          :
          :  Hamiltonian                  GFN2-xTB          :
          :  restarted?                      false          :
          :  GBSA solvation                   true          :
          :  PC potential                    false          :
          :  electronic temp.          300.0000000     K    :
          :  accuracy                    1.0000000          :
          :  -> integral cutoff          0.2500000E+02      :
          :  -> integral neglect         0.1000000E-07      :
          :  -> SCF convergence          0.1000000E-05 Eh   :
          :  -> wf. convergence          0.1000000E-03 e    :
          :  Broyden damping             0.4000000          :
          :  net charge                          0          :
          :  unpaired electrons                  0          :
          ...................................................

 iter      E             dE          RMSdq      gap      omega  full diag
   1    -65.1022253 -0.651022E+02  0.586E+00    4.04       0.0  T
   2    -65.2337979 -0.131573E+00  0.315E+00    3.20       1.0  T
   3    -65.2430443 -0.924642E-02  0.124E+00    2.98       1.0  T
   4    -65.2488144 -0.577010E-02  0.435E-01    2.87       1.0  T
   5    -65.2496610 -0.846585E-03  0.190E-01    2.97       1.0  T
   6    -65.2497651 -0.104102E-03  0.854E-02    2.97       1.0  T
   7    -65.2497841 -0.189571E-04  0.299E-02    2.99       1.0  T
   8    -65.2497864 -0.231943E-05  0.135E-02    2.99       1.2  T
   9    -65.2497871 -0.723770E-06  0.483E-03    2.99       3.4  T
  10    -65.2497872 -0.564291E-07  0.274E-03    2.99       5.9  T
  11    -65.2497872 -0.199873E-07  0.660E-04    2.99      24.6  T
  12    -65.2497872 -0.129141E-08  0.336E-04    2.99      48.2  T

   *** convergence criteria satisfied after 12 iterations ***

         #    Occupation            Energy/Eh            Energy/eV
      -------------------------------------------------------------
         1        2.0000           -0.7744722             -21.0745
       ...           ...                  ...                  ...
        50        2.0000           -0.4500637             -12.2469
        51        2.0000           -0.4469441             -12.1620
        52        2.0000           -0.4438255             -12.0771
        53        2.0000           -0.4380010             -11.9186
        54        2.0000           -0.4057022             -11.0397
        55        2.0000           -0.3900220             -10.6130
        56        2.0000           -0.3871027             -10.5336 (HOMO)
        57                         -0.2771440              -7.5415 (LUMO)
        58                         -0.2627785              -7.1506
        59                         -0.2521538              -6.8615
        60                         -0.2040069              -5.5513
        61                         -0.1627004              -4.4273
       ...                                ...                  ...
       110                          1.4068361              38.2820
      -------------------------------------------------------------
                  HL-Gap            0.1099587 Eh            2.9921 eV
             Fermi-level           -0.3321233 Eh           -9.0375 eV

 SCC (total)                   0 d,  0 h,  0 min,  0.108 sec
 SCC setup                      ...        0 min,  0.003 sec (  2.915%)
 Dispersion                     ...        0 min,  0.000 sec (  0.370%)
 classical contributions        ...        0 min,  0.000 sec (  0.098%)
 integral evaluation            ...        0 min,  0.035 sec ( 32.261%)
 iterations                     ...        0 min,  0.034 sec ( 31.025%)
 molecular gradient             ...        0 min,  0.036 sec ( 33.025%)
 printout                       ...        0 min,  0.000 sec (  0.279%)

         :::::::::::::::::::::::::::::::::::::::::::::::::::::
         ::                     SUMMARY                     ::
         :::::::::::::::::::::::::::::::::::::::::::::::::::::
         :: total energy             -64.677682966602 Eh    ::
         :: total w/o Gsasa/hb       -64.678427539571 Eh    ::
         :: gradient norm              0.000063844397 Eh/a0 ::
         :: HOMO-LUMO gap              2.992129239168 eV    ::
         ::.................................................::
         :: SCC energy               -65.248657998168 Eh    ::
         :: -> isotropic ES            0.183069002490 Eh    ::
         :: -> anisotropic ES         -0.027120407861 Eh    ::
         :: -> anisotropic XC          0.016483722985 Eh    ::
         :: -> dispersion             -0.045444513337 Eh    ::
         :: -> Gsolv                  -0.035040529682 Eh    ::
         ::    -> Gelec               -0.035785102651 Eh    ::
         ::    -> Gsasa                0.003118824516 Eh    ::
         ::    -> Ghb                 -0.005268800707 Eh    ::
         ::    -> Gshift               0.002894549160 Eh    ::
         :: repulsion energy           0.570975031565 Eh    ::
         :: add. restraining           0.000000000000 Eh    ::
         :: total charge              -0.000000000000 e     ::
         :::::::::::::::::::::::::::::::::::::::::::::::::::::

           -------------------------------------------------
          |                Property Printout                |
           -------------------------------------------------

    * Orbital Energies and Occupations

         #    Occupation            Energy/Eh            Energy/eV
      -------------------------------------------------------------
         1        2.0000           -0.7744722             -21.0745
       ...           ...                  ...                  ...
        44        2.0000           -0.4758487             -12.9485
        45        2.0000           -0.4690751             -12.7642
        46        2.0000           -0.4668792             -12.7044
        47        2.0000           -0.4611991             -12.5499
        48        2.0000           -0.4575511             -12.4506
        49        2.0000           -0.4528585             -12.3229
        50        2.0000           -0.4500637             -12.2469
        51        2.0000           -0.4469441             -12.1620
        52        2.0000           -0.4438255             -12.0771
        53        2.0000           -0.4380010             -11.9186
        54        2.0000           -0.4057022             -11.0397
        55        2.0000           -0.3900220             -10.6130
        56        2.0000           -0.3871027             -10.5336 (HOMO)
        57                         -0.2771440              -7.5415 (LUMO)
        58                         -0.2627785              -7.1506
        59                         -0.2521538              -6.8615
        60                         -0.2040069              -5.5513
        61                         -0.1627004              -4.4273
        62                         -0.1544496              -4.2028
        63                         -0.1155461              -3.1442
        64                         -0.0487918              -1.3277
        65                         -0.0374975              -1.0204
        66                         -0.0346936              -0.9441
        67                         -0.0180040              -0.4899
       ...                                ...                  ...
       110                          1.4068361              38.2820
      -------------------------------------------------------------
                  HL-Gap            0.1099587 Eh            2.9921 eV
             Fermi-level           -0.3321233 Eh           -9.0375 eV

     #   Z          covCN         q      C6AA      α(0)
     1   6 C        3.751    -0.125    22.955     6.833
     2   6 C        3.691     0.066    19.642     6.342
     3   8 O        1.703    -0.242    18.008     5.729
     4   6 C        2.710     0.372    20.691     7.446
     5   8 O        0.861    -0.470    23.132     6.448
     6   6 C        3.826    -0.109    22.561     6.759
     7   6 C        3.850     0.002    20.504     6.441
     8   1 H        0.924     0.136     1.493     1.911
     9   6 C        2.783     0.370    20.734     7.458
    10   8 O        0.867    -0.474    23.220     6.461
    11   8 O        1.703    -0.234    17.874     5.708
    12   6 C        3.698     0.079    19.426     6.304
    13   6 C        3.752    -0.134    23.145     6.861
    14  16 S        1.972    -0.117   145.935    20.332
    15  15 P        3.817     0.354   145.454    21.665
    16  16 S        0.925    -0.470   159.959    21.392
    17   8 O        1.655    -0.275    18.584     5.819
    18   6 C        3.801     0.018    20.266     6.409
    19   8 O        1.656    -0.276    18.595     5.821
    20   6 C        3.774     0.028    20.127     6.392
    21   1 H        0.925     0.076     2.024     2.225
    22   1 H        0.925     0.071     2.070     2.250
    23   1 H        0.925     0.052     2.294     2.369
    24   1 H        0.924     0.060     2.200     2.320
    25   1 H        0.924     0.091     1.871     2.139
    26   1 H        0.924     0.128     1.548     1.946
    27   1 H        0.925     0.123     1.593     1.974
    28   1 H        0.924     0.065     2.141     2.288
    29   1 H        0.924     0.065     2.142     2.289
    30   1 H        0.925     0.075     2.028     2.227
    31   1 H        0.925     0.078     2.000     2.212
    32   1 H        0.925     0.083     1.952     2.185
    33   1 H        0.925     0.107     1.722     2.052
    34   1 H        0.925     0.084     1.934     2.175
    35   1 H        0.924     0.085     1.927     2.171
    36   1 H        0.925     0.101     1.771     2.081
    37   1 H        0.925     0.072     2.067     2.249
    38   1 H        0.925     0.084     1.942     2.179

 Mol. C6AA /au·bohr⁶  :      18233.107545
 Mol. C8AA /au·bohr⁸  :     514393.040153
 Mol. α(0) /au        :        207.861299


Wiberg/Mayer (AO) data.
largest (>0.10) Wiberg bond orders for each atom

 ---------------------------------------------------------------------------
     #   Z sym  total        # sym  WBO       # sym  WBO       # sym  WBO
 ---------------------------------------------------------------------------
     1   6 C    3.986 --     2 C    1.013    22 H    0.983    23 H    0.981
                            21 H    0.978
     2   6 C    3.901 --     1 C    1.013    24 H    0.971    25 H    0.965
                             3 O    0.909
     3   8 O    2.359 --     4 C    1.211     2 C    0.909     5 O    0.175
     4   6 C    3.914 --     5 O    1.658     3 O    1.211     6 C    0.971
     5   8 O    2.021 --     4 C    1.658     3 O    0.175
     6   6 C    3.979 --     7 C    0.992     4 C    0.971    27 H    0.954
                            26 H    0.939
     7   6 C    3.969 --     6 C    0.992     9 C    0.955    14 S    0.955
                             8 H    0.923
     8   1 H    0.981 --     7 C    0.923
     9   6 C    3.919 --    10 O    1.652    11 O    1.227     7 C    0.955
    10   8 O    2.011 --     9 C    1.652    11 O    0.174
    11   8 O    2.365 --     9 C    1.227    12 C    0.896    10 O    0.174
    12   6 C    3.892 --    13 C    1.019    28 H    0.968    29 H    0.964
                            11 O    0.896
    13   6 C    3.980 --    12 C    1.019    31 H    0.983    30 H    0.981
                            32 H    0.977
    14  16 S    2.268 --    15 P    0.960     7 C    0.955    16 S    0.142
    15  15 P    5.291 --    16 S    1.491    17 O    1.309    19 O    1.295
                            14 S    0.960
    16  16 S    1.820 --    15 P    1.491    14 S    0.142
    17   8 O    2.375 --    15 P    1.309    18 C    0.896
    18   6 C    3.881 --    34 H    0.979    33 H    0.973    35 H    0.972
                            17 O    0.896
    19   8 O    2.381 --    15 P    1.295    20 C    0.913
    20   6 C    3.887 --    37 H    0.979    38 H    0.978    36 H    0.973
                            19 O    0.913
    21   1 H    0.993 --     1 C    0.978
    22   1 H    0.995 --     1 C    0.983
    23   1 H    0.997 --     1 C    0.981
    24   1 H    0.996 --     2 C    0.971
    25   1 H    0.992 --     2 C    0.965
    26   1 H    0.983 --     6 C    0.939
    27   1 H    0.985 --     6 C    0.954
    28   1 H    0.996 --    12 C    0.968
    29   1 H    0.996 --    12 C    0.964
    30   1 H    0.994 --    13 C    0.981
    31   1 H    0.994 --    13 C    0.983
    32   1 H    0.992 --    13 C    0.977
    33   1 H    0.988 --    18 C    0.973
    34   1 H    0.993 --    18 C    0.979
    35   1 H    0.993 --    18 C    0.972
    36   1 H    0.989 --    20 C    0.973
    37   1 H    0.995 --    20 C    0.979
    38   1 H    0.993 --    20 C    0.978
 ---------------------------------------------------------------------------

Topologies differ in total number of bonds
Writing topology from bond orders to xtbtopo.mol

molecular dipole:
                 x           y           z       tot (Debye)
 q only:        1.928       0.019      -2.024
   full:        1.497       0.064      -1.937       6.223
molecular quadrupole (traceless):
                xx          xy          yy          xz          yz          zz
 q only:       19.240       5.466      -4.150       7.851      -1.406     -15.090
  q+dip:       16.265       5.963       0.360       0.955      -1.569     -16.625
   full:       16.247       5.834       0.345       1.584      -1.584     -16.592


           -------------------------------------------------
          | TOTAL ENERGY              -64.677682966602 Eh   |
          | GRADIENT NORM               0.000063844397 Eh/α |
          | HOMO-LUMO GAP               2.992129239168 eV   |
           -------------------------------------------------

------------------------------------------------------------------------
 * finished run on 2025/04/09 at 07:31:32.365     
------------------------------------------------------------------------
 total:
 * wall-time:     0 d,  0 h,  0 min,  0.143 sec
 *  cpu-time:     0 d,  0 h,  0 min,  0.118 sec
 * ratio c/w:     0.826 speedup
 SCF:
 * wall-time:     0 d,  0 h,  0 min,  0.109 sec
 *  cpu-time:     0 d,  0 h,  0 min,  0.094 sec
 * ratio c/w:     0.863 speedup

