41
 energy: -65.043370870048 gnorm: 0.051252566490 xtb: 6.7.1 (edcfbbe)
C            4.30834754557916       -2.02067490715702       -2.14147864394848
C            4.73618160673524       -1.56696044489594       -0.76761175810337
O            3.58966644706771       -1.33144739818486        0.12068118491651
P            2.70805985413584        0.01238044505840        0.08782444653269
S            3.58811885825816        1.65722451082269       -0.46382003918140
O            2.18923837497208        0.10355445110182        1.60226986663219
C            1.12419987893169       -0.72671565687262        2.18604269063843
C            1.50141745817344       -2.18513047831597        2.29279618230481
S            1.07787910416098       -0.60024230377348       -1.13726488777527
C            0.29430728360334        1.02277201707135       -1.51929814719977
S           -0.61134760053506        1.86245239639381       -0.17188110245129
P           -2.42165665280678        0.73993303542361       -0.16594221133674
S           -3.18430706720352        0.34076722003523       -1.91375252038809
O           -3.20603655782761        1.75099985700653        0.80165647519366
C           -4.67326550315729        1.74442887935698        0.90479056430295
C           -5.20867385411327        0.46709339555806        1.50771313542002
O           -2.18291035165461       -0.52317413334360        0.80083158658609
C           -2.13067854582808       -1.92099923376997        0.36857447576695
C           -2.74784751346574       -2.75481462214021        1.46315731423215
H            5.20191840520136       -2.31570024994663       -2.70122958470349
H            3.64009274210989       -2.88527251429164       -2.07802638261838
H            3.80884038103186       -1.22024139674342       -2.69406879366658
H            5.33359444810756       -0.65072179835104       -0.80565179612692
H            5.30477490979274       -2.34036621919331       -0.24816903513058
H            0.97689489498991       -0.28016828332764        3.17170049424891
H            0.21529469190342       -0.58276274876642        1.59634193729299
H            1.56950845505847       -2.66377349695825        1.31039977139532
H            2.45460046450345       -2.30960570773149        2.81661783053951
H            0.71980975955762       -2.69838777540986        2.86353798672072
H           -0.37889728195087        0.84316632551047       -2.36376961344608
H            1.08100420987546        1.71799152619512       -1.83026647762779
H           -4.88452670477689        2.60792119319781        1.53905499909298
H           -5.08262497156329        1.92759938420336       -0.09422653508047
H           -6.28556042831770        0.58901852407015        1.66838088600270
H           -5.06223450693419       -0.38914925899988        0.84154590706693
H           -4.73671735368100        0.25660462689743        2.47251617483764
H           -2.67098476173770       -2.02016241610067       -0.57714240309714
H           -1.07825922473795       -2.17652146014434        0.20997222068085
H           -2.69508411521830       -3.81071418005786        1.17796480481340
H           -2.20487426807905       -2.62328341381502        2.40442239899786
H           -3.79787782839595       -2.48463821828960        1.61446948462715
41
 energy: -65.047467959593 gnorm: 0.028127568998 xtb: 6.7.1 (edcfbbe)
C            4.30165900365638       -2.01541392240638       -2.13838190410759
C            4.72437396262950       -1.55647057180724       -0.76268001968668
O            3.58912057636910       -1.32593278168058        0.11860672821041
P            2.68370175100450       -0.00491714091976        0.06994881824329
S            3.59418450782482        1.64085552126245       -0.46313083985607
O            2.16793213577599        0.09733208426640        1.57703896670251
C            1.12514332377105       -0.72511476225290        2.18136350700454
C            1.50126902589032       -2.18396164625780        2.28789238360194
S            1.00295021888474       -0.61125519568416       -1.09387234158346
C            0.28924183771595        1.01885288477898       -1.51319724708499
S           -0.57479742049110        1.81330833309635       -0.12043935666538
P           -2.40914824977312        0.73761661911711       -0.16374904081784
S           -3.19627351762274        0.31552862781859       -1.90774057194861
O           -3.19715374276165        1.74270220048463        0.79576668863375
C           -4.65346473995087        1.74067411980658        0.89650795396960
C           -5.20303125483816        0.47015045414400        1.50160783392174
O           -2.17077387224520       -0.52399885017766        0.79534504220613
C           -2.12768877320558       -1.91268871495189        0.36648315711053
C           -2.74518555018821       -2.75593089808358        1.45920297592029
H            5.18916589589766       -2.30523020436488       -2.69916300644234
H            3.63414668421714       -2.87236470950082       -2.06982234275823
H            3.79596421836602       -1.21579504815159       -2.67787850631520
H            5.31142229417106       -0.63472850345812       -0.81130725470248
H            5.29282848866720       -2.32794292653459       -0.24037171621681
H            0.99407251666075       -0.26958157212725        3.16465927269236
H            0.21212239967847       -0.58681768320059        1.59867499462563
H            1.57669023207793       -2.64516144958172        1.30362612651997
H            2.45460144095973       -2.29589634708941        2.80066238768039
H            0.73039110358868       -2.70024522230802        2.85924030434962
H           -0.40063733743419        0.84141837045199       -2.34041236716785
H            1.09191876438927        1.69916782961201       -1.80587621938615
H           -4.85918285968092        2.60532975069607        1.53024860482424
H           -5.06227009010673        1.91313377516917       -0.10356334254867
H           -6.27408610913179        0.59102491211764        1.66212581265232
H           -5.04712996592072       -0.37487314468014        0.83090673748544
H           -4.72393593484715        0.26245465318411        2.45699760076030
H           -2.67160720725308       -2.00224532766308       -0.57807537715698
H           -1.07916811887040       -2.17287192335461        0.20129019082894
H           -2.69254535928112       -3.80454568985772        1.17341125304849
H           -2.20743482795485       -2.61744125302956        2.39495473162122
H           -3.78800076887414       -2.48584517555996        1.61276226879316
41
 energy: -65.049133566039 gnorm: 0.011966959574 xtb: 6.7.1 (edcfbbe)
C            4.28398877692288       -2.00605437596039       -2.13447283155981
C            4.70364861826601       -1.54363940572783       -0.75568511974851
O            3.57964468932517       -1.32003760201358        0.11843196124556
P            2.65386418129957       -0.02122999478250        0.06346454699170
S            3.55881188902356        1.61982035244277       -0.49601125235446
O            2.14317145167252        0.09249204770521        1.56170129402334
C            1.12198091073874       -0.72045411795348        2.18544106386166
C            1.50412418487479       -2.18019211895929        2.28193993826350
S            0.97199806763285       -0.63593461800592       -1.09991264194437
C            0.28428028248108        0.99968798425527       -1.48739942653853
S           -0.55540733220478        1.80267586887475       -0.08903240733060
P           -2.38672445683265        0.72984119657256       -0.14643323678959
S           -3.16571906243780        0.31477800103154       -1.89800187243484
O           -3.18147064292923        1.73097721906361        0.79722511430122
C           -4.62680101581408        1.74151119909572        0.88555468328242
C           -5.18799479430867        0.47354164350940        1.49182437574487
O           -2.15819374203706       -0.53534861250991        0.79861937101054
C           -2.12555274453088       -1.91141841641456        0.36505868996503
C           -2.74427280425024       -2.76166963879543        1.45622220608876
H            5.16791967384502       -2.28802549436654       -2.69662905899650
H            3.61923817368417       -2.86024047477330       -2.06179152439787
H            3.77177203683658       -1.20498723507155       -2.66148728323096
H            5.28462810210277       -0.61852482183671       -0.81474146263556
H            5.27700271069764       -2.31258550875605       -0.23524821514881
H            1.01050203077834       -0.26253667041708        3.16953057154826
H            0.19742473140206       -0.58919760971905        1.61925395549757
H            1.58173493971574       -2.62119254007238        1.29164200288563
H            2.46052388584149       -2.28329602650501        2.78367381004261
H            0.74357094000890       -2.70423348133991        2.85131966089101
H           -0.41904836437757        0.84186971530427       -2.30418982773015
H            1.09630076383004        1.66678295545277       -1.77458374461884
H           -4.83143247066106        2.60880259440829        1.51547847551236
H           -5.03241969002032        1.90388454044429       -0.11714792145357
H           -6.25447677667265        0.59646923751401        1.64948346462288
H           -5.02628904432886       -0.36407571559437        0.81730688014262
H           -4.70613294027583        0.26649304445673        2.44207817575714
H           -2.67401005755201       -1.99189895174152       -0.57844761622667
H           -1.08132356049291       -2.18086028592929        0.19272212607978
H           -2.68847740099426       -3.80406852981300        1.16702495308563
H           -2.20795868106313       -2.61562769739348        2.38737001090576
H           -3.78304077743138       -2.49001818435703        1.60851099835119
41
 energy: -65.049662275294 gnorm: 0.006348384206 xtb: 6.7.1 (edcfbbe)
C            4.26276468414584       -1.99674208055620       -2.13065073386478
C            4.68803400823473       -1.53543473004946       -0.75058488923472
O            3.57060455981701       -1.31488998414910        0.12226809701188
P            2.63696057623663       -0.02739995420570        0.06247877809499
S            3.52110190966233        1.61523171943276       -0.52512817505831
O            2.12413273273381        0.09611066206332        1.55238899825124
C            1.11764816523429       -0.71500597081282        2.19233980698628
C            1.50815658222080       -2.17556317279046        2.27692183121836
S            0.95267433554930       -0.65627880686088       -1.09279309715296
C            0.28474285972970        0.98321466411929       -1.47513820646395
S           -0.53554782962330        1.79006522398180       -0.06749696367272
P           -2.36966322260539        0.72470069544000       -0.13163671373039
S           -3.13170337952014        0.32227173963633       -1.89340220051651
O           -3.16584082519698        1.72489299605755        0.80204718831403
C           -4.60624134065869        1.74629130150107        0.87905565383420
C           -5.17325349280797        0.47688750435126        1.48331235556472
O           -2.14674757853615       -0.54501285042156        0.80174303166141
C           -2.12381903517100       -1.91521695125175        0.36270192207776
C           -2.74342508474304       -2.76737388479689        1.45393876364424
H            5.14503461431866       -2.27192376654584       -2.69816264066777
H            3.60099031599342       -2.85374984998565       -2.05584673603800
H            3.74420154813204       -1.19394814296543       -2.65038158660924
H            5.26852035361738       -0.60980330010543       -0.81668103240745
H            5.26948406092264       -2.30245777108641       -0.23617211148018
H            1.02147560177730       -0.26189594033996        3.18033425407551
H            0.17798181013445       -0.59011326466882        1.64750630662695
H            1.58190417280998       -2.60426468396695        1.28026813926371
H            2.46971996516431       -2.27620861016325        2.77102232336902
H            0.75453291830482       -2.71038838985493        2.84488141194370
H           -0.43044496841094        0.84606192183505       -2.28632603901986
H            1.10347630800021        1.64110431959734       -1.76503846302962
H           -4.81539900963924        2.61589783380284        1.50406685000298
H           -5.00696402981907        1.90506034680131       -0.12662076878350
H           -6.23951571187067        0.60161357807057        1.63785736286971
H           -5.01006154603821       -0.35909098662356        0.80617799087882
H           -4.69226704984434        0.26771425353370        2.43405082340358
H           -2.67695746642244       -1.99293004706577       -0.57906446439101
H           -1.08312944941073       -2.19615340549174        0.18373274486413
H           -2.68433764891650       -3.80905705951355        1.16316010231287
H           -2.20618501369854       -2.61837817890617        2.38474771778916
H           -3.78325371804174       -2.49555750572378        1.60378525502309
41
 energy: -65.049839267858 gnorm: 0.004886711953 xtb: 6.7.1 (edcfbbe)
C            4.24430176437260       -1.98917481499137       -2.12762176047530
C            4.67775716410486       -1.52932335255002       -0.74882927498733
O            3.56432316299862       -1.30958182680432        0.12908444918768
P            2.62487925905243       -0.02895449409089        0.06389836326209
S            3.49927697364788        1.61393161925282       -0.53636394157541
O            2.11093060379511        0.10378002362300        1.54943106389794
C            1.11612828403870       -0.71189511312678        2.20305758689368
C            1.51160275258191       -2.17267362230838        2.27448778693692
S            0.94562373451390       -0.66842667853140       -1.09478885673925
C            0.28421115533869        0.97283923123888       -1.47131410794376
S           -0.52054177884255        1.78668855979793       -0.05697788315516
P           -2.35525196268180        0.72193531340415       -0.12510646444014
S           -3.11338990466268        0.32818524048162       -1.89055150756000
O           -3.15028274370129        1.72229894843228        0.80514200128949
C           -4.59070453044880        1.74948412669736        0.87510815264453
C           -5.16294700375850        0.48027532341849        1.47670543587337
O           -2.13639621807934       -0.55171827059187        0.80168110931216
C           -2.12322323255712       -1.92153382616327        0.36013105341751
C           -2.74323044412049       -2.77263921331444        1.45214874714446
H            5.12414692538758       -2.25993455192020       -2.70277091622578
H            3.58533494472233       -2.84955005298581       -2.05105183061695
H            3.71953787037229       -1.18629875315155       -2.64264734907957
H            5.25911053107936       -0.60402478201463       -0.81878506195641
H            5.26530135063675       -2.29566895626805       -0.24010430831762
H            1.03298137847387       -0.26398848862102        3.19486841270938
H            0.16592408499984       -0.58835686119181        1.67541196610475
H            1.57893022704797       -2.59426387306550        1.27329118397516
H            2.47735397812363       -2.27520917377711        2.76219653796649
H            0.76256018489335       -2.71589878524484        2.84228006718078
H           -0.43787972857885        0.84654399097565       -2.27882266671208
H            1.10602729556818        1.62473707843041       -1.76899043935997
H           -4.80378407460761        2.62014291088802        1.49733104906347
H           -4.98677055301283        1.90929528687634       -0.13270683688253
H           -6.23035354657045        0.60634442112456        1.62912912198221
H           -5.00004357998974       -0.35610560503599        0.79860349265684
H           -4.68435256170553        0.26839078033106        2.42921509750943
H           -2.67974162317099       -1.99643301179289       -0.58009246712211
H           -1.08477500262829       -2.20933620916193        0.17615433923717
H           -2.68260342128118       -3.81577529067931        1.16258578375521
H           -2.20591388837871       -2.62363753687023        2.38414398192454
H           -3.78467314520851       -2.50219023939675        1.60110177618550
41
 energy: -65.049927261821 gnorm: 0.003651560676 xtb: 6.7.1 (edcfbbe)
C            4.22849092134959       -1.98312073821547       -2.12496071627257
C            4.67144349197152       -1.52555486704166       -0.74879426457463
O            3.56266748692799       -1.30501715646895        0.13761939500101
P            2.62024504460165       -0.02783085436201        0.06787332412341
S            3.48924797769673        1.61596550461595       -0.53775006647093
O            2.10167818668334        0.11126872318306        1.54995351517627
C            1.11610755431489       -0.71131652840666        2.21289787835327
C            1.51426533962693       -2.17153146298933        2.27229538977420
S            0.94576936624145       -0.67324218936929       -1.09434401115220
C            0.28745294369891        0.96688773979359       -1.47643166727417
S           -0.51207198522629        1.78205552764215       -0.06006118132036
P           -2.34758548424097        0.72035477709418       -0.12087647925286
S           -3.10446722268697        0.33352491100802       -1.88812914440130
O           -3.14014454021517        1.72118007068764        0.80976819246843
C           -4.58182124909704        1.75161186531806        0.87431466545767
C           -5.15692622889562        0.48264160669885        1.47227615722791
O           -2.12852076162031       -0.55643885166519        0.80148969203305
C           -2.12307854016734       -1.92753873005311        0.35829156104599
C           -2.74320465799631       -2.77680667133870        1.45084387111413
H            5.10495497157702       -2.25107820962282       -2.70777008114802
H            3.57180105918056       -2.84572778590027       -2.04632048491388
H            3.69844459281738       -1.18051266242446       -2.63565638640612
H            5.25321284402254       -0.60054572031588       -0.82044557074975
H            5.26187508462651       -2.29251174874785       -0.24448095181659
H            1.04550994739573       -0.26821776611825        3.20800312779906
H            0.15910947421813       -0.58542423165184        1.69868939844047
H            1.57494681716551       -2.58804485100564        1.26809667619590
H            2.48303331090651       -2.27744485755018        2.75417474873887
H            0.76856072794243       -2.71974644770917        2.84081557518963
H           -0.43865471804464        0.84174352522662       -2.28016643287733
H            1.10871180904217        1.61705742800217       -1.78095774351838
H           -4.79620013427580        2.62255334955392        1.49567436032999
H           -4.97232216578063        1.91388495178620       -0.13555128221230
H           -6.22510329322768        0.60988423771777        1.62278469878723
H           -4.99432132004956       -0.35406456830784        0.79376559625228
H           -4.68113766460410        0.26836487095143        2.42628957016551
H           -2.68260853631055       -1.99867652227223       -0.58035286079096
H           -1.08614877704786       -2.21872488405027        0.17060145956772
H           -2.68184508485251       -3.82119531126994        1.16280642951326
H           -2.20635067540627       -2.62836439935262        2.38383813480849
H           -3.78563123049719       -2.50802160174775        1.59954879455002
41
 energy: -65.049981696953 gnorm: 0.002527796490 xtb: 6.7.1 (edcfbbe)
C            4.21297832635878       -1.97728508442858       -2.12206354147942
C            4.66666345209736       -1.52263143891497       -0.74939057171229
O            3.56331475316278       -1.30006805136031        0.14695350162413
P            2.61865468896549       -0.02505981329448        0.07252674477778
S            3.48701258371200        1.61955670670802       -0.53221523953146
O            2.09423774959899        0.11849228625414        1.55186073714504
C            1.11739840081136       -0.71198393938616        2.22239729200416
C            1.51621527741719       -2.17145455727013        2.26940749659761
S            0.94870237238855       -0.67639285856689       -1.09404593968735
C            0.28741863496234        0.96096663170047       -1.48084946458498
S           -0.50537443760377        1.78132643537411       -0.06356449313855
P           -2.34122217462781        0.71848149558059       -0.12242946330756
S           -3.10715691243619        0.33322667679816       -1.88624393378185
O           -3.12963767339310        1.71988345834348        0.81170695859716
C           -4.57309840455218        1.75253667634955        0.87374720324144
C           -5.15181007377400        0.48478430335059        1.46831027562665
O           -2.11963628072893       -0.55950814336537        0.79855292230062
C           -2.12230460013394       -1.93290646065001        0.35599427872158
C           -2.74297302415982       -2.77936776887122        1.44933259828072
H            5.08516701471058       -2.24349893887120       -2.71241157328047
H            3.55783587405846       -2.84089474959905       -2.04074392460065
H            3.67849317537389       -1.17460927787425       -2.62785196204714
H            5.24895324372631       -0.59823615163190       -0.82219359830473
H            5.25776607292713       -2.29141759714110       -0.24904242859319
H            1.06032684822986       -0.27395883931010        3.22063151190741
H            0.15508714614453       -0.58153193313955        1.72047419127874
H            1.56954443057417       -2.58311555816611        1.26281436891050
H            2.48778443574198       -2.28143464661977        2.74466905332446
H            0.77367381429843       -2.72252392389210        2.83970326370048
H           -0.44077062188672        0.83274934288367       -2.28190196465278
H            1.10701277930594        1.61070227907925       -1.79144858539099
H           -4.78643819023081        2.62328331559569        1.49568745840253
H           -4.95941741429457        1.91793742639601       -0.13719671336690
H           -6.22026200895781        0.61396225110767        1.61700295409164
H           -4.99008662315980       -0.35200913636383        0.78963089805043
H           -4.67904363611716        0.26812424229654        2.42341184071173
H           -2.68464631824193       -2.00004602579295       -0.58098824976918
H           -1.08677983927926       -2.22657859065669        0.16569433802277
H           -2.68169196790692       -3.82466292708692        1.16313932044805
H           -2.20679752434472       -2.63103940818863        2.38285652750026
H           -3.78570866697196       -2.51151823605331        1.59773879892503
41
 energy: -65.050001635686 gnorm: 0.001900780437 xtb: 6.7.1 (edcfbbe)
C            4.20489750019834       -1.97412386147266       -2.12013793505924
C            4.66489300261258       -1.52155874791293       -0.74945307738858
O            3.56531907761911       -1.29734963512480        0.15232928782241
P            2.61898876567909       -0.02349502927348        0.07539139378644
S            3.48762484994922        1.62201603669292       -0.52718860525185
O            2.09148052176448        0.12108593858165        1.55375838019403
C            1.11895455589814       -0.71294142524854        2.22727590148067
C            1.51667381817017       -2.17228998535391        2.26701109525660
S            0.95171288486428       -0.67834544201436       -1.09348429631398
C            0.29023233803380        0.95798505604248       -1.48576544564310
S           -0.50504140690198        1.77988557946749       -0.07185913401953
P           -2.34069600335487        0.71769092322529       -0.12332705836566
S           -3.11119428860493        0.33197143068319       -1.88506566276354
O           -3.12698452323616        1.71890316459703        0.81399609495399
C           -4.57086077186683        1.75267299857853        0.87494441809148
C           -5.15086066109779        0.48517276707363        1.46732202176915
O           -2.11497985253247       -0.56020885911693        0.79740251245787
C           -2.12100355463208       -1.93423386597635        0.35489179881915
C           -2.74247586557746       -2.77939451935738        1.44843771383770
H            5.07408159142033       -2.24019605633768       -2.71438923799259
H            3.54958064373523       -2.83701699509271       -2.03696678900003
H            3.66890405463162       -1.17062666048089       -2.62239963867749
H            5.24784036401014       -0.59790251169793       -0.82314869745280
H            5.25520308875782       -2.29220072353510       -0.25129553750451
H            1.06966078554662       -0.27800861831564        3.22702552985525
H            0.15439676063001       -0.57899068454978        1.73134119778757
H            1.56537649045494       -2.58076036288177        1.25923550763203
H            2.48999704943604       -2.28462991636028        2.73746643945766
H            0.77620257014765       -2.72384748011117        2.83912346999326
H           -0.43807276948071        0.82468526156904       -2.28574584066415
H            1.10847123288866        1.60834089418571       -1.79791937098315
H           -4.78241668542451        2.62286596611389        1.49817372503640
H           -4.95546875851383        1.91966287054392       -0.13619666460138
H           -6.21908193192663        0.61526516136771        1.61474368202919
H           -4.98879804144633       -0.35077261912307        0.78802089279396
H           -4.67941501776093        0.26732579888853        2.42248091842832
H           -2.68442758103937       -1.99921310811580       -0.58142409480869
H           -1.08613276178725       -2.22889562035986        0.16410088358427
H           -2.68161172418257       -3.82457556775729        1.16277334493029
H           -2.20675843742709       -2.63059152432644        2.38179687696961
H           -3.78482662788970       -2.51108055639186        1.59638688648446
41
 energy: -65.050011216902 gnorm: 0.001310402958 xtb: 6.7.1 (edcfbbe)
C            4.19897516864255       -1.97171920009717       -2.11775539362974
C            4.66480395360283       -1.52172775882452       -0.74830618721722
O            3.56930693958509       -1.29557268521308        0.15749748934767
P            2.62074102703652       -0.02306542554163        0.07826981303157
S            3.48753234686923        1.62377466167023       -0.52375959429124
O            2.09113843183268        0.12122272975240        1.55627658886282
C            1.12113061675415       -0.71393451690129        2.23104747833901
C            1.51649661546281       -2.17390904690313        2.26391291211628
S            0.95432886636319       -0.67810387273375       -1.09117687906789
C            0.28889028415895        0.95554905839290       -1.48964730077448
S           -0.50675638029006        1.78175488236402       -0.07872070210978
P           -2.34103299429096        0.71695227828565       -0.12652304764909
S           -3.11843680777769        0.32802172950566       -1.88446168803465
O           -3.12574202618846        1.71731656836583        0.81467007409813
C           -4.56935863456003        1.75243180875327        0.87620490496845
C           -5.15084629664962        0.48487905936872        1.46712723130520
O           -2.10986987622168       -0.55951020832492        0.79530090470784
C           -2.11835303504186       -1.93340699965661        0.35352624534940
C           -2.74149604061681       -2.77732770921080        1.44737707676830
H            5.06505234079999       -2.23867975391285       -2.71530443606679
H            3.54207373990769       -2.83280539980701       -2.03287385927998
H            3.66290533711633       -1.16632934584685       -2.61632504621417
H            5.24928155290078       -0.59937303375403       -0.82323658952739
H            5.25397111663736       -2.29465734996445       -0.25247979829155
H            1.07832569036281       -0.28248629770570        3.23217682678012
H            0.15468185069449       -0.57634712308952        1.73997367561731
H            1.55972886824040       -2.57882796637037        1.25483894384783
H            2.49201499550558       -2.28882036485033        2.72859383764798
H            0.77837372985844       -2.72548658750113        2.83842994949955
H           -0.43786474929578        0.81653345662641       -2.29025957897551
H            1.10692299804872        1.60564703464098       -1.80182317347763
H           -4.77885299645422        2.62183272038691        1.50120510460166
H           -4.95454577714013        1.92071842610280       -0.13421997917106
H           -6.21873423567910        0.61575437288647        1.61328781004214
H           -4.98828309003358       -0.34993786390159        0.78697273685750
H           -4.68042966477527        0.26595023303422        2.42214493439264
H           -2.68183197527619       -1.99748057137573       -0.58271005317157
H           -1.08398018533766       -2.22954935542099        0.16350451679310
H           -2.68163844046099       -3.82217481891687        1.16213992922014
H           -2.20607021998777       -2.62762984314653        2.38033872631095
H           -3.78316836253794       -2.50719644984313        1.59442848340571
41
 energy: -65.050014943888 gnorm: 0.000825051915 xtb: 6.7.1 (edcfbbe)
C            4.19841656531778       -1.97117985867431       -2.11708359343182
C            4.66447183518544       -1.52176305921895       -0.74724210844922
O            3.56928932863897       -1.29415827928015        0.15752873990807
P            2.61987959063843       -0.02214362790670        0.07761632236082
S            3.48726202390778        1.62436635830090       -0.52403142463937
O            2.09191553211021        0.12098366905042        1.55639493219472