
                                 *****************
                                 * O   R   C   A *
                                 *****************

                                            #,                                       
                                            ###                                      
                                            ####                                     
                                            #####                                    
                                            ######                                   
                                           ########,                                 
                                     ,,################,,,,,                         
                               ,,#################################,,                 
                          ,,##########################################,,             
                       ,#########################################, ''#####,          
                    ,#############################################,,   '####,        
                  ,##################################################,,,,####,       
                ,###########''''           ''''###############################       
              ,#####''   ,,,,##########,,,,          '''####'''          '####       
            ,##' ,,,,###########################,,,                        '##       
           ' ,,###''''                  '''############,,,                           
         ,,##''                                '''############,,,,        ,,,,,,###''
      ,#''                                            '''#######################'''  
     '                                                          ''''####''''         
             ,#######,   #######,   ,#######,      ##                                
            ,#'     '#,  ##    ##  ,#'     '#,    #''#        ,####,   ,####,        
            ##       ##  ##   ,#'  ##            #'  '#       #'       #'  '#        
            ##       ##  #######   ##           ,######,      #####,   #    #        
            '#,     ,#'  ##    ##  '#,     ,#' ,#      #,     #,   #   #,  ,#        
             '#######'   ##     ##  '#######'  #'      '#     '####' # '####'        



                #########################################################
                #                        -***-                          #
                #          Department of theory and spectroscopy        #
                #                                                       #
                #                      Frank Neese                      #
                #                                                       #
                #     Directorship, Architecture, Infrastructure        #
                #                    SHARK, DRIVERS                     #
                #        Core code/Algorithms in most modules           #
                #                                                       #
                #        Max Planck Institute fuer Kohlenforschung      #
                #                Kaiser Wilhelm Platz 1                 #
                #                 D-45470 Muelheim/Ruhr                 #
                #                      Germany                          #
                #                                                       #
                #                  All rights reserved                  #
                #                        -***-                          #
                #########################################################


                         Program Version 6.0.0  -   RELEASE  -


 With contributions from (in alphabetic order):
   Daniel Aravena         : Magnetic Suceptibility
   Michael Atanasov       : Ab Initio Ligand Field Theory (pilot matlab implementation)
   Alexander A. Auer      : GIAO ZORA, VPT2 properties, NMR spectrum
   Ute Becker             : All parallelization in ORCA, NUMFREQ, NUMCALC
   Giovanni Bistoni       : ED, misc. LED, open-shell LED, HFLD
   Martin Brehm           : Molecular dynamics
   Dmytro Bykov           : pre 5.0 version of the SCF Hessian
   Marcos Casanova-Páez   : Triplet and SCS-CIS(D). UHF-(DLPNO)-IP/EA/STEOM-CCSD. UHF-CVS-IP/STEOM-CCSD
   Vijay G. Chilkuri      : MRCI spin determinant printing, contributions to CSF-ICE
   Pauline Colinet        : FMM embedding
   Dipayan Datta          : RHF DLPNO-CCSD density
   Achintya Kumar Dutta   : EOM-CC, STEOM-CC
   Nicolas Foglia         : Exact transition moments, OPA infrastructure, MCD improvements
   Dmitry Ganyushin       : Spin-Orbit,Spin-Spin,Magnetic field MRCI
   Miquel Garcia          : C-PCM and meta-GGA Hessian, CCSD/C-PCM, Gaussian charge scheme
   Tiago L. C. Gouveia    : GS-ROHF, GS-ROCIS
   Yang Guo               : DLPNO-NEVPT2, F12-NEVPT2, CIM, IAO-localization
   Andreas Hansen         : Spin unrestricted coupled pair/coupled cluster methods
   Ingolf Harden          : AUTO-CI MPn and infrastructure 
   Benjamin Helmich-Paris : MC-RPA, TRAH-(SCF,CASSCF), AVAS, COSX integrals, SCF dyn. polar.
   Lee Huntington         : MR-EOM, pCC
   Robert Izsak           : Overlap fitted RIJCOSX, COSX-SCS-MP3, EOM
   Riya Kayal             : Wick's Theorem for AUTO-CI, AUTO-CI UHF-CCSDT
   Emily Kempfer          : AUTO-CI, RHF CISDT and CCSDT
   Christian Kollmar      : KDIIS, OOCD, Brueckner-CCSD(T), CCSD density, CASPT2, CASPT2-K, improved NEVPT2
   Axel Koslowski         : Symmetry handling
   Simone Kossmann        : Meta GGA functionals, TD-DFT gradient, OOMP2, (MP2 Hessian; deprecated post 5.0)
   Lucas Lang             : DCDCAS
   Marvin Lechner         : AUTO-CI (C++ implementation), FIC-MRCC
   Spencer Leger          : CASSCF response
   Dagmar Lenk            : GEPOL surface, SMD, ORCA-2-JSON
   Dimitrios Liakos       : Extrapolation schemes; Compound Job, initial MDCI parallelization
   Dimitrios Manganas     : Further ROCIS development; embedding schemes. LFT, Crystal Embedding
   Dimitrios Pantazis     : SARC Basis sets
   Anastasios Papadopoulos: AUTO-CI, single reference methods and gradients
   Taras Petrenko         : pre 6.0 DFT Hessian and TD-DFT gradient, (ASA, deprecated), ECA, 1-Electron XAS/XES, NRVS
   Peter Pinski           : DLPNO-MP2, DLPNO-MP2 Gradient
   Christoph Reimann      : Effective Core Potentials
   Marius Retegan         : Local ZFS, SOC
   Christoph Riplinger    : Optimizer, TS searches, QM/MM, DLPNO-CCSD(T), (RO)-DLPNO pert. Triples
   Michael Roemelt        : Original ROCIS implementation
   Masaaki Saitow         : Open-shell DLPNO-CCSD energy and density
   Barbara Sandhoefer     : DKH picture change effects
   Kantharuban Sivalingam : CASSCF convergence/infrastructure, NEVPT2 and variants, FIC-MRCI
   Bernardo de Souza      : ESD, SOC TD-DFT
   Georgi Stoychev        : AutoAux, RI-MP2 NMR, DLPNO-MP2 response, X2C
   Van Anh Tran           : RI-MP2 g-tensors
   Willem Van den Heuvel  : Paramagnetic NMR
   Zikuan Wang            : NOTCH, Electric field optimization 
   Frank Wennmohs         : Technical directorship and infrastructure
   Hang Xu                : AUTO-CI-Response properties 


 We gratefully acknowledge several colleagues who have allowed us to
 interface, adapt or use parts of their codes:
   Stefan Grimme, W. Hujo, H. Kruse, P. Pracht,  : VdW corrections, initial TS optimization,
                  C. Bannwarth, S. Ehlert,         DFT functionals, gCP, sTDA/sTD-DF
                  L. Wittmann, M. Mueller
   Ed Valeev, F. Pavosevic, A. Kumar             : LibInt (2-el integral package), F12 methods
   Garnet Chan, S. Sharma, J. Yang, R. Olivares  : DMRG
   Ulf Ekstrom                                   : XCFun DFT Library
   Mihaly Kallay                                 : mrcc  (arbitrary order and MRCC methods)
   Frank Weinhold                                : gennbo (NPA and NBO analysis)
   Simon Mueller                                 : openCOSMO-RS
   Christopher J. Cramer and Donald G. Truhlar   : smd solvation model
   Lars Goerigk                                  : TD-DFT with DH, B97 family of functionals
   V. Asgeirsson, H. Jonsson                     : NEB implementation
   FAccTs GmbH                                   : IRC, NEB, NEB-TS, DLPNO-Multilevel, CI-OPT
                                                   MM, QMMM, 2- and 3-layer-ONIOM, Crystal-QMMM,
                                                   LR-CPCM, SF, NACMEs, symmetry and pop. for TD-DFT,
                                                   nearIR, NL-DFT gradient (VV10), updates on ESD,
                                                   ML-optimized integration grids, MBIS, APM,
                                                   GOAT, DOCKER, SOLVATOR, interface openCOSMO-RS
   S Lehtola, MJT Oliveira, MAL Marques          : LibXC Library
   Liviu Ungur et al                             : ANISO software


 Your calculation uses the libint2 library for the computation of 2-el integrals
 For citations please refer to: http://libint.valeyev.net

 Your ORCA version has been built with support for libXC version: 6.2.2
 For citations please refer to: https://libxc.gitlab.io

 This ORCA versions uses:
   CBLAS   interface :  Fast vector & matrix operations
   LAPACKE interface :  Fast linear algebra routines
   SCALAPACK package :  Parallel linear algebra routines
   Shared memory     :  Shared parallel matrices
   BLAS/LAPACK       :  OpenBLAS 0.3.27  USE64BITINT DYNAMIC_ARCH NO_AFFINITY SkylakeX SINGLE_THREADED
        Core in use  :  SkylakeX
   Copyright (c) 2011-2014, The OpenBLAS Project


Your calculation utilizes the geometrical counterpoise correction gCP
Please cite in your paper:
H.Kruse, S. Grimme J.Chem.Phys., 136, (2012), 154101 
   

Your calculation utilizes the DFT-NL dispersion correction.
Cite in your paper:
Vydrov, O. A.; Van Voorhis, T. J. Chem. Phys. 2010, 133, 244103
Hujo, W.; Grimme, S. J. Chem. Theory Comput. 2011, 7, 3866 
   

Your calculation utilizes the SMD solvation module
Please cite in your paper:
A.V. Marenich, C.J. Cramer, D.G. Truhlar J. Phys. Chem. B, 113, (2009), 6378 

================================================================================

----- Orbital basis set information -----
Your calculation utilizes the basis: def2-TZVP
   F. Weigend and R. Ahlrichs, Phys. Chem. Chem. Phys. 7, 3297 (2005).

----- AuxJ basis set information -----
Your calculation utilizes the auxiliary basis: def2/J
   F. Weigend, Phys. Chem. Chem. Phys. 8, 1057 (2006).

================================================================================
                                        WARNINGS
                       Please study these warnings very carefully!
================================================================================


================================================================================
                                       INPUT FILE
================================================================================
NAME = sp_solv.inp
|  1> ! wb97x-v def2-tzvp def2/J RIJCOSX DEFGRID2 scfconv7 GCP(DFT/TZ) printgap
|  2> %output
|  3>     printlevel normal
|  4> end
|  5> %cpcm
|  6>     smd true
|  7>     smdsolvent "water"
|  8> end
|  9> * xyz 0 1
| 10> C -1.1010367379518047 0.1916773613459859 0.0023206064035483243
| 11> C -0.19169574132584757 -1.1011679072732743 -0.0024137102494494727
| 12> C 1.1010441448631245 -0.19167515158261134 0.0024517432119257614
| 13> C 0.19170318040661732 1.101171115239047 -0.0023591361038150017
| 14> F 0.32083721566640333 1.853196659391283 -1.1064693266922356
| 15> F 0.32290702521113424 1.8654816164153893 1.0927993337884427
| 16> F 1.86544515523603 -0.3229358399299956 -1.0926300413528087
| 17> F 1.853002219295499 -0.32075520724103296 1.1066064142048648
| 18> F -0.3230409443506544 -1.865504712478931 1.0927102330079055
| 19> F -0.3206857016495822 -1.8531676994446364 -1.10655803411582
| 20> F -1.8531296170312113 0.32072414836578156 1.1063888634889005
| 21> F -1.865304560303616 0.3229702440780804 -1.092849981263482
| 22> *
| 23> 
| 24>                          ****END OF INPUT****
================================================================================

                       ****************************
                       * Single Point Calculation *
                       ****************************

---------------------------------
CARTESIAN COORDINATES (ANGSTROEM)
---------------------------------
  C     -1.101037    0.191677    0.002321
  C     -0.191696   -1.101168   -0.002414
  C      1.101044   -0.191675    0.002452
  C      0.191703    1.101171   -0.002359
  F      0.320837    1.853197   -1.106469
  F      0.322907    1.865482    1.092799
  F      1.865445   -0.322936   -1.092630
  F      1.853002   -0.320755    1.106606
  F     -0.323041   -1.865505    1.092710
  F     -0.320686   -1.853168   -1.106558
  F     -1.853130    0.320724    1.106389
  F     -1.865305    0.322970   -1.092850

----------------------------
CARTESIAN COORDINATES (A.U.)
----------------------------
  NO LB      ZA    FRAG     MASS         X           Y           Z
   0 C     6.0000    0    12.011   -2.080658    0.362218    0.004385
   1 C     6.0000    0    12.011   -0.362252   -2.080906   -0.004561
   2 C     6.0000    0    12.011    2.080672   -0.362214    0.004633
   3 C     6.0000    0    12.011    0.362267    2.080912   -0.004458
   4 F     9.0000    0    18.998    0.606294    3.502034   -2.090924
   5 F     9.0000    0    18.998    0.610206    3.525249    2.065091
   6 F     9.0000    0    18.998    3.525180   -0.610260   -2.064772
   7 F     9.0000    0    18.998    3.501667   -0.606139    2.091183
   8 F     9.0000    0    18.998   -0.610459   -3.525293    2.064923
   9 F     9.0000    0    18.998   -0.606008   -3.501979   -2.091092
  10 F     9.0000    0    18.998   -3.501907    0.606081    2.090772
  11 F     9.0000    0    18.998   -3.524915    0.610325   -2.065187

--------------------------------
INTERNAL COORDINATES (ANGSTROEM)
--------------------------------
 C      0   0   0     0.000000000000     0.00000000     0.00000000
 C      1   0   0     1.580624038312     0.00000000     0.00000000
 C      2   1   0     1.580625559276    89.99277456     0.00000000
 C      3   2   1     1.580625067444    90.00618215   359.65399893
 F      4   3   2     1.342116735266   113.92002117   244.15270587
 F      4   3   2     1.341922898410   114.02479729   116.68360209
 F      3   2   1     1.341917429595   114.02207464   243.31316491
 F      3   2   1     1.342110332256   113.91785186   115.85073611
 F      2   1   3     1.341923531817   114.02446793   116.33762379
 F      2   1   3     1.342116531906   113.92041364   243.80676718
 F      1   2   3     1.342111578188   113.79713659   244.04124154
 F      1   2   3     1.341917188738   113.90603604   116.79098504

---------------------------
INTERNAL COORDINATES (A.U.)
---------------------------
 C      0   0   0     0.000000000000     0.00000000     0.00000000
 C      1   0   0     2.986946553103     0.00000000     0.00000000
 C      2   1   0     2.986949427307    89.99277456     0.00000000
 C      3   2   1     2.986948497880    90.00618215   359.65399893
 F      4   3   2     2.536233069405   113.92002117   244.15270587
 F      4   3   2     2.535866770832   114.02479729   116.68360209
 F      3   2   1     2.535856436270   114.02207464   243.31316491
 F      3   2   1     2.536220969470   113.91785186   115.85073611
 F      2   1   3     2.535867967799   114.02446793   116.33762379
 F      2   1   3     2.536232685111   113.92041364   243.80676718
 F      1   2   3     2.536223323940   113.79713659   244.04124154
 F      1   2   3     2.535855981116   113.90603604   116.79098504

---------------------
BASIS SET INFORMATION
---------------------
There are 2 groups of distinct atoms

 Group   1 Type C   : 11s6p2d1f contracted to 5s3p2d1f pattern {62111/411/11/1}
 Group   2 Type F   : 11s6p2d1f contracted to 5s3p2d1f pattern {62111/411/11/1}

Atom   0C    basis set group =>   1
Atom   1C    basis set group =>   1
Atom   2C    basis set group =>   1
Atom   3C    basis set group =>   1
Atom   4F    basis set group =>   2
Atom   5F    basis set group =>   2
Atom   6F    basis set group =>   2
Atom   7F    basis set group =>   2
Atom   8F    basis set group =>   2
Atom   9F    basis set group =>   2
Atom  10F    basis set group =>   2
Atom  11F    basis set group =>   2
---------------------------------
AUXILIARY/J BASIS SET INFORMATION
---------------------------------
There are 2 groups of distinct atoms

 Group   1 Type C   : 12s5p4d2f1g contracted to 6s4p3d1f1g pattern {711111/2111/211/2/1}
 Group   2 Type F   : 12s5p4d2f1g contracted to 6s4p3d1f1g pattern {711111/2111/211/2/1}

Atom   0C    basis set group =>   1
Atom   1C    basis set group =>   1
Atom   2C    basis set group =>   1
Atom   3C    basis set group =>   1
Atom   4F    basis set group =>   2
Atom   5F    basis set group =>   2
Atom   6F    basis set group =>   2
Atom   7F    basis set group =>   2
Atom   8F    basis set group =>   2
Atom   9F    basis set group =>   2
Atom  10F    basis set group =>   2
Atom  11F    basis set group =>   2

Checking for AutoStart:
The File: sp_solv.gbw exists
Trying to determine its content:
     ... Fine, the file contains calculation information
     ... Fine, the calculation information was read
     ... Fine, the file contains a basis set
     ... Fine, the basis set was read
     ... Fine, the file contains a geometry
     ... Fine, the geometry was read
     ... Fine, the file contains a set of orbitals
     ... Fine, the orbitals can be read
     => possible old guess file was deleted
     => GBW file was renamed to GES file
     => GES file is set as startup file
     => Guess is set to MORead
     ... now leaving AutoStart

------------------------------------------------------------------------------
                             ORCA STARTUP CALCULATIONS
                           -- RI-GTO INTEGRALS CHOSEN --
------------------------------------------------------------------------------
------------------------------------------------------------------------------
                   ___                                                        
                  /   \      - P O W E R E D   B Y -                         
                 /     \                                                     
                 |  |  |   _    _      __       _____    __    __             
                 |  |  |  | |  | |    /  \     |  _  \  |  |  /  |          
                  \  \/   | |  | |   /    \    | | | |  |  | /  /          
                 / \  \   | |__| |  /  /\  \   | |_| |  |  |/  /          
                |  |  |   |  __  | /  /__\  \  |    /   |      \           
                |  |  |   | |  | | |   __   |  |    \   |  |\   \          
                \     /   | |  | | |  |  |  |  | |\  \  |  | \   \       
                 \___/    |_|  |_| |__|  |__|  |_| \__\ |__|  \__/        
                                                                              
                      - O R C A' S   B I G   F R I E N D -                    
                                      &                                       
                       - I N T E G R A L  F E E D E R -                       
                                                                              
 v1 FN, 2020, v2 2021, v3 2022-2024                                           
------------------------------------------------------------------------------


----------------------
SHARK INTEGRAL PACKAGE
----------------------

Number of atoms                             ...     12
Number of basis functions                   ...    372
Number of shells                            ...    132
Maximum angular momentum                    ...      3
Integral batch strategy                     ... SHARK/LIBINT Hybrid
RI-J (if used) integral strategy            ... SPLIT-RIJ (Revised 2003 algorithm where possible)
Printlevel                                  ...      1
Contraction scheme used                     ... SEGMENTED contraction
Prescreening option                         ... SCHWARTZ
   Thresh                                   ... 3.000e-11
   Tcut                                     ... 1.000e-12
   Tpresel                                  ... 1.000e-12 
Coulomb Range Separation                    ... NOT USED
Exchange Range Separation                   ... Long Range
   Mu parameter                             ... 3.000e-01
   Scaling (regular/separated)              ... 1.670e-01 8.330e-01
Multipole approximations                    ... NOT USED
Finite Nucleus Model                        ... NOT USED
CABS basis                                  ... NOT available
Auxiliary Coulomb fitting basis             ... AVAILABLE
   # of basis functions in Aux-J            ...    588
   # of shells in Aux-J                     ...    180
   Maximum angular momentum in Aux-J        ...      4
Auxiliary J/K fitting basis                 ... NOT available
Auxiliary Correlation fitting basis         ... NOT available
Auxiliary 'external' fitting basis          ... NOT available

Checking pre-screening integrals            ... done (  0.0 sec) Dimension = 132
Check shell pair data                       ... done (  0.0 sec)
Shell pair information
Shell pair cut-off parameter TPreSel        ...   1.0e-12
Total number of shell pairs                 ...      8778
Shell pairs after pre-screening             ...      7460
Total number of primitive shell pairs       ...     29184
Primitive shell pairs kept                  ...     17230
          la=0 lb=0:   1412 shell pairs
          la=1 lb=0:   1920 shell pairs
          la=1 lb=1:    642 shell pairs
          la=2 lb=0:   1152 shell pairs
          la=2 lb=1:    816 shell pairs
          la=2 lb=2:    264 shell pairs
          la=3 lb=0:    552 shell pairs
          la=3 lb=1:    392 shell pairs
          la=3 lb=2:    248 shell pairs
          la=3 lb=3:     62 shell pairs

Calculating one electron integrals          ... done (  0.0 sec)
Calculating RI/J V-Matrix + Cholesky decomp.... done (  0.4 sec)
Calculating Nuclear repulsion               ... done (  0.0 sec) ENN=    883.713148560891 Eh

Diagonalization of the overlap matrix:
Smallest eigenvalue                        ... 1.729e-05
Time for diagonalization                   ...    0.015 sec
Threshold for overlap eigenvalues          ... 1.000e-07
Number of eigenvalues below threshold      ... 0
Time for construction of square roots      ...    0.026 sec
Total time needed                          ...    0.062 sec

-------------------
DFT GRID GENERATION
-------------------

General Integration Accuracy     IntAcc      ... 4.388
Radial Grid Type                 RadialGrid  ... OptM3 with GC (2021)
Angular Grid (max. ang.)         AngularGrid ... 4 (Lebedev-302)
Angular grid pruning method      GridPruning ... 4 (adaptive)
Weight generation scheme         WeightScheme... mBecke (2022)
Basis function cutoff            BFCut       ... 1.0000e-11
Integration weight cutoff        WCut        ... 1.0000e-14
Partially contracted basis set               ... off
Rotationally invariant grid construction     ... off
Angular grids for H and He will be reduced by one unit

Total number of grid points                  ...    72920
Total number of batches                      ...     1148
Average number of points per batch           ...       63
Average number of grid points per atom       ...     6077

--------------------
COSX GRID GENERATION
--------------------

GRIDX 1
-------
General Integration Accuracy     IntAcc      ... 3.816
Radial Grid Type                 RadialGrid  ... OptM3 with GC (2021)
Angular Grid (max. ang.)         AngularGrid ... 1 (Lebedev-50)
Angular grid pruning method      GridPruning ... 4 (adaptive)
Weight generation scheme         WeightScheme... mBecke (2022)
Basis function cutoff            BFCut       ... 1.0000e-11
Integration weight cutoff        WCut        ... 1.0000e-14
Partially contracted basis set               ... on
Rotationally invariant grid construction     ... off
Angular grids for H and He will be reduced by one unit

Total number of grid points                  ...     9144
Total number of batches                      ...       76
Average number of points per batch           ...      120
Average number of grid points per atom       ...      762
UseSFitting                                  ... on

GRIDX 2
-------
General Integration Accuracy     IntAcc      ... 4.020
Radial Grid Type                 RadialGrid  ... OptM3 with GC (2021)
Angular Grid (max. ang.)         AngularGrid ... 2 (Lebedev-110)
Angular grid pruning method      GridPruning ... 4 (adaptive)
Weight generation scheme         WeightScheme... mBecke (2022)
Basis function cutoff            BFCut       ... 1.0000e-11
Integration weight cutoff        WCut        ... 1.0000e-14
Partially contracted basis set               ... on
Rotationally invariant grid construction     ... off
Angular grids for H and He will be reduced by one unit

Total number of grid points                  ...    21912
Total number of batches                      ...      180
Average number of points per batch           ...      121
Average number of grid points per atom       ...     1826
UseSFitting                                  ... on

GRIDX 3
-------
General Integration Accuracy     IntAcc      ... 4.338
Radial Grid Type                 RadialGrid  ... OptM3 with GC (2021)
Angular Grid (max. ang.)         AngularGrid ... 3 (Lebedev-194)
Angular grid pruning method      GridPruning ... 4 (adaptive)
Weight generation scheme         WeightScheme... mBecke (2022)
Basis function cutoff            BFCut       ... 1.0000e-11
Integration weight cutoff        WCut        ... 1.0000e-14
Partially contracted basis set               ... on
Rotationally invariant grid construction     ... off
Angular grids for H and He will be reduced by one unit

Total number of grid points                  ...    48660
Total number of batches                      ...      384
Average number of points per batch           ...      126
Average number of grid points per atom       ...     4055
UseSFitting                                  ... on
Initializing property integral containers    ... done (  0.0 sec)

SHARK setup successfully completed in   4.4 seconds

Maximum memory used throughout the entire STARTUP-calculation: 51.0 MB
-------------------------------------------------------------------------------
                                 ORCA GUESS
                   Start orbitals & Density for SCF / CASSCF
-------------------------------------------------------------------------------

------------
SCF SETTINGS
------------
Hamiltonian:
 Density Functional     Method          .... DFT(GTOs)
 Exchange Functional    Exchange        .... WB97X-V
 Correlation Functional Correlation     .... WB97X-V
 Gradients option       PostSCFGGA      .... off
 Hybrid DFT is turned on
   Fraction HF Exchange ScalHFX         ....  0.167000
   Scaling of DF-GGA-X  ScalDFX         ....  0.000000
   Scaling of DF-GGA-C  ScalDFC         ....  1.000000
   Scaling of DF-LDA-C  ScalLDAC        ....  1.000000
   Perturbative correction              ....  0.000000
 Long-range corrected/Screened/Range-Separated Hybrid DFT is turned on
   Amount of maximum screened exact exchange              ....  0.833000
   Range separation parameter mu (erf(mu*r12)/r12)        ....  0.300000
   NL short-range parameter             ....  6.000000
   NL long-range parameter              ....  0.010000
 RI-approximation to the Coulomb term is turned on
   Number of AuxJ basis functions       .... 588
   RIJ-COSX (HFX calculated with COS-X)).... on


General Settings:
 Integral files         IntName         .... sp_solv
 Hartree-Fock type      HFTyp           .... RHF
 Total Charge           Charge          ....    0
 Multiplicity           Mult            ....    1
 Number of Electrons    NEL             ....   96
 Basis Dimension        Dim             ....  372
 Nuclear Repulsion      ENuc            ....    883.7131485609 Eh

Convergence Acceleration:
 AO-DIIS                CNVDIIS         .... on
   Start iteration      DIISMaxIt       ....    12
   Startup error        DIISStart       ....  0.200000
   # of expansion vecs  DIISMaxEq       ....     5
   Bias factor          DIISBfac        ....   1.050
   Max. coefficient     DIISMaxC        ....  10.000
 MO-DIIS                CNVKDIIS        .... off
 Trust-Rad. Augm. Hess. CNVTRAH         .... auto
   Auto Start mean grad. ratio tolernc. ....  1.125000
   Auto Start start iteration           ....     1
   Auto Start num. interpolation iter.  ....    10
   Max. Number of Micro iterations      ....    24
   Max. Number of Macro iterations      .... Maxiter - #DIIS iter
   Number of Davidson start vectors     ....     2
   Converg. threshold    (grad. norm)   ....   1.000e-04
   Grad. Scal. Fac. for Micro threshold ....   0.100
   Minimum threshold for Micro iter.    ....   1.000e-02
   NR start threshold (gradient norm)   ....   1.000e-04
   Initial trust radius                 ....   0.400
   Minimum AH scaling param. (alpha)    ....   1.000
   Maximum AH scaling param. (alpha)    .... 1000.000
   Quad. conv. algorithm                .... NR
   White noise on init. David. guess    .... on
   Maximum white noise                  ....   0.010
   Pseudo random numbers                .... off
   Inactive MOs                         .... canonical
   Orbital update algorithm             .... Taylor
   Preconditioner                       .... Diag
   Full preconditioner red. dimension   ....   250
 SOSCF                  CNVSOSCF        .... on
   Start iteration      SOSCFMaxIt      ....   150
   Startup grad/error   SOSCFStart      ....  0.003300
   Hessian update       SOSCFHessUp     .... L-BFGS
 Level Shifting         CNVShift        .... on
   Level shift para.    LevelShift      ....    0.2500
   Turn off err/grad.   ShiftErr        ....    0.0010
 Zerner damping         CNVZerner       .... off
 Static damping         CNVDamp         .... on
   Fraction old density DampFac         ....    0.7000
   Max. Damping (<1)    DampMax         ....    0.9800
   Min. Damping (>=0)   DampMin         ....    0.0000
   Turn off err/grad.   DampErr         ....    0.1000

SCF Procedure:
 Maximum # iterations   MaxIter         ....   125
 SCF integral mode      SCFMode         .... Direct
   Integral package                     .... SHARK and LIBINT hybrid scheme
 Reset frequency        DirectResetFreq ....    20
 Integral Threshold     Thresh          ....  3.000e-11 Eh
 Primitive CutOff       TCut            ....  1.000e-12 Eh

Convergence Tolerance:
 Convergence Check Mode ConvCheckMode   .... Total+1el-Energy
 Convergence forced     ConvForced      .... 0
 Energy Change          TolE            ....  1.000e-07 Eh
 1-El. energy change                    ....  1.000e-04 Eh
 Orbital Gradient       TolG            ....  1.000e-04
 Orbital Rotation angle TolX            ....  1.000e-04
 DIIS Error             TolErr          ....  1.000e-07

---------------------
INITIAL GUESS: MOREAD
---------------------
Guess MOs are being read from file: sp_solv.ges
Input Geometry matches current geometry (good)
Atom 0: N(Shells)= 11 and 9 - projection required
Input basis set needs projection
NBasis(read)= 268
NBasis(calc)= 372
Basis set overlap was calculated
Using GuessMode=FMatrix for the initial guess
C*T matrix was formed
Effective Fockian was calculated
Effective Fockian was diagonalized
Initial density was built
                      ------------------
                      INITIAL GUESS DONE (   0.1 sec)
                      ------------------
             **** ENERGY FILE WAS UPDATED (sp_solv.en.tmp) ****
Finished Guess after   1.7 sec
Maximum memory used throughout the entire GUESS-calculation: 37.6 MB

-------------------------------------------------------------------------------------------
                                      ORCA LEAN-SCF
                              memory conserving SCF solver
-------------------------------------------------------------------------------------------

--------------------
CPCM SOLVATION MODEL
--------------------
CPCM parameters:
  Epsilon                                         ...      78.3550
  Refrac                                          ...       1.3328
  Rsolv                                           ...       1.3000
  Surface type                                    ... GAUSSIAN VDW
  Discretization scheme                           ... Constant charge density
    Threshold for H atoms                         ...       5.0000 (charges/Ang^2)
    Threshold for non-H atoms                     ...       5.0000 (charges/Ang^2)
  Epsilon function type                           ...         CPCM
Solvent:                                          ... WATER
SMD-CDS solvent descriptors:
  Soln                                            ...       1.3328
  Soln25                                          ...       1.3323
  Sola                                            ...       0.0000
  Solb                                            ...       0.0000
  Solg                                            ...       0.0000
  Solc                                            ...       0.0000
  Solh                                            ...       0.0000
Radii:
  Scheme                                          ... Element-dependent radii
  Radius for C  used is    3.4960 Bohr (=   1.8500 Ang.)
  Radius for F  used is    3.2692 Bohr (=   1.7300 Ang.)
Calculating surface                               ...        done! (  0.0s)
Cavity surface points                             ...         1116
Cavity Volume                                     ...     989.0380
Cavity Surface-area                               ...     585.8968
Calculating surface distance matrix               ...        done! (  0.0s)
Performing Cholesky decomposition & store         ...        done! (  0.1s)
Overall time for CPCM initialization              ...                 0.1s

----------------------------------------D-I-I-S--------------------------------------------
Iteration    Energy (Eh)           Delta-E    RMSDP     MaxDP     DIISErr   Damp  Time(sec)
-------------------------------------------------------------------------------------------
               ***  Starting incremental Fock matrix formation  ***
    1    -951.5974632734721581     0.00e+00  1.27e-03  7.50e-02  5.64e-02  0.700  24.6
    2    -951.6055534466734116    -8.09e-03  1.12e-03  6.82e-02  3.94e-02  0.700  12.7
                               ***Turning on AO-DIIS***
    3    -951.6115256376172056    -5.97e-03  9.07e-04  5.60e-02  2.74e-02  0.700  12.2
    4    -951.6158645735561095    -4.34e-03  2.25e-03  1.40e-01  1.91e-02  0.000  11.8
                              *** Initializing SOSCF ***
---------------------------------------S-O-S-C-F--------------------------------------
Iteration    Energy (Eh)           Delta-E    RMSDP     MaxDP     MaxGrad    Time(sec)
--------------------------------------------------------------------------------------
    5    -951.6266845704051320    -1.08e-02  7.83e-05  5.14e-03  6.09e-04    11.9
               *** Restarting incremental Fock matrix formation ***
    6    -951.6267062945873931    -2.17e-05  2.18e-05  1.25e-03  6.43e-04    24.4
    7    -951.6267113058750056    -5.01e-06  1.98e-05  1.27e-03  1.91e-04    19.6
    8    -951.6267116869762503    -3.81e-07  9.97e-06  6.50e-04  1.57e-04    19.1
    9    -951.6267121375849456    -4.51e-07  1.17e-05  8.25e-04  1.04e-05    17.6
                  *** Gradient check signals convergence ***

               *****************************************************
               *                     SUCCESS                       *
               *           SCF CONVERGED AFTER   9 CYCLES          *
               *****************************************************


------------------
NL GRID GENERATION
------------------

General Integration Accuracy     IntAcc      ... 4.004
Radial Grid Type                 RadialGrid  ... OptM3 with GC (2021)
Angular Grid (max. ang.)         AngularGrid ... 2 (Lebedev-110)
Angular grid pruning method      GridPruning ... 4 (adaptive)
Weight generation scheme         WeightScheme... mBecke (2022)
Basis function cutoff            BFCut       ... 1.0000e-10
Integration weight cutoff        WCut        ... 1.0000e-14
Partially contracted basis set               ... off
Rotationally invariant grid construction     ... off
Angular grids for H and He will be reduced by one unit

Total number of grid points                  ...    25864
Total number of batches                      ...      408
Average number of points per batch           ...       63
Average number of grid points per atom       ...     2155
Final grid set up in    0.2 sec

-------------------------------------------------------------------------------
                    post-SCF DFT-NL dispersion correction                      
-------------------------------------------------------------------------------

SCF Energy:     -951.626712138 
NL    Energy:      0.382534778 
SC+NL Energy:   -951.244177359 
NL done in  :              3.1 sec
-------------------------------------------------------------------------------
Recomputing exchange energy using gridx3       ... done (   45.307 sec)
Old exchange energy                            :    -29.785694395 Eh
New exchange energy                            :    -29.785711486 Eh
Exchange energy change after final integration :     -0.000017091 Eh
Total energy after final integration           :   -951.244194450 Eh

SMD CDS free energy correction energy :                 6.78590     Kcal/mol
Total Energy after SMD CDS correction =              -951.233380426 Eh
             **** ENERGY FILE WAS UPDATED (sp_solv.en.tmp) ****

----------------
TOTAL SCF ENERGY
----------------

Total Energy       :       -951.23338042568105 Eh          -25884.37622 eV

Components:
Nuclear Repulsion  :        883.71314856089111 Eh           24047.05730 eV
Electronic Energy  :      -1835.33264467424124 Eh          -49941.94026 eV
One Electron Energy:      -3077.60278268666980 Eh          -83745.82927 eV
Two Electron Energy:       1242.27013801242856 Eh           33803.88901 eV
CPCM Dielectric    :         -0.00721602423480 Eh              -0.19636 eV
SMD CDS (Gcds)     :          0.01081402432283 Eh               0.29426 eV

Virial components:
Potential Energy   :      -1899.60027042888873 Eh          -51690.75127 eV
Kinetic Energy     :        948.36689000320769 Eh           25806.37505 eV
Virial Ratio       :          2.00302255430118

DFT components:
N(Alpha)           :       48.000007625846 electrons
N(Beta)            :       48.000007625846 electrons
N(Total)           :       96.000015251692 electrons
E(X)               :      -71.378054676351 Eh       
E(C)               :       -4.404342825383 Eh       
NL Energy, E(C,NL) :        0.382534778214 Eh       
E(XC)              :      -75.399862723520 Eh       

CPCM Solvation Model Properties:
Surface-charge          :         -0.00856103849260
Corrected charge        :         -0.00000000000000
Outlying charge corr.   :          0.00000558137904 Eh               0.00015 eV
Free-energy (cav+disp)  :          0.01081402432283 Eh               0.29426 eV

---------------
SCF CONVERGENCE
---------------

  Last Energy change         ...    4.5061e-07  Tolerance :   1.0000e-07
  Last MAX-Density change    ...    8.2455e-04  Tolerance :   1.0000e-05
  Last RMS-Density change    ...    1.1662e-05  Tolerance :   1.0000e-06
  Last DIIS Error            ...    6.0898e-04  Tolerance :   1.0000e-07
  Last Orbital Gradient      ...    1.0368e-05  Tolerance :   1.0000e-04
  Last Orbital Rotation      ...    1.2036e-05  Tolerance :   1.0000e-04


----------------
ORBITAL ENERGIES
----------------

  NO   OCC          E(Eh)            E(eV) 
   0   2.0000     -27.621682      -751.6242 
   1   2.0000     -27.621633      -751.6228 
   2   2.0000     -27.621626      -751.6227 
   3   2.0000     -27.621620      -751.6225 
   4   2.0000     -27.621583      -751.6215 
   5   2.0000     -27.621576      -751.6213 
   6   2.0000     -27.621562      -751.6209 
   7   2.0000     -27.621519      -751.6197 
   8   2.0000     -12.268067      -333.8311 
   9   2.0000     -12.267656      -333.8199 
  10   2.0000     -12.267655      -333.8199 
  11   2.0000     -12.265669      -333.7658 
  12   2.0000      -2.068783       -56.2944 
  13   2.0000      -2.064469       -56.1770 
  14   2.0000      -2.064468       -56.1770 
  15   2.0000      -2.059492       -56.0416 
  16   2.0000      -2.035377       -55.3854 
  17   2.0000      -2.033023       -55.3214 
  18   2.0000      -2.033020       -55.3213 
  19   2.0000      -2.031141       -55.2702 
  20   2.0000      -1.478619       -40.2353 
  21   2.0000      -1.376802       -37.4647 
  22   2.0000      -1.376798       -37.4646 
  23   2.0000      -1.341189       -36.4956 
  24   2.0000      -1.277309       -34.7573 
  25   2.0000      -1.267262       -34.4840 
  26   2.0000      -1.267261       -34.4839 
  27   2.0000      -1.266830       -34.4722 
  28   2.0000      -1.259068       -34.2610 
  29   2.0000      -1.225565       -33.3493 
  30   2.0000      -1.217639       -33.1336 
  31   2.0000      -1.217629       -33.1334 
  32   2.0000      -1.187039       -32.3010 
  33   2.0000      -1.186428       -32.2843 
  34   2.0000      -1.184021       -32.2189 
  35   2.0000      -1.184021       -32.2188 
  36   2.0000      -1.179017       -32.0827 
  37   2.0000      -1.178474       -32.0679 
  38   2.0000      -1.177738       -32.0479 
  39   2.0000      -1.177735       -32.0478 
  40   2.0000      -1.172271       -31.8991 
  41   2.0000      -1.170449       -31.8495 
  42   2.0000      -1.170444       -31.8494 
  43   2.0000      -1.164622       -31.6910 
  44   2.0000      -1.152494       -31.3610 
  45   2.0000      -1.006841       -27.3975 
  46   2.0000      -1.006791       -27.3962 
  47   2.0000      -0.901601       -24.5338 
  48   0.0000      -0.403372       -10.9763 
  49   0.0000      -0.330776        -9.0009 
  50   0.0000      -0.290390        -7.9019 
  51   0.0000      -0.242374        -6.5953 
  52   0.0000      -0.242350        -6.5947 
  53   0.0000      -0.212283        -5.7765 
  54   0.0000      -0.212264        -5.7760 
  55   0.0000      -0.196206        -5.3390 
  56   0.0000      -0.196170        -5.3380 
  57   0.0000      -0.121728        -3.3124 
  58   0.0000      -0.044316        -1.2059 
*Only the first 10 virtual orbitals were printed.

                    ********************************
                    * MULLIKEN POPULATION ANALYSIS *
                    ********************************

-----------------------
MULLIKEN ATOMIC CHARGES
-----------------------
   0 C :    0.307034
   1 C :    0.307269
   2 C :    0.307054
   3 C :    0.307248
   4 F :   -0.153526
   5 F :   -0.153624
   6 F :   -0.153627
   7 F :   -0.153527
   8 F :   -0.153623
   9 F :   -0.153525
  10 F :   -0.153527
  11 F :   -0.153626
Sum of atomic charges:    0.0000000

--------------------------------
MULLIKEN REDUCED ORBITAL CHARGES
--------------------------------
  0 C s       :     3.017879  s :     3.017879
      pz      :     0.588150  p :     2.388514
      px      :     0.815598
      py      :     0.984766
      dz2     :     0.075474  d :     0.259784
      dxz     :     0.048383
      dyz     :     0.054818
      dx2y2   :     0.031292
      dxy     :     0.049816
      f0      :     0.006095  f :     0.026789
      f+1     :     0.004175
      f-1     :     0.003473
      f+2     :     0.004011
      f-2     :     0.004993
      f+3     :     0.002002
      f-3     :     0.002040

  1 C s       :     3.017599  s :     3.017599
      pz      :     0.588138  p :     2.388565
      px      :     0.984804
      py      :     0.815622
      dz2     :     0.075472  d :     0.259780
      dxz     :     0.054817
      dyz     :     0.048387
      dx2y2   :     0.031286
      dxy     :     0.049819
      f0      :     0.006094  f :     0.026788
      f+1     :     0.003473
      f-1     :     0.004175
      f+2     :     0.004011
      f-2     :     0.004993
      f+3     :     0.002040
      f-3     :     0.002001

  2 C s       :     3.017857  s :     3.017857
      pz      :     0.588149  p :     2.388515
      px      :     0.815597
      py      :     0.984769
      dz2     :     0.075473  d :     0.259785
      dxz     :     0.048383
      dyz     :     0.054818
      dx2y2   :     0.031293
      dxy     :     0.049818
      f0      :     0.006094  f :     0.026789
      f+1     :     0.004175
      f-1     :     0.003473
      f+2     :     0.004011
      f-2     :     0.004993
      f+3     :     0.002002
      f-3     :     0.002040

  3 C s       :     3.017613  s :     3.017613
      pz      :     0.588136  p :     2.388566
      px      :     0.984804
      py      :     0.815626
      dz2     :     0.075475  d :     0.259785
      dxz     :     0.054816
      dyz     :     0.048388
      dx2y2   :     0.031285
      dxy     :     0.049821
      f0      :     0.006094  f :     0.026788
      f+1     :     0.003473
      f-1     :     0.004175
      f+2     :     0.004011
      f-2     :     0.004993
      f+3     :     0.002040
      f-3     :     0.002001

  4 F s       :     3.902783  s :     3.902783
      pz      :     1.592844  p :     5.233474
      px      :     1.900396
      py      :     1.740234
      dz2     :     0.004532  d :     0.016545
      dxz     :     0.002656
      dyz     :     0.006435
      dx2y2   :     0.001501
      dxy     :     0.001421
      f0      :     0.000124  f :     0.000725
      f+1     :     0.000062
      f-1     :     0.000268
      f+2     :     0.000128
      f-2     :     0.000102
      f+3     :     0.000021
      f-3     :     0.000020

  5 F s       :     3.902760  s :     3.902760
      pz      :     1.597678  p :     5.233591
      px      :     1.900165
      py      :     1.735748
      dz2     :     0.004421  d :     0.016548
      dxz     :     0.002619
      dyz     :     0.006485
      dx2y2   :     0.001559
      dxy     :     0.001463
      f0      :     0.000120  f :     0.000725
      f+1     :     0.000059
      f-1     :     0.000267
      f+2     :     0.000132
      f-2     :     0.000103
      f+3     :     0.000022
      f-3     :     0.000021

  6 F s       :     3.902754  s :     3.902754
      pz      :     1.597726  p :     5.233599
      px      :     1.735713
      py      :     1.900160
      dz2     :     0.004420  d :     0.016548
      dxz     :     0.006486
      dyz     :     0.002619
      dx2y2   :     0.001559
      dxy     :     0.001463
      f0      :     0.000120  f :     0.000725
      f+1     :     0.000267
      f-1     :     0.000059
      f+2     :     0.000132
      f-2     :     0.000103
      f+3     :     0.000021
      f-3     :     0.000022

  7 F s       :     3.902772  s :     3.902772
      pz      :     1.592826  p :     5.233486
      px      :     1.740260
      py      :     1.900400
      dz2     :     0.004532  d :     0.016545
      dxz     :     0.006435
      dyz     :     0.002656
      dx2y2   :     0.001501
      dxy     :     0.001421
      f0      :     0.000124  f :     0.000725
      f+1     :     0.000268
      f-1     :     0.000062
      f+2     :     0.000128
      f-2     :     0.000102
      f+3     :     0.000020
      f-3     :     0.000021

  8 F s       :     3.902762  s :     3.902762
      pz      :     1.597697  p :     5.233589
      px      :     1.900155
      py      :     1.735738
      dz2     :     0.004421  d :     0.016548
      dxz     :     0.002619
      dyz     :     0.006485
      dx2y2   :     0.001559
      dxy     :     0.001463
      f0      :     0.000120  f :     0.000725
      f+1     :     0.000059
      f-1     :     0.000267
      f+2     :     0.000132
      f-2     :     0.000103
      f+3     :     0.000022
      f-3     :     0.000021

  9 F s       :     3.902781  s :     3.902781
      pz      :     1.592825  p :     5.233474
      px      :     1.900406
      py      :     1.740243
      dz2     :     0.004532  d :     0.016545
      dxz     :     0.002656
      dyz     :     0.006435
      dx2y2   :     0.001501
      dxy     :     0.001421
      f0      :     0.000124  f :     0.000725
      f+1     :     0.000062
      f-1     :     0.000268
      f+2     :     0.000128
      f-2     :     0.000102
      f+3     :     0.000021
      f-3     :     0.000020

 10 F s       :     3.902771  s :     3.902771
      pz      :     1.592874  p :     5.233486
      px      :     1.740210
      py      :     1.900402
      dz2     :     0.004531  d :     0.016545
      dxz     :     0.006435
      dyz     :     0.002656
      dx2y2   :     0.001502
      dxy     :     0.001421
      f0      :     0.000124  f :     0.000725
      f+1     :     0.000268
      f-1     :     0.000062
      f+2     :     0.000128
      f-2     :     0.000102
      f+3     :     0.000020
      f-3     :     0.000021

 11 F s       :     3.902752  s :     3.902752
      pz      :     1.597678  p :     5.233601
      px      :     1.735764
      py      :     1.900159
      dz2     :     0.004421  d :     0.016548
      dxz     :     0.006485
      dyz     :     0.002619
      dx2y2   :     0.001559
      dxy     :     0.001463
      f0      :     0.000120  f :     0.000725
      f+1     :     0.000267
      f-1     :     0.000059
      f+2     :     0.000132
      f-2     :     0.000103
      f+3     :     0.000021
      f-3     :     0.000022


------------------------
MULLIKEN OVERLAP CHARGES
------------------------
B(  0-C ,  1-C ) :  -0.2798 B(  0-C ,  2-C ) :   0.6757 B(  0-C ,  3-C ) :  -0.2797 
B(  0-C ,  4-F ) :  -0.0948 B(  0-C ,  5-F ) :  -0.0941 B(  0-C ,  8-F ) :  -0.0935 
B(  0-C ,  9-F ) :  -0.0942 B(  0-C , 10-F ) :   0.7452 B(  0-C , 11-F ) :   0.7453 
B(  1-C ,  2-C ) :  -0.2799 B(  1-C ,  3-C ) :   0.6755 B(  1-C ,  6-F ) :  -0.0935 
B(  1-C ,  7-F ) :  -0.0942 B(  1-C ,  8-F ) :   0.7453 B(  1-C ,  9-F ) :   0.7452 
B(  1-C , 10-F ) :  -0.0948 B(  1-C , 11-F ) :  -0.0941 B(  2-C ,  3-C ) :  -0.2799 
B(  2-C ,  4-F ) :  -0.0942 B(  2-C ,  5-F ) :  -0.0935 B(  2-C ,  6-F ) :   0.7453 
B(  2-C ,  7-F ) :   0.7451 B(  2-C ,  8-F ) :  -0.0941 B(  2-C ,  9-F ) :  -0.0948 
B(  3-C ,  4-F ) :   0.7452 B(  3-C ,  5-F ) :   0.7453 B(  3-C ,  6-F ) :  -0.0941 
B(  3-C ,  7-F ) :  -0.0947 B(  3-C , 10-F ) :  -0.0942 B(  3-C , 11-F ) :  -0.0935 
B(  4-F ,  5-F ) :  -0.0877 B(  6-F ,  7-F ) :  -0.0877 B(  8-F ,  9-F ) :  -0.0877 
B( 10-F , 11-F ) :  -0.0877 


                     *******************************
                     * LOEWDIN POPULATION ANALYSIS *
                     *******************************

----------------------
LOEWDIN ATOMIC CHARGES
----------------------
   0 C :   -0.430191
   1 C :   -0.430155
   2 C :   -0.430192
   3 C :   -0.430156
   4 F :    0.215054
   5 F :    0.215117
   6 F :    0.215119
   7 F :    0.215058
   8 F :    0.215116
   9 F :    0.215054
  10 F :    0.215056
  11 F :    0.215119

-------------------------------
LOEWDIN REDUCED ORBITAL CHARGES
-------------------------------
  0 C s       :     2.745202  s :     2.745202
      pz      :     0.732781  p :     2.584007
      px      :     0.851109
      py      :     1.000117
      dz2     :     0.240646  d :     0.920553
      dxz     :     0.231178
      dyz     :     0.132508
      dx2y2   :     0.114247
      dxy     :     0.201974
      f0      :     0.034397  f :     0.180429
      f+1     :     0.038717
      f-1     :     0.024592
      f+2     :     0.029985
      f-2     :     0.028973
      f+3     :     0.011569
      f-3     :     0.012194

  1 C s       :     2.745189  s :     2.745189
      pz      :     0.732779  p :     2.584033
      px      :     1.000137
      py      :     0.851116
      dz2     :     0.240640  d :     0.920514
      dxz     :     0.132506
      dyz     :     0.231179
      dx2y2   :     0.114218
      dxy     :     0.201971
      f0      :     0.034398  f :     0.180419
      f+1     :     0.024592
      f-1     :     0.038714
      f+2     :     0.029984
      f-2     :     0.028972
      f+3     :     0.012193
      f-3     :     0.011567

  2 C s       :     2.745202  s :     2.745202
      pz      :     0.732782  p :     2.584007
      px      :     0.851109
      py      :     1.000117
      dz2     :     0.240646  d :     0.920554
      dxz     :     0.231178
      dyz     :     0.132508
      dx2y2   :     0.114248
      dxy     :     0.201974
      f0      :     0.034397  f :     0.180430
      f+1     :     0.038717
      f-1     :     0.024593
      f+2     :     0.029985
      f-2     :     0.028973
      f+3     :     0.011569
      f-3     :     0.012194

  3 C s       :     2.745189  s :     2.745189
      pz      :     0.732780  p :     2.584033
      px      :     1.000137
      py      :     0.851117
      dz2     :     0.240641  d :     0.920515
      dxz     :     0.132506
      dyz     :     0.231180
      dx2y2   :     0.114217
      dxy     :     0.201971
      f0      :     0.034398  f :     0.180419
      f+1     :     0.024592
      f-1     :     0.038714
      f+2     :     0.029984
      f-2     :     0.028973
      f+3     :     0.012193
      f-3     :     0.011567

  4 F s       :     3.592342  s :     3.592342
      pz      :     1.626690  p :     5.159918
      px      :     1.824030
      py      :     1.709198
      dz2     :     0.007865  d :     0.031119
      dxz     :     0.005764
      dyz     :     0.012054
      dx2y2   :     0.002603
      dxy     :     0.002834
      f0      :     0.000290  f :     0.001568
      f+1     :     0.000147
      f-1     :     0.000495
      f+2     :     0.000259
      f-2     :     0.000281
      f+3     :     0.000056
      f-3     :     0.000040

  5 F s       :     3.592275  s :     3.592275
      pz      :     1.629867  p :     5.159911
      px      :     1.823767
      py      :     1.706278
      dz2     :     0.007658  d :     0.031129
      dxz     :     0.005683
      dyz     :     0.012152
      dx2y2   :     0.002713
      dxy     :     0.002922
      f0      :     0.000283  f :     0.001568
      f+1     :     0.000140
      f-1     :     0.000492
      f+2     :     0.000266
      f-2     :     0.000285
      f+3     :     0.000059
      f-3     :     0.000043

  6 F s       :     3.592269  s :     3.592269
      pz      :     1.629899  p :     5.159914
      px      :     1.706253
      py      :     1.823762
      dz2     :     0.007657  d :     0.031129
      dxz     :     0.012153
      dyz     :     0.005683
      dx2y2   :     0.002714
      dxy     :     0.002923
      f0      :     0.000283  f :     0.001568
      f+1     :     0.000492
      f-1     :     0.000140
      f+2     :     0.000266
      f-2     :     0.000285
      f+3     :     0.000043
      f-3     :     0.000059

  7 F s       :     3.592335  s :     3.592335
      pz      :     1.626679  p :     5.159920
      px      :     1.709211
      py      :     1.824030
      dz2     :     0.007866  d :     0.031119
      dxz     :     0.012053
      dyz     :     0.005764
      dx2y2   :     0.002602
      dxy     :     0.002833
      f0      :     0.000290  f :     0.001568
      f+1     :     0.000495
      f-1     :     0.000147
      f+2     :     0.000259
      f-2     :     0.000281
      f+3     :     0.000040
      f-3     :     0.000056

  8 F s       :     3.592276  s :     3.592276
      pz      :     1.629879  p :     5.159911
      px      :     1.823761
      py      :     1.706271
      dz2     :     0.007657  d :     0.031129
      dxz     :     0.005683
      dyz     :     0.012151
      dx2y2   :     0.002714
      dxy     :     0.002923
      f0      :     0.000283  f :     0.001568
      f+1     :     0.000140
      f-1     :     0.000492
      f+2     :     0.000266
      f-2     :     0.000285
      f+3     :     0.000059
      f-3     :     0.000043

  9 F s       :     3.592342  s :     3.592342
      pz      :     1.626678  p :     5.159918
      px      :     1.824036
      py      :     1.709204
      dz2     :     0.007866  d :     0.031119
      dxz     :     0.005764
      dyz     :     0.012054
      dx2y2   :     0.002602
      dxy     :     0.002833
      f0      :     0.000290  f :     0.001568
      f+1     :     0.000147
      f-1     :     0.000495
      f+2     :     0.000259
      f-2     :     0.000281
      f+3     :     0.000056
      f-3     :     0.000040

 10 F s       :     3.592336  s :     3.592336
      pz      :     1.626711  p :     5.159921
      px      :     1.709178
      py      :     1.824032
      dz2     :     0.007864  d :     0.031119
      dxz     :     0.012055
      dyz     :     0.005763
      dx2y2   :     0.002603
      dxy     :     0.002834
      f0      :     0.000290  f :     0.001568
      f+1     :     0.000495
      f-1     :     0.000146
      f+2     :     0.000259
      f-2     :     0.000281
      f+3     :     0.000040
      f-3     :     0.000056

 11 F s       :     3.592269  s :     3.592269
      pz      :     1.629867  p :     5.159913
      px      :     1.706286
      py      :     1.823761
      dz2     :     0.007659  d :     0.031129
      dxz     :     0.012151
      dyz     :     0.005684
      dx2y2   :     0.002713
      dxy     :     0.002922
      f0      :     0.000283  f :     0.001569
      f+1     :     0.000492
      f-1     :     0.000140
      f+2     :     0.000266
      f-2     :     0.000285
      f+3     :     0.000043
      f-3     :     0.000059


---------------------------------
LOEWDIN BOND ORDERS (THRESH 0.050000)
---------------------------------
B(  0-C ,  1-C ) :   0.9777 B(  0-C ,  2-C ) :   0.2347 B(  0-C ,  3-C ) :   0.9777 
B(  0-C ,  4-F ) :   0.0875 B(  0-C ,  5-F ) :   0.0873 B(  0-C ,  8-F ) :   0.0870 
B(  0-C ,  9-F ) :   0.0872 B(  0-C , 10-F ) :   1.7632 B(  0-C , 11-F ) :   1.7640 
B(  1-C ,  2-C ) :   0.9777 B(  1-C ,  3-C ) :   0.2346 B(  1-C ,  6-F ) :   0.0870 
B(  1-C ,  7-F ) :   0.0872 B(  1-C ,  8-F ) :   1.7640 B(  1-C ,  9-F ) :   1.7632 
B(  1-C , 10-F ) :   0.0875 B(  1-C , 11-F ) :   0.0873 B(  2-C ,  3-C ) :   0.9777 
B(  2-C ,  4-F ) :   0.0872 B(  2-C ,  5-F ) :   0.0870 B(  2-C ,  6-F ) :   1.7640 
B(  2-C ,  7-F ) :   1.7633 B(  2-C ,  8-F ) :   0.0873 B(  2-C ,  9-F ) :   0.0875 
B(  3-C ,  4-F ) :   1.7632 B(  3-C ,  5-F ) :   1.7640 B(  3-C ,  6-F ) :   0.0873 
B(  3-C ,  7-F ) :   0.0875 B(  3-C , 10-F ) :   0.0872 B(  3-C , 11-F ) :   0.0870 
B(  4-F ,  5-F ) :   0.0811 B(  6-F ,  7-F ) :   0.0811 B(  8-F ,  9-F ) :   0.0811 
B( 10-F , 11-F ) :   0.0811 

------------------------------------------
LOEWDIN REDUCED ORBITAL POPULATIONS PER MO
-------------------------------------------
THRESHOLD FOR PRINTING IS 0.1%%
                      0         1         2         3         4         5   
                 -27.62168 -27.62163 -27.62163 -27.62162 -27.62158 -27.62158
                   2.00000   2.00000   2.00000   2.00000   2.00000   2.00000
                  --------  --------  --------  --------  --------  --------
 4 F  s              15.5      13.2      33.2       0.0      16.8       0.0
 5 F  s              12.8       8.4      16.9       0.0      33.1       0.0
 6 F  s               9.9      11.3       0.0      16.7       0.0      33.2
 7 F  s              11.8      17.0       0.0      33.2       0.0      16.7
 8 F  s              12.8       8.5      16.8       0.0      33.2       0.0
 9 F  s              15.5      13.3      33.1       0.0      16.8       0.0
10 F  s              11.8      17.0       0.0      33.2       0.0      16.8
11 F  s               9.9      11.3       0.0      16.8       0.0      33.2

                      6         7         8         9        10        11   
                 -27.62156 -27.62152 -12.26807 -12.26766 -12.26765 -12.26567
                   2.00000   2.00000   2.00000   2.00000   2.00000   2.00000
                  --------  --------  --------  --------  --------  --------
 0 C  s               0.0       0.0      24.9       0.0      49.7      24.9
 0 C  dxy             0.0       0.0       0.0       0.1       0.0       0.0
 1 C  s               0.0       0.0      24.9      49.7       0.0      24.9
 1 C  dxy             0.0       0.0       0.0       0.0       0.1       0.0
 2 C  s               0.0       0.0      24.9       0.0      49.7      24.9
 2 C  dxy             0.0       0.0       0.0       0.1       0.0       0.0
 3 C  s               0.0       0.0      24.9      49.7       0.0      24.9
 3 C  dxy             0.0       0.0       0.0       0.0       0.1       0.0
 4 F  s              11.5       9.7       0.0       0.0       0.0       0.0
 5 F  s              17.2      11.5       0.0       0.0       0.0       0.0
 6 F  s              13.1      15.8       0.0       0.0       0.0       0.0
 7 F  s               8.3      13.0       0.0       0.0       0.0       0.0
 8 F  s              17.2      11.5       0.0       0.0       0.0       0.0
 9 F  s              11.5       9.7       0.0       0.0       0.0       0.0
10 F  s               8.2      13.0       0.0       0.0       0.0       0.0
11 F  s              13.0      15.7       0.0       0.0       0.0       0.0

                     12        13        14        15        16        17   
                  -2.06878  -2.06447  -2.06447  -2.05949  -2.03538  -2.03302
                   2.00000   2.00000   2.00000   2.00000   2.00000   2.00000
                  --------  --------  --------  --------  --------  --------
 0 C  s               4.8       4.6       0.0       1.6       0.0       0.0
 0 C  pz              0.0       0.0       0.0       0.0       5.5       0.0
 0 C  px              1.0       4.1       0.1       2.9       0.0       0.0
 0 C  py              0.0       0.2       1.7       0.1       0.0       0.0
 0 C  dz2             0.4       1.5       0.0       1.1       0.0       0.0
 0 C  dxz             0.0       0.0       0.0       0.0       1.3       0.0
 0 C  dyz             0.0       0.0       0.0       0.0       0.0       0.1
 0 C  dx2y2           0.1       0.4       0.0       0.4       0.0       0.0
 0 C  dxy             0.0       0.0       0.2       0.0       0.0       0.0
 0 C  f+1             0.4       0.8       0.0       0.4       0.0       0.0
 0 C  f+2             0.0       0.0       0.0       0.0       0.2       0.0
 1 C  s               4.8       0.0       4.6       1.6       0.0       0.0
 1 C  pz              0.0       0.0       0.0       0.0       5.5       8.0
 1 C  px              0.0       1.7       0.2       0.1       0.0       0.0
 1 C  py              1.0       0.1       4.1       2.9       0.0       0.0
 1 C  dz2             0.4       0.0       1.5       1.1       0.0       0.0
 1 C  dxz             0.0       0.0       0.0       0.0       0.0       0.1
 1 C  dyz             0.0       0.0       0.0       0.0       1.3       4.0
 1 C  dx2y2           0.1       0.0       0.4       0.4       0.0       0.0
 1 C  dxy             0.0       0.2       0.0       0.0       0.0       0.0
 1 C  f-1             0.4       0.0       0.8       0.4       0.0       0.0
 1 C  f+2             0.0       0.0       0.0       0.0       0.2       0.3
 2 C  s               4.8       4.6       0.0       1.6       0.0       0.0
 2 C  pz              0.0       0.0       0.0       0.0       5.5       0.0
 2 C  px              1.0       4.1       0.1       2.9       0.0       0.0
 2 C  py              0.0       0.2       1.7       0.1       0.0       0.0
 2 C  dz2             0.4       1.5       0.0       1.1       0.0       0.0
 2 C  dxz             0.0       0.0       0.0       0.0       1.3       0.0
 2 C  dyz             0.0       0.0       0.0       0.0       0.0       0.1
 2 C  dx2y2           0.1       0.4       0.0       0.4       0.0       0.0
 2 C  dxy             0.0       0.0       0.2       0.0       0.0       0.0
 2 C  f+1             0.4       0.8       0.0       0.4       0.0       0.0
 2 C  f+2             0.0       0.0       0.0       0.0       0.2       0.0
 3 C  s               4.8       0.0       4.6       1.6       0.0       0.0
 3 C  pz              0.0       0.0       0.0       0.0       5.5       8.0
 3 C  px              0.0       1.7       0.2       0.1       0.0       0.0
 3 C  py              1.0       0.1       4.1       2.9       0.0       0.0
 3 C  dz2             0.4       0.0       1.5       1.1       0.0       0.0
 3 C  dxz             0.0       0.0       0.0       0.0       0.0       0.1
 3 C  dyz             0.0       0.0       0.0       0.0       1.3       4.0
 3 C  dx2y2           0.1       0.0       0.4       0.4       0.0       0.0
 3 C  dxy             0.0       0.2       0.0       0.0       0.0       0.0
 3 C  f-1             0.4       0.0       0.8       0.4       0.0       0.0
 3 C  f+2             0.0       0.0       0.0       0.0       0.2       0.3
 4 F  s               8.9       0.1      17.6       9.0       9.0      18.5
 4 F  pz              0.2       0.0       0.3       0.1       0.1       0.1
 5 F  s               8.9       0.1      17.7       9.1       8.9      18.5
 5 F  pz              0.2       0.0       0.3       0.1       0.1       0.1
 6 F  s               8.9      17.7       0.1       9.1       8.9       0.0
 6 F  pz              0.2       0.3       0.0       0.1       0.1       0.0
 7 F  s               8.9      17.6       0.1       9.0       9.0       0.0
 7 F  pz              0.2       0.3       0.0       0.1       0.1       0.0
 8 F  s               8.9       0.1      17.7       9.1       9.0      18.5
 8 F  pz              0.2       0.0       0.3       0.1       0.1       0.1
 9 F  s               8.9       0.1      17.6       9.0       9.0      18.5
 9 F  pz              0.2       0.0       0.3       0.1       0.1       0.1
10 F  s               8.9      17.6       0.1       9.0       9.0       0.0
10 F  pz              0.2       0.3       0.0       0.1       0.1       0.0
11 F  s               8.9      17.7       0.1       9.1       8.9       0.0
11 F  pz              0.2       0.3       0.0       0.1       0.1       0.0

                     18        19        20        21        22        23   
                  -2.03302  -2.03114  -1.47862  -1.37680  -1.37680  -1.34119
                   2.00000   2.00000   2.00000   2.00000   2.00000   2.00000
                  --------  --------  --------  --------  --------  --------
 0 C  s               0.0       0.0       8.9       0.0       8.4       2.8
 0 C  pz              8.0       2.9       0.0       0.0       0.0       0.0
 0 C  px              0.0       0.0       5.6       0.1       0.8       1.8
 0 C  py              0.0       0.0       0.2       3.0       0.0       0.1
 0 C  dz2             0.0       0.0       0.9       0.0       0.1       0.0
 0 C  dxz             4.0       2.8       0.0       0.0       0.0       0.0
 0 C  dyz             0.1       0.1       0.0       0.0       0.0       0.0
 0 C  dx2y2           0.0       0.0       0.0       0.1       0.2       0.1
 0 C  dxy             0.0       0.0       0.0       0.9       0.0       0.0
 0 C  f+2             0.3       0.2       0.0       0.0       0.0       0.0
 1 C  s               0.0       0.0       8.9       8.4       0.0       2.8
 1 C  pz              0.0       2.9       0.0       0.0       0.0       0.0
 1 C  px              0.0       0.0       0.2       0.0       3.0       0.1
 1 C  py              0.0       0.0       5.6       0.8       0.1       1.8
 1 C  dz2             0.0       0.0       0.9       0.1       0.0       0.0
 1 C  dxz             0.1       0.1       0.0       0.0       0.0       0.0
 1 C  dyz             0.0       2.8       0.0       0.0       0.0       0.0
 1 C  dx2y2           0.0       0.0       0.0       0.2       0.1       0.1
 1 C  dxy             0.0       0.0       0.0       0.0       0.9       0.0
 1 C  f+2             0.0       0.2       0.0       0.0       0.0       0.0
 2 C  s               0.0       0.0       8.9       0.0       8.4       2.8
 2 C  pz              8.0       2.9       0.0       0.0       0.0       0.0
 2 C  px              0.0       0.0       5.6       0.1       0.8       1.8
 2 C  py              0.0       0.0       0.2       3.0       0.0       0.1
 2 C  dz2             0.0       0.0       0.9       0.0       0.1       0.0
 2 C  dxz             4.0       2.8       0.0       0.0       0.0       0.0
 2 C  dyz             0.1       0.1       0.0       0.0       0.0       0.0
 2 C  dx2y2           0.0       0.0       0.0       0.1       0.2       0.1
 2 C  dxy             0.0       0.0       0.0       0.9       0.0       0.0
 2 C  f+2             0.3       0.2       0.0       0.0       0.0       0.0
 3 C  s               0.0       0.0       8.9       8.4       0.0       2.8
 3 C  pz              0.0       2.9       0.0       0.0       0.0       0.0
 3 C  px              0.0       0.0       0.2       0.0       3.0       0.1
 3 C  py              0.0       0.0       5.6       0.8       0.1       1.8
 3 C  dz2             0.0       0.0       0.9       0.1       0.0       0.0
 3 C  dxz             0.1       0.1       0.0       0.0       0.0       0.0
 3 C  dyz             0.0       2.8       0.0       0.0       0.0       0.0
 3 C  dx2y2           0.0       0.0       0.0       0.2       0.1       0.1
 3 C  dxy             0.0       0.0       0.0       0.0       0.9       0.0
 3 C  f+2             0.0       0.2       0.0       0.0       0.0       0.0
 4 F  s               0.0       9.4       1.0       2.3       0.0       1.0
 4 F  pz              0.0       0.1       1.9      10.7       0.0       7.2
 4 F  px              0.0       0.0       0.0       0.1       0.2       0.1
 4 F  py              0.0       0.0       1.7       4.4       0.0       1.7
 4 F  dz2             0.0       0.0       0.0       0.1       0.0       0.1
 4 F  dyz             0.0       0.0       0.1       0.1       0.0       0.1
 5 F  s               0.0       9.4       1.0       2.3       0.0       1.0
 5 F  pz              0.0       0.1       1.9      10.6       0.0       7.1
 5 F  px              0.0       0.0       0.1       0.1       0.2       0.1
 5 F  py              0.0       0.0       1.7       4.6       0.0       1.8
 5 F  dyz             0.0       0.0       0.1       0.1       0.0       0.1
 6 F  s              18.5       9.4       1.0       0.0       2.3       1.0
 6 F  pz              0.1       0.1       1.9       0.0      10.6       7.1
 6 F  px              0.0       0.0       1.7       0.0       4.6       1.8
 6 F  py              0.0       0.0       0.1       0.2       0.1       0.1
 6 F  dxz             0.0       0.0       0.1       0.0       0.1       0.1
 7 F  s              18.5       9.4       1.0       0.0       2.3       1.0
 7 F  pz              0.1       0.1       1.9       0.0      10.7       7.2
 7 F  px              0.0       0.0       1.7       0.0       4.4       1.7
 7 F  py              0.0       0.0       0.0       0.2       0.1       0.1
 7 F  dz2             0.0       0.0       0.0       0.0       0.1       0.1
 7 F  dxz             0.0       0.0       0.1       0.0       0.1       0.1
 8 F  s               0.0       9.4       1.0       2.3       0.0       1.0
 8 F  pz              0.0       0.1       1.9      10.6       0.0       7.1
 8 F  px              0.0       0.0       0.1       0.1       0.2       0.1
 8 F  py              0.0       0.0       1.7       4.6       0.0       1.8
 8 F  dyz             0.0       0.0       0.1       0.1       0.0       0.1
 9 F  s               0.0       9.4       1.0       2.3       0.0       1.0
 9 F  pz              0.0       0.1       1.9      10.7       0.0       7.2
 9 F  px              0.0       0.0       0.0       0.1       0.2       0.0
 9 F  py              0.0       0.0       1.7       4.4       0.0       1.7
 9 F  dz2             0.0       0.0       0.0       0.1       0.0       0.1
 9 F  dyz             0.0       0.0       0.1       0.1       0.0       0.1
10 F  s              18.5       9.4       1.0       0.0       2.3       1.0
10 F  pz              0.1       0.1       1.9       0.0      10.7       7.2
10 F  px              0.0       0.0       1.7       0.0       4.4       1.7
10 F  py              0.0       0.0       0.0       0.2       0.1       0.0
10 F  dz2             0.0       0.0       0.0       0.0       0.1       0.1
10 F  dxz             0.0       0.0       0.1       0.0       0.1       0.1
11 F  s              18.5       9.4       1.0       0.0       2.3       1.0
11 F  pz              0.1       0.1       1.9       0.0      10.6       7.1
11 F  px              0.0       0.0       1.7       0.0       4.6       1.8
11 F  py              0.0       0.0       0.1       0.2       0.1       0.1
11 F  dxz             0.0       0.0       0.1       0.0       0.1       0.1

                     24        25        26        27        28        29   
                  -1.27731  -1.26726  -1.26726  -1.26683  -1.25907  -1.22556
                   2.00000   2.00000   2.00000   2.00000   2.00000   2.00000
                  --------  --------  --------  --------  --------  --------
 0 C  s               0.0       0.0       0.0       0.4       0.0       0.0
 0 C  pz              5.8       0.0       9.0       0.0       3.7       0.0
 0 C  px              0.0       0.0       0.0       9.1       0.0       0.2
 0 C  py              0.0       0.0       0.0       0.3       0.0       5.2
 0 C  dxz             0.5       0.0       0.2       0.0       0.3       0.0
 0 C  dyz             0.0       0.6       0.0       0.0       0.0       0.0
 0 C  dx2y2           0.0       0.0       0.0       0.1       0.0       0.0
 0 C  dxy             0.0       0.0       0.0       0.0       0.0       0.1
 1 C  s               0.0       0.0       0.0       0.4       0.0       0.0
 1 C  pz              5.8       9.0       0.0       0.0       3.7       0.0
 1 C  px              0.0       0.0       0.0       0.3       0.0       5.2
 1 C  py              0.0       0.0       0.0       9.1       0.0       0.2
 1 C  dxz             0.0       0.0       0.6       0.0       0.0       0.0
 1 C  dyz             0.5       0.2       0.0       0.0       0.3       0.0
 1 C  dx2y2           0.0       0.0       0.0       0.1       0.0       0.0
 1 C  dxy             0.0       0.0       0.0       0.0       0.0       0.1
 2 C  s               0.0       0.0       0.0       0.4       0.0       0.0
 2 C  pz              5.8       0.0       9.0       0.0       3.7       0.0
 2 C  px              0.0       0.0       0.0       9.1       0.0       0.2
 2 C  py              0.0       0.0       0.0       0.3       0.0       5.2
 2 C  dxz             0.5       0.0       0.2       0.0       0.3       0.0
 2 C  dyz             0.0       0.6       0.0       0.0       0.0       0.0
 2 C  dx2y2           0.0       0.0       0.0       0.1       0.0       0.0
 2 C  dxy             0.0       0.0       0.0       0.0       0.0       0.1
 3 C  s               0.0       0.0       0.0       0.4       0.0       0.0
 3 C  pz              5.8       9.0       0.0       0.0       3.7       0.0
 3 C  px              0.0       0.0       0.0       0.3       0.0       5.2
 3 C  py              0.0       0.0       0.0       9.1       0.0       0.2
 3 C  dxz             0.0       0.0       0.6       0.0       0.0       0.0
 3 C  dyz             0.5       0.2       0.0       0.0       0.3       0.0
 3 C  dx2y2           0.0       0.0       0.0       0.1       0.0       0.0
 3 C  dxy             0.0       0.0       0.0       0.0       0.0       0.1
 4 F  s               0.6       1.1       0.0       0.3       0.6       0.0
 4 F  pz              4.1       8.9       0.0       6.7       5.3       0.0
 4 F  px              0.1       0.3       0.0       0.0       0.1       9.4
 4 F  py              4.4       9.5       0.0       0.2       4.6       0.3
 4 F  dyz             0.1       0.1       0.0       0.0       0.0       0.0
 5 F  s               0.6       1.1       0.0       0.3       0.5       0.0
 5 F  pz              4.0       8.7       0.0       7.3       4.5       0.0
 5 F  px              0.1       0.3       0.0       0.0       0.1       9.4
 5 F  py              4.5       9.7       0.0       0.1       4.9       0.3
 5 F  dyz             0.1       0.1       0.0       0.0       0.0       0.0
 6 F  s               0.6       0.0       1.1       0.3       0.5       0.0
 6 F  pz              4.0       0.0       8.7       7.3       4.5       0.0
 6 F  px              4.5       0.0       9.7       0.1       4.9       0.3
 6 F  py              0.1       0.0       0.3       0.0       0.1       9.4
 6 F  dxz             0.1       0.0       0.1       0.0       0.0       0.0
 7 F  s               0.6       0.0       1.1       0.3       0.6       0.0
 7 F  pz              4.1       0.0       8.9       6.7       5.3       0.0
 7 F  px              4.4       0.0       9.5       0.2       4.6       0.3
 7 F  py              0.1       0.0       0.3       0.0       0.1       9.4
 7 F  dxz             0.1       0.0       0.1       0.0       0.0       0.0
 8 F  s               0.6       1.1       0.0       0.3       0.5       0.0
 8 F  pz              4.0       8.7       0.0       7.3       4.5       0.0
 8 F  px              0.1       0.3       0.0       0.0       0.1       9.4
 8 F  py              4.5       9.7       0.0       0.1       4.9       0.3
 8 F  dyz             0.1       0.1       0.0       0.0       0.0       0.0
 9 F  s               0.6       1.1       0.0       0.3       0.6       0.0
 9 F  pz              4.1       8.9       0.0       6.7       5.3       0.0
 9 F  px              0.1       0.3       0.0       0.0       0.1       9.4
 9 F  py              4.4       9.5       0.0       0.2       4.6       0.3
 9 F  dyz             0.1       0.1       0.0       0.0       0.0       0.0
10 F  s               0.6       0.0       1.1       0.3       0.6       0.0
10 F  pz              4.1       0.0       8.9       6.7       5.3       0.0
10 F  px              4.4       0.0       9.5       0.2       4.6       0.3
10 F  py              0.1       0.0       0.3       0.0       0.1       9.4
10 F  dxz             0.1       0.0       0.1       0.0       0.0       0.0
11 F  s               0.6       0.0       1.1       0.3       0.5       0.0
11 F  pz              4.0       0.0       8.7       7.3       4.5       0.0
11 F  px              4.5       0.0       9.7       0.1       4.9       0.3
11 F  py              0.1       0.0       0.3       0.0       0.1       9.4
11 F  dxz             0.1       0.0       0.1       0.0       0.0       0.0

                     30        31        32        33        34        35   
                  -1.21764  -1.21763  -1.18704  -1.18643  -1.18402  -1.18402
                   2.00000   2.00000   2.00000   2.00000   2.00000   2.00000
                  --------  --------  --------  --------  --------  --------
 0 C  s               0.0       0.2       0.1       0.0       0.0       0.2
 0 C  px              0.1       3.0       0.5       0.0       0.0       0.7
 0 C  py              4.9       0.1       0.0       1.0       1.4       0.0
 0 C  dz2             0.0       0.9       1.7       0.0       0.0       2.0
 0 C  dx2y2           0.0       1.2       0.3       0.2       0.2       0.1
 0 C  dxy             0.0       0.1       0.0       1.3       1.7       0.0
 0 C  f-1             0.1       0.0       0.0       0.2       0.2       0.0
 0 C  f-3             0.1       0.0       0.0       0.1       0.0       0.0
[...]
 8 F  pz              0.0       0.0       0.3       0.0       0.0       0.0
 8 F  px              0.0       0.1       0.0       0.2       0.0       0.0
 8 F  py              0.0       0.0       0.2       0.0       0.2       0.2
 8 F  dz2             0.0       0.0       3.2       0.0       0.0       7.9
 8 F  dxz             0.6       1.7       0.4       5.9       0.2       0.1
 8 F  dyz             0.0       0.1      11.9       0.2       6.4       1.7
 8 F  dx2y2           0.0       0.4       1.0       0.5       3.5       1.2
 8 F  dxy             0.1       2.6       0.2       4.3       0.4       0.1
 8 F  f0              0.0       0.0       0.0       0.0       0.1       0.5
 8 F  f+1             0.0       0.1       0.0       0.1       0.0       0.0
 8 F  f-1             0.0       0.0       0.8       0.0       0.1       0.0
 8 F  f+2             0.0       0.0       0.2       0.1       0.4       0.1
 8 F  f-2             0.1       0.1       0.0       0.5       0.1       0.0
 9 F  s               0.0       0.0       0.4       0.0       0.1       0.1
 9 F  pz              0.0       0.0       0.3       0.0       0.0       0.0
 9 F  px              0.0       0.1       0.0       0.2       0.0       0.0
 9 F  py              0.0       0.0       0.1       0.0       0.2       0.2
 9 F  dz2             0.0       0.0       5.0       0.0       0.0       7.6
 9 F  dxz             0.5       1.9       0.3       6.1       0.2       0.1
 9 F  dyz             0.0       0.1      10.7       0.2       6.5       1.8
 9 F  dx2y2           0.0       0.3       0.7       0.5       3.3       1.1
 9 F  dxy             0.0       2.6       0.1       4.1       0.4       0.1
 9 F  f0              0.0       0.0       0.0       0.0       0.1       0.5
 9 F  f+1             0.0       0.1       0.0       0.1       0.0       0.0
 9 F  f-1             0.0       0.0       0.8       0.0       0.1       0.0
 9 F  f+2             0.0       0.0       0.2       0.1       0.4       0.1
 9 F  f-2             0.1       0.2       0.0       0.5       0.1       0.0
10 F  s               0.0       0.4       0.0       0.0       0.1       0.1
10 F  pz              0.0       0.3       0.0       0.0       0.0       0.0
10 F  px              0.2       0.1       0.0       0.0       0.2       0.2
10 F  py              0.0       0.0       0.1       0.2       0.0       0.0
10 F  dz2            14.3       5.0       0.0       0.0       0.0       7.6
10 F  dxz             4.9      10.7       0.1       0.2       6.5       1.8
10 F  dyz             0.1       0.3       1.9       6.1       0.2       0.1
10 F  dx2y2           2.3       0.7       0.3       0.5       3.3       1.1
10 F  dxy             0.3       0.1       2.6       4.1       0.4       0.1
10 F  f0              0.9       0.0       0.0       0.0       0.1       0.5
10 F  f+1             0.1       0.8       0.0       0.0       0.1       0.0
10 F  f-1             0.0       0.0       0.1       0.1       0.0       0.0
10 F  f+2             0.2       0.2       0.0       0.1       0.4       0.1
10 F  f-2             0.0       0.0       0.2       0.5       0.1       0.0
11 F  s               0.0       0.4       0.0       0.0       0.1       0.1
11 F  pz              0.1       0.3       0.0       0.0       0.0       0.0
11 F  px              0.2       0.2       0.0       0.0       0.2       0.2
11 F  py              0.0       0.0       0.1       0.2       0.0       0.0
11 F  dz2            16.0       3.2       0.0       0.0       0.0       7.9
11 F  dxz             3.3      11.9       0.1       0.2       6.4       1.7
11 F  dyz             0.1       0.4       1.7       5.9       0.2       0.1
11 F  dx2y2           2.1       1.0       0.4       0.5       3.5       1.2
11 F  dxy             0.3       0.2       2.6       4.3       0.4       0.1
11 F  f0              1.0       0.0       0.0       0.0       0.1       0.5
11 F  f+1             0.0       0.8       0.0       0.0       0.1       0.0
11 F  f-1             0.0       0.0       0.1       0.1       0.0       0.0
11 F  f+2             0.1       0.2       0.0       0.1       0.4       0.1
11 F  f-2             0.0       0.0       0.1       0.5       0.1       0.0

                    360       361       362       363       364       365   
                  20.73665  21.16087  21.16103  21.25875  54.06751  54.22189
                   0.00000   0.00000   0.00000   0.00000   0.00000   0.00000
                  --------  --------  --------  --------  --------  --------
 0 C  s              24.4       0.0      48.5      24.4       0.0       0.0
 1 C  s              24.3      48.5       0.0      24.4       0.0       0.0
 2 C  s              24.4       0.0      48.5      24.4       0.0       0.0
 3 C  s              24.3      48.5       0.0      24.4       0.0       0.0
 4 F  s               0.1       0.2       0.0       0.1      12.5      12.6
 4 F  pz              0.1       0.1       0.0       0.1       0.0       0.0
 5 F  s               0.1       0.2       0.0       0.1      12.5      12.4
 5 F  pz              0.1       0.1       0.0       0.1       0.0       0.0
 6 F  s               0.1       0.0       0.2       0.1      12.5      12.4
 6 F  pz              0.1       0.0       0.1       0.1       0.0       0.0
 7 F  s               0.1       0.0       0.2       0.1      12.5      12.6
 7 F  pz              0.1       0.0       0.1       0.1       0.0       0.0
 8 F  s               0.1       0.2       0.0       0.1      12.5      12.4
 8 F  pz              0.1       0.1       0.0       0.1       0.0       0.0
 9 F  s               0.1       0.2       0.0       0.1      12.5      12.6
 9 F  pz              0.1       0.1       0.0       0.1       0.0       0.0
10 F  s               0.1       0.0       0.2       0.1      12.5      12.6
10 F  pz              0.1       0.0       0.1       0.1       0.0       0.0
11 F  s               0.1       0.0       0.2       0.1      12.5      12.4
11 F  pz              0.1       0.0       0.1       0.1       0.0       0.0

                    366       367       368       369       370       371   
                  54.55718  54.55723  54.69869  54.69877  54.88096  54.97951
                   0.00000   0.00000   0.00000   0.00000   0.00000   0.00000
                  --------  --------  --------  --------  --------  --------
 0 C  s               0.0       0.2       0.0       0.0       0.0       0.1
 1 C  s               0.2       0.0       0.0       0.0       0.0       0.1
 2 C  s               0.0       0.2       0.0       0.0       0.0       0.1
 3 C  s               0.2       0.0       0.0       0.0       0.0       0.1
 4 F  s              24.8       0.0      25.0       0.0      12.4      12.4
 5 F  s              25.0       0.0      24.9       0.0      12.5      12.4
 6 F  s               0.0      25.0       0.0      24.9      12.5      12.4
 7 F  s               0.0      24.8       0.0      25.0      12.4      12.4
 8 F  s              25.0       0.0      24.9       0.0      12.5      12.4
 9 F  s              24.8       0.0      25.0       0.0      12.4      12.4
10 F  s               0.0      24.8       0.0      25.0      12.4      12.4
11 F  s               0.0      25.0       0.0      24.9      12.5      12.4



                      *****************************
                      * MAYER POPULATION ANALYSIS *
                      *****************************

  NA   - Mulliken gross atomic population
  ZA   - Total nuclear charge
  QA   - Mulliken gross atomic charge
  VA   - Mayer's total valence
  BVA  - Mayer's bonded valence
  FA   - Mayer's free valence

  ATOM       NA         ZA         QA         VA         BVA        FA
  0 C      5.6930     6.0000     0.3070     4.2584     4.2584     0.0000
  1 C      5.6927     6.0000     0.3073     4.2583     4.2583     0.0000
  2 C      5.6929     6.0000     0.3071     4.2585     4.2585    -0.0000
  3 C      5.6928     6.0000     0.3072     4.2583     4.2583    -0.0000
  4 F      9.1535     9.0000    -0.1535     1.1900     1.1900     0.0000
  5 F      9.1536     9.0000    -0.1536     1.1902     1.1902     0.0000
  6 F      9.1536     9.0000    -0.1536     1.1902     1.1902     0.0000
  7 F      9.1535     9.0000    -0.1535     1.1900     1.1900    -0.0000
  8 F      9.1536     9.0000    -0.1536     1.1902     1.1902     0.0000
  9 F      9.1535     9.0000    -0.1535     1.1900     1.1900    -0.0000
 10 F      9.1535     9.0000    -0.1535     1.1900     1.1900    -0.0000
 11 F      9.1536     9.0000    -0.1536     1.1902     1.1902     0.0000

  Mayer bond orders larger than 0.100000
B(  0-C ,  1-C ) :   0.9354 B(  0-C ,  3-C ) :   0.9354 B(  0-C , 10-F ) :   1.1578 
B(  0-C , 11-F ) :   1.1576 B(  1-C ,  2-C ) :   0.9354 B(  1-C ,  8-F ) :   1.1576 
B(  1-C ,  9-F ) :   1.1578 B(  2-C ,  3-C ) :   0.9354 B(  2-C ,  6-F ) :   1.1576 
B(  2-C ,  7-F ) :   1.1578 B(  3-C ,  4-F ) :   1.1578 B(  3-C ,  5-F ) :   1.1576 


-------
TIMINGS
-------

Total SCF time: 0 days 0 hours 3 min 23 sec 

Total time                  ....     203.732 sec
Sum of individual times     ....     198.911 sec  ( 97.6%)

SCF preparation             ....       0.388 sec  (  0.2%)
Fock matrix formation       ....     194.083 sec  ( 95.3%)
  Startup                   ....       0.070 sec  (  0.0% of F)
  Split-RI-J                ....       8.487 sec  (  4.4% of F)
  Chain of spheres X        ....     159.593 sec  ( 82.2% of F)
  XC integration            ....      21.506 sec  ( 11.1% of F)
    XC Preparation          ....       0.000 sec  (  0.0% of XC)
    Basis function eval.    ....       3.563 sec  ( 16.6% of XC)
    Density eval.           ....       3.371 sec  ( 15.7% of XC)
    XC-Functional eval.     ....       4.019 sec  ( 18.7% of XC)
    XC-Potential eval.      ....       5.614 sec  ( 26.1% of XC)
  CPCM terms                ....       6.932 sec  (  3.6% of F)
Diagonalization             ....       0.000 sec  (  0.0%)
Density matrix formation    ....       0.384 sec  (  0.2%)
Total Energy calculation    ....       0.307 sec  (  0.2%)
Population analysis         ....       0.222 sec  (  0.1%)
Orbital Transformation      ....       0.481 sec  (  0.2%)
Orbital Orthonormalization  ....       0.000 sec  (  0.0%)
DIIS solution               ....       1.871 sec  (  0.9%)
  MO trafo                  ....       0.000 sec  (  0.0 % of DIIS)
  Orb grad                  ....       0.000 sec  (  0.0 % of DIIS)
  Energy W gradient         ....       0.000 sec  (  0.0 % of DIIS)
  DIIS error                ....       0.027 sec  (  1.4 % of DIIS)
  DIIS work                 ....       1.420 sec  ( 75.9 % of DIIS)
  Form Q                    ....       0.000 sec  (  0.0 % of DIIS)
  Form QpQm                 ....       0.000 sec  (  0.0 % of DIIS)
  Exp/Cayley                ....       0.000 sec  (  0.0 % of DIIS)
  Orb update                ....       0.000 sec  (  0.0 % of DIIS)
  Wake-sleep                ....       0.014 sec  (  0.8 % of DIIS)
SOSCF solution              ....       0.975 sec  (  0.5%)
  MO trafo                  ....       0.123 sec  ( 12.6 % of SOSCF)
  Orb grad                  ....       0.003 sec  (  0.3 % of SOSCF)
  Rot update                ....       0.160 sec  ( 16.4 % of SOSCF)
  Step                      ....       0.689 sec  ( 70.7 % of SOSCF)
Grid generation             ....       0.201 sec  (  0.1%)
Finished LeanSCF after 204.2 sec

Maximum memory used throughout the entire LEANSCF-calculation: 50.3 MB
------------------   -----------------
gCP correction             0.047222592
------------------   -----------------

-------------------------   --------------------
FINAL SINGLE POINT ENERGY      -951.186157833881
-------------------------   --------------------


------------------------------------------------------------------------------
                              ORCA PROPERTY CALCULATIONS
------------------------------------------------------------------------------

GBWName                                 ... sp_solv.gbw
Number of atoms                         ...     12
Number of basis functions               ...    372
Max core memory                         ...   1024 MB

Electric properties:
Dipole moment                           ... YES
Quadrupole moment                       ...  NO
Static polarizability (Dipole/Dipole)   ...  NO
Static polarizability (Dipole/Quad.)    ...  NO
Static polarizability (Quad./Quad.)     ...  NO
Static polarizability (Velocity)        ...  NO

Atomic electric properties:
Dipole moment                           ...  NO
Quadrupole moment                       ...  NO
Static polarizability                   ...  NO

Choice of electric origin               ... Center of mass
Position of electric origin             ...     0.000007     0.000002    -0.000001

General magnetic properties:
Magnetizability                         ...  NO

EPR properties:
g-Tensor (aka g-matrix)                 ...  NO
Zero-Field splitting spin-orbit         ...  NO
Zero-field splitting spin-spin          ...  NO
Hyperfine couplings                     ...  NO (   0 nuclei)
Quadrupole couplings                    ...  NO (   0 nuclei)
Contact density                         ...  NO (   0 nuclei)

NMR properties:
Chemical shifts                         ...  NO (   0 nuclei)
Spin-rotation constants                 ...  NO (   0 nuclei)
Spin-spin couplings                     ...  NO (   0 nuclei,    0 pairs)

Choice of magnetic origin               ... GIAO
Position of magnetic origin             ...     0.000000     0.000000     0.000000

Properties with geometric perturbations:
SCF Hessian                             ...  NO
IR spectrum                             ...  NO
VCD spectrum                            ...  NO
X-ray spectroscopy properties:
SCF XES/XAS/RIXS spectra                ...  NO


-------------
DIPOLE MOMENT
-------------

Method             : SCF
Type of density    : Electron Density
Multiplicity       :   1
Irrep              :   0
Energy             :  -951.2333804256810481 Eh
Relativity type    : 
Basis              : AO
                                X                 Y                 Z
Electronic contribution:      0.000000014       0.000000517       0.000000154
Nuclear contribution   :     -0.000000245       0.000000362       0.000000344
                        -----------------------------------------
Total Dipole Moment    :     -0.000000231       0.000000879       0.000000498
                        -----------------------------------------
Magnitude (a.u.)       :      0.000001036
Magnitude (Debye)      :      0.000002634



--------------------
Rotational spectrum 
--------------------
 
Rotational constants in cm-1:             0.034805             0.034802             0.028042 
Rotational constants in MHz :          1043.431649          1043.342834           840.671034 

Dipole components along the rotational axes: 
x,y,z [a.u.] :    -0.000001    -0.000000     0.000000 
x,y,z [Debye]:    -0.000002    -0.000001     0.000001 

 

Dipole moment calculation done in   0.0 sec 

Maximum memory used throughout the entire PROP-calculation: 33.8 MB

--------------------------------
SUGGESTED CITATIONS FOR THIS RUN
--------------------------------

Below you find a list of papers that are relevant to this ORCA run
We neither can nor want to force you to cite these papers, but we appreciate if you do
You receive ORCA, which is the product of decades of hard work by many enthusiastic individuals, for free
The only thing we kindly ask in return is that you cite our papers,
We deeply appreciate it, if you show your appreciation for ORCA by not just citing the generic ORCA reference.

Please note that relegating all ORCA citations to the supporting information does *not* help us.
SI sections are not indexed - citations you put there will not count into any citation statistics
But we need these citations in order to attract the funding resources that allow us to do what we are doing

Therefore, if you are a happy ORCA user, please consider citing a few of the papers listed below in the main body of your paper

In addition to the list printed below, the program has created the file sp_solv.bibtex that contains the list in bibtex format
You can import this file easily into all common literature databanks and citation aid programs


List of essential papers. We consider these as the minimum necessary citations

  1. Neese,F.
     Software update: the ORCA program system, version 5.0
     WIRES Comput. Molec. Sci., 2022 12(1)e1606
     doi.org/10.1002/wcms.1606

List of papers to cite with high priority. The work reported in these papers was absolutely
necessary for this run to complete.
Our perspective: the developers of density functionals and basis sets usually get cited in chemistry papers
Good! But without the algorithms to do something with them, the functionals or basis sets would not do anything.
Hence, in our opinion, the algorithm design and method developments papers are equally worthy of getting cited

  1. Neese,F.
     An improvement of the resolution of the identity approximation for the formation of the Coulomb matrix
     J. Comp. Chem., 2003 24(14)1740-1747
     doi.org/10.1002/jcc.10318
  2. Neese,F.; Wennmohs,F.; Hansen,A.; Becker,U.
     Efficient, approximate and parallel Hartree-Fock and hybrid DFT calculations. A 'chain-of-spheres' algorithm for the Hartree-Fock exchange
     Chem. Phys., 2009 356(1-3)98-109
     doi.org/10.1016/j.chemphys.2008.10.036
  3. Garcia-Rates,M.; Neese,F.
     Effect of the Solute Cavity on the Solvation Energy and its Derivatives within the Framework of the Gaussian Charge Scheme
     J. Comput. Chem., 2020 41 922-939
     doi.org/10.1002/jcc.26139
  4. Helmich-Paris,B.; de Souza,B.; Neese,F.; Izsák,R.
     An improved chain of spheres for exchange algorithm
     J. Chem. Phys., 2021 155 104109
     doi.org/doi: 10.1063/5.0058766.
  5. Neese,F.
     The SHARK Integral Generation and Digestion System
     J. Comp. Chem., 2022  1-16
     doi.org/10.1002/jcc.26942

List of suggested additional citations. These are papers that are important in the 'surrounding' of 
of this run, or papers that preceded the highly important papers. If you like your results we are grateful for a citation.

  1. Izsak,R.; Neese,F.
     An overlap fitted chain of spheres exchange method
     J. Chem. Phys., 2011 135 144105
     doi.org/10.1063/1.3646921
  2. Izsak,R.; Hansen,A.; Neese,F.
     The resolution of identity and chain of spheres approximations for the LPNO-CCSD singles Fock term
     Molec. Phys., 2012 110 2413-2417
     doi.org/10.1080/00268976.2012.687466
  3. Neese,F.
     The ORCA program system
     WIRES Comput. Molec. Sci., 2012 2(1)73-78
     doi.org/10.1002/wcms.81
  4. Izsak,R.; Neese,F.; Klopper,W.
     Robust fitting techniques in the chain of spheres approximation to the Fock exchange: The role of the complementary space
     J. Chem. Phys., 2013 139 
     doi.org/10.1063/1.4819264
  5. Neese,F.
     Software update: the ORCA program system, version 4.0
     WIRES Comput. Molec. Sci., 2018 8(1)1-6
     doi.org/10.1002/wcms.1327
  6. Neese,F.; Wennmohs,F.; Becker,U.; Riplinger,C.
     The ORCA quantum chemistry program package
     J. Chem. Phys., 2020 152 Art. No. L224108
     doi.org/10.1063/5.0004608

List of optional additional citations

  1. Neese,F.
     Approximate second-order SCF convergence for spin unrestricted wavefunctions
     Chem. Phys. Lett., 2000 325(1-3)93-98
     doi.org/10.1016/s0009-2614(00)00662-x

Timings for individual modules:

Sum of individual times          ...      210.499 sec (=   3.508 min)
Startup calculation              ...        4.466 sec (=   0.074 min)   2.1 %
SCF iterations                   ...      205.909 sec (=   3.432 min)  97.8 %
Property calculations            ...        0.124 sec (=   0.002 min)   0.1 %
                             ****ORCA TERMINATED NORMALLY****
TOTAL RUN TIME: 0 days 0 hours 3 minutes 31 seconds 666 msec
