41
 energy: -2932.485850761187 gnorm: 0.001257158975 xtb: 6.7.1 (edcfbbe)
C            1.72776719404904        1.19543939250852        2.84419109197853
C            1.50751359014949       -0.15291609156560        2.21028185121448
O            2.35307095160686       -0.21385042857335        1.01171823914082
P            2.33381039508123       -1.53061785921268        0.08134393930183
S            2.55317237974100       -3.24606433138519        0.97514043439355
O            3.41233423736698       -1.10737583479661       -1.02830830433626
C            4.84557038635780       -1.41525696332899       -0.86454199221209
C            5.49889680160981       -0.54252740268637        0.17761990086646
S            0.51335205568659       -1.51873103590141       -0.97478467699311
C            0.48375819965529        0.16905030842799       -1.71876695474119
S           -0.12569425202256        1.53637715865011       -0.65636684479504
P           -2.14366183787900        0.96400282740572       -0.37172770692505
S           -2.95670226028630       -0.06522150284411       -1.81216730487712
O           -2.83935229682638        2.37126620768897       -0.00293031767754
C           -3.25868999995228        3.29794300660456       -1.06333341777225
C           -3.85714588756691        4.50516302446416       -0.38992286077567
O           -2.07693631296244        0.28165356812494        1.07723347436080
C           -3.24870493657398       -0.41597215628019        1.64227090968160
C           -2.91678798977081       -1.87803569728739        1.79215417075089
H            1.10792433790775        1.26910242860407        3.74289243048019
H            2.77443559278424        1.32406999556266        3.13443695769098
H            1.44424410802548        2.00094810862312        2.16118563933225
H            0.46454621417494       -0.29313999071902        1.90599194111867
H            1.80284225512705       -0.96889438745266        2.87727534197431
H            4.93895891966220       -2.47942402836394       -0.62766387643308
H            5.25600154640154       -1.23382520116273       -1.85918787274012
H            5.35299749171340        0.51718426079999       -0.04893130795264
H            5.11454549276835       -0.75069928672456        1.17997505027061
H            6.57351425468918       -0.75163986633289        0.17712039155375
H           -0.16012180452852        0.08833093176111       -2.59837555761101
H            1.48750393350529        0.46156700283611       -2.03684612974467
H           -2.37967343889901        3.56152100115594       -1.66120848127588
H           -3.98557302209715        2.78291931798122       -1.69808532850284
H           -4.72369325718278        4.22476671002542        0.21546030627410
H           -3.12232550333616        5.00680315167596        0.24591078998454
H           -4.18706346495219        5.20943534308724       -1.15964242920971
H           -3.43104633227812        0.06696137712321        2.60531377481392
H           -4.11779412119901       -0.25857126315599        0.99645692492789
H           -3.75440837581687       -2.38829066767296        2.27857603005712
H           -2.74579368403725       -2.34122202841557        0.81609888759078
H           -2.02407998550843       -2.01140658025409        2.41074984326968
41
 energy: -2932.485851931021 gnorm: 0.001479134451 xtb: 6.7.1 (edcfbbe)
C            1.72644655007234        1.19449132411846        2.84538705614662
C            1.50613786331020       -0.15371640068444        2.21114501084307
O            2.35216392829049       -0.21507574659194        1.01254374302604
P            2.33140947780641       -1.53108160150442        0.08104971505955
S            2.55609528911939       -3.24499447943520        0.97669869376670
O            3.41046803361858       -1.10766931735907       -1.02784533134484
C            4.84428872687166       -1.41428963549821       -0.86521556717712
C            5.49845038504016       -0.54171332981454        0.17655985032544
S            0.50977909101137       -1.51908826408724       -0.97508130828404
C            0.48153903570481        0.17025055271603       -1.71588502294327
S           -0.12465214989662        1.54039743241581       -0.65429184588789
P           -2.14146335063759        0.96206727608519       -0.37471477474099
S           -2.95743998296695       -0.06735562683782       -1.81377629992598
O           -2.83687722582150        2.36922085318458       -0.00502023946433
C           -3.25793295190409        3.29684022405374       -1.06471769869856
C           -3.85515075254401        4.50407310312694       -0.39002422546163
O           -2.07431064316618        0.28065459198196        1.07469379262703
C           -3.24685686112122       -0.41515843305676        1.64140967731780
C           -2.91643613346756       -1.87720957610565        1.79275323999865
H            1.10709496888432        1.26771176442955        3.74456043224166
H            2.77335394378279        1.32316781675477        3.13503361060761
H            1.44230584672869        2.00033102860783        2.16305565150389
H            0.46320232652514       -0.29329408686938        1.90605790137331
H            1.80059196455910       -0.96998704529559        2.87813897410311
H            4.93931207486584       -2.47859850657597       -0.62908014571807
H            5.25378711460890       -1.23158448495756       -1.86026752656470
H            5.34919519968973        0.51820201228754       -0.04823209547819
H            5.11706658750977       -0.75245573856798        1.17983747495004
H            6.57402184927282       -0.74789247460912        0.17277423627690
H           -0.15981917290865        0.09003975039199       -2.59764045659554
H            1.48682415539621        0.46107535314830       -2.03280744102805
H           -2.37967338979629        3.56010488271732       -1.66391831923898
H           -3.98588130969316        2.78182885082295       -1.69829812735498
H           -4.72134365707113        4.22394840760168        0.21608199401263
H           -3.11943045667127        5.00474958107673        0.24542752615108
H           -4.18534553193901        5.20967755820287       -1.15842269655347
H           -3.42831170698085        0.06900697307033        2.60396185403612
H           -4.11596672725498       -0.25727041715805        0.99572518961711
H           -3.75480231037766       -2.38591410429961        2.27936505294255
H           -2.74585251803556       -2.34176665069528        0.81740165523793
H           -2.02448775611455       -2.01089616909807        2.41220896108231
41
 energy: -2932.485863039508 gnorm: 0.000756495741 xtb: 6.7.1 (edcfbbe)
C            1.72473000151505        1.19362329068667        2.84678235699399
C            1.50437109789869       -0.15438935330880        2.21218517298491
O            2.35132958411640       -0.21581225888767        1.01396616008189
P            2.33090994333604       -1.53172787566904        0.08228218965478
S            2.55549966273748       -3.24614721110869        0.97700490766371
O            3.40904194276280       -1.10779123942275       -1.02707682626044
C            4.84337951941925       -1.41305957025571       -0.86638414859268
C            5.49786536714883       -0.54053480522152        0.17523787685696
S            0.50977297783006       -1.51959463176257       -0.97441530083277
C            0.48511956148675        0.16876767707657       -1.71757037228381
S           -0.12482883280390        1.53790266986853       -0.65702855134030
P           -2.14154295864744        0.96260986939531       -0.37435317218243
S           -2.95318871647067       -0.06756080046065       -1.81523478028139
O           -2.83807515593523        2.36919352477074       -0.00492214330768
C           -3.25871278001222        3.29661990935148       -1.06539428187121
C           -3.85406193044769        4.50427213026321       -0.38999256307457
O           -2.07357336393472        0.28103689745555        1.07489539923042
C           -3.24632131671364       -0.41455684254460        1.64182941291665
C           -2.91645038190306       -1.87648765440212        1.79392814029517
H            1.10594800509194        1.26621259643619        3.74644977454798
H            2.77184236381950        1.32238564236840        3.13582908933284
H            1.43992042647549        1.99977006893705        2.16511587947952
H            0.46158479098378       -0.29363268478016        1.90623790181471
H            1.79822083011615       -0.97090144827763        2.87913134198283
H            4.93977123591947       -2.47749130640499       -0.63106383336057
H            5.25144107070592       -1.22901639705570       -1.86191462764102
H            5.34496847256329        0.51949433457575       -0.04738188895154
H            5.11982398071924       -0.75415414972513        1.17936278738482
H            6.57425005419153       -0.74352093103265        0.16791370364527
H           -0.15521184766588        0.08889527611208       -2.60017028843325
H            1.49127443684719        0.45934378527294       -2.03281538434507
H           -2.38045146381930        3.55870922472519       -1.66521455902241
H           -3.98735393797777        2.78158438404016       -1.69817691192758
H           -4.72006443851405        4.22472049818051        0.21668049904922
H           -3.11714104937659        5.00353874429930        0.24515671841923
H           -4.18386471235488        5.21088771747288       -1.15760911169774
H           -3.42732871066600        0.07043649960367        2.60399421562666
H           -4.11513302880769       -0.25633715763517        0.99583581751751
H           -3.75537443301004       -2.38433256435671        2.28040328600342
H           -2.74579290954624       -2.34183311820790        0.81903245904322
H           -2.02510933664961       -2.01030144243601        2.41413338646238
41
 energy: -2932.485869325260 gnorm: 0.000893439197 xtb: 6.7.1 (edcfbbe)
C            1.72148668982218        1.19161489416794        2.84920740601334
C            1.50131226477657       -0.15602708697881        2.21385590732032
O            2.35019545301805       -0.21705131401370        1.01677506323332
P            2.33199289316361       -1.53304758846147        0.08506173436352
S            2.55196542715434       -3.24956065628287        0.97671743937165
O            3.40739436349273       -1.10745616715276       -1.02588271811222
C            4.84227786734228       -1.41055084805320       -0.86877465559380
C            5.49664724905543       -0.53796487880444        0.17285677938314
S            0.51207102501497       -1.51900996328345       -0.97155007039437
C            0.48851524764346        0.16767140713439       -1.71858255040786
S           -0.12206390441108        1.53803389590235       -0.66014342231951
P           -2.13911724562981        0.96236390348932       -0.37558017399498
S           -2.95157109483964       -0.06862907952837       -1.81529403491043
O           -2.83765769823182        2.36774018268261       -0.00620416929983
C           -3.25912602107304        3.29516792261353       -1.06666458809893
C           -3.85122194936543        4.50373964172908       -0.39021951172377
O           -2.07120526824999        0.28057279255411        1.07357228060972
C           -3.24501767936203       -0.41292114614107        1.64152476929067
C           -2.91675522689476       -1.87489659666406        1.79599200015493
H            1.10355783881450        1.26302776854620        3.74952617601595
H            2.76871970483698        1.32073677365071        3.13754900446781
H            1.43564432001366        1.99816528089360        2.16845171036439
H            0.45897279139529       -0.29498295977870        1.90646589847589
H            1.79437850056231       -0.97284741793254        2.88075519078871
H            4.94040634439306       -2.47513046724880       -0.63506200200538
H            5.24768527092442       -1.22456669779529       -1.86491347482160
H            5.33778575155816        0.52193496046439       -0.04579856326446
H            5.12419659891279       -0.75633073315336        1.17794985672106
H            6.57383836783783       -0.73567346727015        0.16004039621387
H           -0.15049491349456        0.08776852975921       -2.60203949796932
H            1.49530421891174        0.45735476977853       -2.03178273660653
H           -2.38163888736979        3.55584396736457       -1.66815305782404
H           -3.98962642356311        2.78085584911552       -1.69784333535437
H           -4.71679825797885        4.22551353752310        0.21759451669963
H           -3.11231991240167        5.00110390544274        0.24417971156336
H           -4.18073387774554        5.21139173515506       -1.15700230162214
H           -3.42524375378611        0.07364355591565        2.60303655823890
H           -4.11382229698567       -0.25482661325397        0.99553994740972
H           -3.75666531093437       -2.38111821101996        2.28260802033396
H           -2.74581657848458       -2.34191710483702        0.82192351060876
H           -2.02599711495464       -2.00891172530318        2.41704053922885
41
 energy: -2932.485876574633 gnorm: 0.000825496736 xtb: 6.7.1 (edcfbbe)
C            1.71742428233932        1.18834362469359        2.85252092923818
C            1.49811656178576       -0.15871132262696        2.21568105447202
O            2.34905588170818       -0.21889195052416        1.01984649934077
P            2.33040669356102       -1.53327962285237        0.08579053925330
S            2.55265529939014       -3.25001175030438        0.97617014495464
O            3.40500989654704       -1.10619189782100       -1.02499123499449
C            4.84051791763021       -1.40701563195687       -0.87117018675768
C            5.49529238806852       -0.53452949511115        0.17019623449247
S            0.50973799006824       -1.52083208979033       -0.97060545466734
C            0.49185993959153        0.16565180054687       -1.71822140303199
S           -0.12042237474337        1.53754285893237       -0.66261849731349
P           -2.13709645004258        0.96124316236586       -0.37754827656491
S           -2.94807497695001       -0.07031856544427       -1.81771954477685
O           -2.83644569745531        2.36607749967820       -0.00820850286605
C           -3.25921708785231        3.29344230458639       -1.06834253233800
C           -3.84699739523140        4.50332653980957       -0.39064071761893
O           -2.06805835738422        0.27978189887221        1.07170389384819
C           -3.24301264855953       -0.41053654284388        1.64141520824615
C           -2.91710361351792       -1.87270423556449        1.79902760403086
H            1.10014422324555        1.25813657062361        3.75339804032083
H            2.76467792329214        1.31803369852330        3.14033512881535
H            1.43038501320583        1.99547039850834        2.17293118346464
H            0.45637676490646       -0.29694143819568        1.90618141569323
H            1.78958840181868       -0.97619744149025        2.88245394199860
H            4.94121389769324       -2.47180152536485       -0.63969052643808
H            5.24329327886164       -1.21865348026385       -1.86781444978736
H            5.32861719946632        0.52507560294263       -0.04367411788219
H            5.12962020117851       -0.75892101134214        1.17635296727916
H            6.57350383330463       -0.72536239045711        0.15070673614410
H           -0.14486392251400        0.08618510238838       -2.60319819605575
H            1.49963528747416        0.45390204858769       -2.02872905855978
H           -2.38297576874500        3.55188836494178       -1.67251614170591
H           -3.99253892894308        2.77980503563941       -1.69676569936959
H           -4.71192728128270        4.22705394243518        0.21897047816178
H           -3.10543374697310        4.99855908079244        0.24239765080626
H           -4.17638650655405        5.21188124313735       -1.15661787303613
H           -3.42235971060436        0.07847635694197        2.60187507312119
H           -4.11151076108721       -0.25255007768762        0.99501171636361
H           -3.75832374291495       -2.37667332917333        2.28586162790015
H           -2.74593706499195       -2.34193173026987        0.82600507339465
H           -2.02703427711328       -2.00699655289263        2.42106750250748
41
 energy: -2932.485877485588 gnorm: 0.001264846672 xtb: 6.7.1 (edcfbbe)
C            1.70990435281128        1.18132530910727        2.85800172257664
C            1.49279624434690       -0.16498491761886        2.21872114428534
O            2.34691846789358       -0.22434396932301        1.02508358294729
P            2.32847404567112       -1.53715849137317        0.08871550154486
S            2.56229033232392       -3.25274291607012        0.97902177276861
O            3.40006200595426       -1.10571211886789       -1.02288596154830
C            4.83728420400452       -1.40049930426714       -0.87512194491224
C            5.49272544982459       -0.52798723529853        0.16570257076813
S            0.50838186612957       -1.52006865125713       -0.96948259479293
C            0.49431269624926        0.16487881087692       -1.71965330605957
S           -0.11891246621415        1.53768526529873       -0.66547505532818
P           -2.13392676679827        0.95883072892575       -0.38113477997660
S           -2.94178729631843       -0.07382211483460       -1.82235807974903
O           -2.83366072884797        2.36336248434526       -0.01188540464118
C           -3.25905327346355        3.29030199581956       -1.07119241566998
C           -3.83885625903476        4.50308066612468       -0.39183390111329
O           -2.06282788013137        0.27821302364638        1.06842268963834
C           -3.23962983240344       -0.40607068034487        1.64131842456460
C           -2.91788103680179       -1.86859767066235        1.80498903310247
H            1.09306525485571        1.24836110707461        3.75941952408814
H            2.75704639558432        1.31226321955006        3.14560127534740
H            1.42112679867810        1.98934483356184        2.18018497548658
H            0.45205514596422       -0.30258636736948        1.90575524763369
H            1.78193679707088       -0.98329720972343        2.88548456105310
H            4.94375957716860       -2.46550187095524       -0.64713716102718
H            5.23552496504967       -1.20772831565470       -1.87275061154018
H            5.31235080390789        0.53098261701710       -0.04040831688969
H            5.13827572435980       -0.76256911773499        1.17361158003175
H            6.57281023842150       -0.70668104821156        0.13526504979219
H           -0.13884127759762        0.08504942043197       -2.60694598658432
H            1.50399423712098        0.45048028353370       -2.02601195085832
H           -2.38543695721437        3.54458959506460       -1.68089678727770
H           -3.99778550284201        2.77779752897894       -1.69421892109216
H           -4.70238966237145        4.23085262312053        0.22165443176204
H           -3.09241119899816        4.99532101838622        0.23785706736206
H           -4.16841024002197        5.21253682802491       -1.15684566094652
H           -3.41779300356987        0.08776638659803        2.59958521450090
H           -4.10739631060557       -0.24844719619677        0.99381609496538
H           -3.76119866082936       -2.36842845596508        2.29245755897993
H           -2.74661071046970       -2.34191311632968        0.83390308285162
H           -2.02895462500073       -2.00304226797232        2.42867015902173
41
 energy: -2932.485885758071 gnorm: 0.000389438689 xtb: 6.7.1 (edcfbbe)
C            1.70908372060714        1.17985053855118        2.85836971814430
C            1.49314341699742       -0.16628852282190        2.21828057226101
O            2.34745034571391       -0.22395490942895        1.02492803179994
P            2.32973671997559       -1.53587826383179        0.08719040747413
S            2.55934439959800       -3.25336791599045        0.97451314055319
O            3.40148130669549       -1.10351338900151       -1.02406549757190
C            4.83834074347725       -1.39886838070575       -0.87556796156224
C            5.49303112219917       -0.52662164327126        0.16600213553057
S            0.50850159577211       -1.52269680385342       -0.96895027637822
C            0.49373499351353        0.16298772005742       -1.71798049494719
S           -0.11796931031150        1.53724303764428       -0.66474896123278
P           -2.13337871393583        0.95864568743820       -0.38118765936364
S           -2.94357624770077       -0.07386244427439       -1.82113125874914
O           -2.83299936696137        2.36338903871357       -0.01206823135714
C           -3.25885573234550        3.28987008709616       -1.07120291180423
C           -3.83766554802421        4.50357776769116       -0.39252287739938
O           -2.06312998467083        0.27811223916396        1.06843739494598
C           -3.24003391110397       -0.40545262014548        1.64130813404732
C           -2.91835816935535       -1.86793906955397        1.80611235730960
H            1.09129984123841        1.24621515620308        3.75920068016040
H            2.75597631876225        1.31112577738425        3.14694654218289
H            1.42059340521880        1.98797434125920        2.18056409511241
H            0.45245753902834       -0.30462837294975        1.90525636356870
H            1.78292942003549       -0.98475232295114        2.88463045152021
H            4.94452024001328       -2.46390098475045       -0.64742551222373
H            5.23727441692968       -1.20600423431838       -1.87296352891449
H            5.31307289948406        0.53225150021167       -0.04026265997401
H            5.13752586741132       -0.76101969718352        1.17345275970095
H            6.57295169957744       -0.70549264894045        0.13662428769348
H           -0.14035861272064        0.08312068653134       -2.60472791472094
H            1.50294468087707        0.44895788643765       -2.02619720743294
H           -2.38577234800136        3.54369669657872       -1.68191058923973
H           -3.99830242162116        2.77758517038677       -1.69354330930686
H           -4.70077663634805        4.23234283921173        0.22201884855202
H           -3.09064409466619        4.99644547763622        0.23588047390210
H           -4.16763566146022        5.21230666822791       -1.15802482713177
H           -3.41870252937908        0.08894364858308        2.59916316450043
H           -4.10777483988794       -0.24840015288312        0.99358819946092
H           -3.76149061612009       -2.36746954178917        2.29399589496694
H           -2.74729699557645       -2.34180913815242        0.83530007848934
H           -2.02935508912298       -2.00186972535271        2.42974895898988
41
 energy: -2932.485890674057 gnorm: 0.000514247702 xtb: 6.7.1 (edcfbbe)
C            1.70606182630260        1.17531641809594        2.85985696773501
C            1.49242293288929       -0.17053760063085        2.21823990894755
O            2.34750193460609       -0.22581537246502        1.02556131399780
P            2.33128711937552       -1.53630713282124        0.08585098334470
S            2.56257023424050       -3.25466045652247        0.97086685349770
O            3.40224779522323       -1.10111454208476       -1.02504604870422
C            4.83922289578470       -1.39506077477918       -0.87680073104221
C            5.49267877610815       -0.52269397643740        0.16561266998541
S            0.50934557694602       -1.52486303934544       -0.96882495444787
C            0.49399554297053        0.16070234751610       -1.71840140023953
S           -0.11624319367062        1.53587054653578       -0.66559659241803
P           -2.13253148288436        0.95845323776360       -0.38125285188908
S           -2.94511685111382       -0.07414464204921       -1.81987363957154
O           -2.83204090128442        2.36344105355446       -0.01251672779092
C           -3.25876779839640        3.28881346075303       -1.07186088498065
C           -3.83404754651960        4.50475998606059       -0.39405238865806
O           -2.06314545994565        0.27805456103793        1.06848227186038
C           -3.24062063647380       -0.40360868037241        1.64180252236847
C           -2.91960579515200       -1.86593585990700        1.80957116581412
H            1.08688290370092        1.24029510642196        3.75982394991032
H            2.75236336552447        1.30751403541073        3.15010677267218
H            1.41773586407867        1.98369927092371        2.18231413593011
H            0.45200109547378       -0.30991739120825        1.90473753181524
H            1.78272372901827       -0.98909618764154        2.88427735265296
H            4.94671132075620       -2.46014752452612       -0.64962781607074
H            5.23807753336822       -1.20094753640988       -1.87395039456059
H            5.31092013415975        0.53605267649022       -0.03918634765813
H            5.13803418870036       -0.75883144464631        1.17284494073943
H            6.57277784456613       -0.69963542427116        0.13564537171810
H           -0.14157199378792        0.08068027453319       -2.60416046809890
H            1.50266051714912        0.44672936923436       -2.02832085919016
H           -2.38687857600494        3.54055785058527       -1.68516243089410
H           -4.00053016052682        2.77709701527013       -1.69192736976981
H           -4.69602530638875        4.23612791424305        0.22318754368738
H           -3.08470801559560        4.99778265346173        0.23146995462167
H           -4.16485334752696        5.21245399366359       -1.16017083373385
H           -3.41995385869324        0.09242041284212        2.59868722334562
H           -4.10813099208816       -0.24776730411656        0.99343497227294
H           -3.76292602877263       -2.36425393253698        2.29834568314793
H           -2.74859294461859       -2.34166453149670        0.83965975000035
H           -2.03065747173705       -1.99894750631640        2.43347281883932
41
 energy: -2932.485890674057 gnorm: 0.000514247702 xtb: 6.7.1 (edcfbbe)
C            1.70606182630260        1.17531641809594        2.85985696773501
C            1.49242293288929       -0.17053760063085        2.21823990894755
O            2.34750193460609       -0.22581537246502        1.02556131399780
P            2.33128711937552       -1.53630713282124        0.08585098334470
S            2.56257023424050       -3.25466045652247        0.97086685349770
O            3.40224779522323       -1.10111454208476       -1.02504604870422
C            4.83922289578470       -1.39506077477918       -0.87680073104221
C            5.49267877610815       -0.52269397643740        0.16561266998541
S            0.50934557694602       -1.52486303934544       -0.96882495444787
C            0.49399554297053        0.16070234751610       -1.71840140023953
S           -0.11624319367062        1.53587054653578       -0.66559659241803
P           -2.13253148288436        0.95845323776360       -0.38125285188908
S           -2.94511685111382       -0.07414464204921       -1.81987363957154
O           -2.83204090128442        2.36344105355446       -0.01251672779092
C           -3.25876779839640        3.28881346075303       -1.07186088498065
C           -3.83404754651960        4.50475998606059       -0.39405238865806
O           -2.06314545994565        0.27805456103793        1.06848227186038
C           -3.24062063647380       -0.40360868037241        1.64180252236847
C           -2.91960579515200       -1.86593585990700        1.80957116581412
H            1.08688290370092        1.24029510642196        3.75982394991032
H            2.75236336552447        1.30751403541073        3.15010677267218
H            1.41773586407867        1.98369927092371        2.18231413593011
H            0.45200109547378       -0.30991739120825        1.90473753181524
H            1.78272372901827       -0.98909618764154        2.88427735265296
H            4.94671132075620       -2.46014752452612       -0.64962781607074
H            5.23807753336822       -1.20094753640988       -1.87395039456059
H            5.31092013415975        0.53605267649022       -0.03918634765813
H            5.13803418870036       -0.75883144464631        1.17284494073943
H            6.57277784456613       -0.69963542427116        0.13564537171810
H           -0.14157199378792        0.08068027453319       -2.60416046809890
H            1.50266051714912        0.44672936923436       -2.02832085919016
H           -2.38687857600494        3.54055785058527       -1.68516243089410
H           -4.00053016052682        2.77709701527013       -1.69192736976981
H           -4.69602530638875        4.23612791424305        0.22318754368738
H           -3.08470801559560        4.99778265346173        0.23146995462167
H           -4.16485334752696        5.21245399366359       -1.16017083373385
H           -3.41995385869324        0.09242041284212        2.59868722334562
H           -4.10813099208816       -0.24776730411656        0.99343497227294
H           -3.76292602877263       -2.36425393253698        2.29834568314793
H           -2.74859294461859       -2.34166453149670        0.83965975000035
H           -2.03065747173705       -1.99894750631640        2.43347281883932
