 Entering Gaussian System
 *********************************************
 Gaussian 98:
 frequency output generated by the xtb code
 *********************************************
                         Standard orientation:
 --------------------------------------------------------------------
  Center     Atomic     Atomic              Coordinates (Angstroms)
  Number     Number      Type              X           Y           Z
 --------------------------------------------------------------------
    1          6             0        3.010881   -2.505429    1.827326
    2          6             0        1.808922   -2.310367    0.927032
    3          8             0        1.408828   -0.926113    0.876989
    4         15             0        2.194997    0.157873    0.037769
    5         16             0        3.241310   -0.494453   -1.490832
    6          8             0        3.025404    0.890392    1.174317
    7          6             0        3.957107    1.951848    0.876763
    8          6             0        4.794679    2.195296    2.116327
    9         16             0        0.668807    1.558434   -0.408119
   10          6             0        0.101480    0.792642   -1.948336
   11         16             0       -0.651661   -0.837591   -1.686827
   12         15             0       -2.362072   -0.185498   -0.627633
   13         16             0       -3.118904    1.529920   -1.209559
   14          8             0       -2.025273   -0.264860    0.926825
   15          6             0       -2.034064    0.861035    1.830468
   16          6             0       -0.985141    0.633921    2.898713
   17          8             0       -3.202521   -1.509511   -0.869245
   18          6             0       -4.207356   -1.998110    0.046734
   19          6             0       -5.445523   -1.123985    0.066898
   20          1             0        3.875600   -1.996107    1.403969
   21          1             0        2.812077   -2.099667    2.815465
   22          1             0        3.230099   -3.565696    1.908556
   23          1             0        0.926279   -2.826750    1.306737
   24          1             0        2.024251   -2.650272   -0.091398
   25          1             0        4.574748    1.645120    0.026162
   26          1             0        3.386449    2.842688    0.600155
   27          1             0        5.356410    1.301637    2.372354
   28          1             0        5.486308    3.009073    1.923868
   29          1             0        4.152211    2.459281    2.951119
   30          1             0        0.949524    0.640513   -2.615961
   31          1             0       -0.630933    1.473341   -2.382855
   32          1             0       -1.847349    1.779888    1.266930
   33          1             0       -3.034796    0.912049    2.267488
   34          1             0        0.010183    0.630342    2.461299
   35          1             0       -1.051418    1.432089    3.630678
   36          1             0       -1.156687   -0.320068    3.389263
   37          1             0       -4.431457   -2.997036   -0.330724
   38          1             0       -3.763391   -2.069716    1.042485
   39          1             0       -5.204137   -0.130182    0.442328
   40          1             0       -5.852466   -1.021051   -0.935916
   41          1             0       -6.192556   -1.576733    0.711997
 --------------------------------------------------------------------
     1 basis functions        1 primitive gaussians
     1 alpha electrons        1 beta electrons
 
 Harmonic frequencies (cm**-1), IR intensities (km*mol⁻¹),
 Raman scattering activities (A**4/amu), Raman depolarization ratios,
 reduced masses (AMU), force constants (mDyne/A) and normal coordinates:
                      1                      2                      3
                        a                      a                      a 
 Frequencies --    47.6274                51.1093                54.2443
 Red. masses --    21.6990                23.5924                18.1233
 Frc consts  --     0.0000                 0.0000                 0.0000
 IR Inten    --     0.5405                 2.7057                 0.8912
 Raman Activ --     0.0000                 0.0000                 0.0000
 Depolar     --     0.0000                 0.0000                 0.0000
 Atom AN      X      Y      Z        X      Y      Z        X      Y      Z
   1   6     0.15  -0.08  -0.07    -0.01  -0.00  -0.08    -0.13  -0.09  -0.16
   2   6     0.16  -0.03  -0.07     0.03  -0.00  -0.13    -0.12  -0.01  -0.16
   3   8     0.21  -0.03  -0.01     0.01  -0.01  -0.14    -0.10   0.00  -0.10
   4  15     0.22   0.01  -0.01     0.03   0.08  -0.06    -0.07   0.08   0.01
   5  16     0.15   0.14  -0.12     0.41   0.27   0.12     0.06   0.27   0.02
   6   8     0.20  -0.03  -0.01    -0.18   0.14   0.05    -0.10  -0.02   0.09
   7   6     0.13   0.01  -0.01    -0.09   0.08   0.10     0.05  -0.12   0.14
   8   6     0.13   0.02  -0.00    -0.07  -0.04   0.11     0.11  -0.30   0.13
   9  16     0.14  -0.03   0.18    -0.10  -0.13  -0.30    -0.05   0.10  -0.01
  10   6    -0.02  -0.04   0.16    -0.01  -0.24  -0.12    -0.02   0.03   0.00
  11  16    -0.04  -0.05   0.37    -0.12  -0.31   0.05     0.08  -0.00   0.02
  12  15    -0.26  -0.00   0.00    -0.01  -0.04   0.06     0.04  -0.08   0.01
  13  16    -0.13  -0.04  -0.28     0.26   0.10   0.09    -0.23  -0.30  -0.28
  14   8    -0.41   0.05   0.05    -0.01  -0.07   0.04     0.09   0.14   0.01
  15   6    -0.16   0.08  -0.01     0.03  -0.06   0.04     0.08   0.18  -0.07
  16   6    -0.10   0.02  -0.08     0.07  -0.08   0.01     0.05   0.20  -0.03
  17   8    -0.15  -0.01  -0.04    -0.17   0.08   0.04     0.15  -0.17   0.20
  18   6    -0.14  -0.03  -0.06    -0.15   0.11   0.05     0.07  -0.01   0.17
  19   6    -0.12   0.00  -0.03    -0.12   0.16   0.05     0.13   0.08   0.09
  20   1     0.05  -0.02  -0.01     0.00   0.00  -0.01    -0.03  -0.03  -0.04
  21   1     0.04  -0.03  -0.02    -0.02  -0.01  -0.02    -0.04  -0.04  -0.04
  22   1     0.04  -0.03  -0.03    -0.00  -0.00  -0.03    -0.05  -0.03  -0.06
  23   1     0.04  -0.01  -0.03     0.01  -0.01  -0.05    -0.04  -0.00  -0.06
  24   1     0.04   0.00  -0.02     0.02   0.01  -0.04    -0.04   0.01  -0.05
  25   1     0.04   0.01  -0.00    -0.03   0.02   0.02    -0.00  -0.04   0.03
  26   1     0.03  -0.00   0.00    -0.01   0.04   0.04     0.04  -0.01   0.06
  27   1     0.04   0.01  -0.00    -0.03  -0.02   0.02     0.01  -0.11   0.02
  28   1     0.03   0.01   0.00    -0.01  -0.02   0.04     0.05  -0.10   0.05
  29   1     0.03   0.00  -0.00    -0.01  -0.01   0.04     0.04  -0.09   0.05
  30   1    -0.02  -0.02   0.03     0.00  -0.09  -0.02    -0.01   0.02  -0.00
  31   1    -0.01  -0.01   0.05     0.01  -0.08  -0.06    -0.02   0.00   0.00
  32   1    -0.03   0.01  -0.02     0.01  -0.02   0.01     0.03   0.04  -0.03
  33   1    -0.03   0.06   0.02     0.01  -0.02   0.02     0.02   0.07  -0.03
  34   1    -0.04  -0.02  -0.04     0.02  -0.02  -0.01     0.02   0.05  -0.00
  35   1     0.00   0.01  -0.02     0.02  -0.02   0.01     0.01   0.06  -0.02
  36   1    -0.04   0.01  -0.02     0.02  -0.02   0.00     0.00   0.06  -0.00
  37   1    -0.05  -0.00  -0.03    -0.06   0.03   0.02    -0.00  -0.00   0.06
  38   1    -0.04  -0.02  -0.02    -0.04   0.03   0.01     0.01   0.01   0.05
  39   1    -0.03  -0.00   0.00    -0.02   0.04   0.01     0.05   0.02   0.02
  40   1    -0.04   0.01  -0.01    -0.03   0.05   0.02     0.05   0.02   0.02
  41   1    -0.04   0.00  -0.01    -0.04   0.06   0.02     0.02   0.04   0.02
                      4                      5                      6
                        a                      a                      a 
 Frequencies --    58.9242                70.2438                63.7530
 Red. masses --    21.0828                24.9733                16.1261
 Frc consts  --     0.0000                 0.0000                 0.0000
 IR Inten    --     3.4619                 0.6638                 2.0778
 Raman Activ --     0.0000                 0.0000                 0.0000
 Depolar     --     0.0000                 0.0000                 0.0000
 Atom AN      X      Y      Z        X      Y      Z        X      Y      Z
   1   6    -0.24  -0.07  -0.12    -0.15   0.08   0.13    -0.02   0.10   0.10
   2   6    -0.26   0.12  -0.06    -0.05   0.02  -0.02    -0.04   0.12   0.13
   3   8    -0.09   0.21   0.03    -0.04   0.02  -0.21     0.00   0.15   0.12
   4  15    -0.04   0.15  -0.06     0.18  -0.05  -0.18     0.03   0.14   0.09
   5  16    -0.14  -0.10  -0.03     0.35  -0.19  -0.01     0.16  -0.03   0.27
   6   8     0.03   0.08  -0.07     0.06  -0.10  -0.03    -0.02   0.20   0.03
   7   6     0.08   0.02  -0.07     0.02  -0.02   0.09     0.20  -0.04  -0.05
   8   6     0.09  -0.04  -0.06    -0.16   0.03   0.20     0.41  -0.27  -0.15
   9  16     0.12   0.29  -0.19     0.36   0.11  -0.27    -0.01   0.06  -0.10
  10   6    -0.01  -0.01   0.00    -0.01   0.06  -0.08    -0.01   0.02  -0.05
  11  16     0.24  -0.07   0.36    -0.13   0.16  -0.01    -0.12   0.06  -0.16
  12  15     0.08  -0.12   0.15    -0.12   0.05   0.08    -0.13  -0.01  -0.12
  13  16     0.20  -0.08   0.10    -0.35  -0.01   0.22    -0.21   0.01   0.05
  14   8    -0.14  -0.13   0.14    -0.03   0.04   0.05    -0.04  -0.10  -0.10
  15   6    -0.05  -0.09   0.10     0.00   0.05   0.02    -0.01  -0.13  -0.03
  16   6    -0.01  -0.08   0.06    -0.00   0.04   0.02    -0.01  -0.19  -0.04
  17   8     0.08  -0.07  -0.01     0.03  -0.04   0.07    -0.11   0.00  -0.13
  18   6    -0.06  -0.04  -0.14     0.02  -0.08   0.02    -0.00  -0.07  -0.04
  19   6    -0.02   0.02  -0.23    -0.05  -0.18  -0.06     0.00  -0.07   0.15
  20   1    -0.06  -0.04  -0.04    -0.03   0.01   0.05    -0.00   0.02   0.02
  21   1    -0.05  -0.03  -0.02    -0.07   0.04   0.02     0.01   0.03   0.03
  22   1    -0.10  -0.03  -0.06    -0.05   0.02   0.06    -0.01   0.03   0.03
  23   1    -0.09   0.06  -0.01    -0.03   0.02  -0.02    -0.01   0.04   0.05
  24   1    -0.10   0.04  -0.02     0.02  -0.02   0.01    -0.02   0.03   0.04
  25   1     0.02  -0.00  -0.02     0.04   0.01   0.05     0.01  -0.05  -0.04
  26   1     0.04   0.02  -0.02    -0.00  -0.02   0.01     0.11   0.03   0.01
  27   1     0.01  -0.02  -0.02    -0.04   0.02   0.08     0.08  -0.11  -0.08
  28   1     0.04  -0.02  -0.01    -0.05   0.02   0.08     0.15  -0.11  -0.05
  29   1     0.03  -0.01  -0.02    -0.08   0.00   0.03     0.16  -0.06  -0.01
  30   1    -0.02  -0.00  -0.02    -0.03  -0.00  -0.05    -0.00  -0.01  -0.01
  31   1    -0.03  -0.03   0.00    -0.00   0.03  -0.00     0.01   0.01  -0.02
  32   1    -0.02  -0.03   0.02     0.01   0.01   0.00     0.00  -0.03   0.00
  33   1    -0.01  -0.02   0.04     0.00   0.02   0.01    -0.00  -0.04  -0.01
  34   1    -0.01  -0.03   0.01    -0.00   0.00   0.00    -0.00  -0.05  -0.01
  35   1     0.01  -0.02   0.02     0.01   0.02   0.00    -0.00  -0.06  -0.00
  36   1     0.00  -0.02   0.02    -0.01   0.01   0.01    -0.00  -0.06  -0.02
  37   1    -0.02  -0.01  -0.06     0.03  -0.03   0.01    -0.01  -0.01  -0.03
  38   1    -0.05  -0.03  -0.03    -0.01  -0.01   0.01     0.03  -0.04  -0.03
  39   1    -0.00  -0.00  -0.05    -0.04  -0.04  -0.02     0.01  -0.03   0.05
  40   1     0.02   0.02  -0.08    -0.00  -0.06  -0.03    -0.03   0.00   0.06
  41   1    -0.03   0.01  -0.09    -0.02  -0.06  -0.03     0.02  -0.03   0.06
                      7                      8                      9
                        a                      a                      a 
 Frequencies --    63.2692                72.6352                73.5185
 Red. masses --    14.6853                16.7120                12.4973
 Frc consts  --     0.0000                 0.0000                 0.0000
 IR Inten    --     1.7774                 7.9876                 0.8456
 Raman Activ --     0.0000                 0.0000                 0.0000
 Depolar     --     0.0000                 0.0000                 0.0000
 Atom AN      X      Y      Z        X      Y      Z        X      Y      Z
   1   6     0.04   0.24   0.33     0.05  -0.27  -0.22    -0.26  -0.18   0.17
   2   6     0.16   0.04   0.13    -0.03  -0.05  -0.07    -0.08   0.01  -0.02
   3   8     0.03  -0.01  -0.09     0.11  -0.01   0.17     0.11   0.06  -0.00
   4  15     0.00   0.03  -0.09     0.06  -0.02   0.15     0.15   0.04  -0.06
   5  16    -0.09   0.22  -0.24     0.15  -0.10   0.26     0.06   0.06  -0.13
   6   8     0.05  -0.03  -0.07    -0.00   0.12   0.05     0.15   0.02  -0.07
   7   6     0.14  -0.10  -0.01    -0.05   0.12  -0.09     0.06   0.09  -0.04
   8   6     0.11  -0.19   0.03     0.06   0.20  -0.18    -0.05   0.20   0.01
   9  16    -0.14  -0.08   0.09    -0.01  -0.09   0.07     0.05  -0.02   0.08
  10   6    -0.04  -0.01   0.02     0.00   0.01   0.01     0.01   0.03   0.03
  11  16    -0.04  -0.05  -0.06    -0.09   0.03  -0.13     0.03  -0.00  -0.12
  12  15     0.04  -0.09   0.08    -0.01  -0.03   0.03     0.02  -0.11  -0.09
  13  16    -0.07  -0.11   0.19    -0.30  -0.11   0.18    -0.09  -0.15  -0.04
  14   8     0.09  -0.05   0.04     0.13   0.02  -0.00     0.15  -0.09  -0.09
  15   6     0.03  -0.02   0.01     0.09   0.04  -0.03    -0.09  -0.13  -0.01
  16   6     0.02   0.05   0.03     0.10   0.09  -0.03    -0.27  -0.19   0.16
  17   8     0.06  -0.09   0.07     0.07  -0.08   0.09    -0.03  -0.06  -0.00
  18   6    -0.15   0.10  -0.07    -0.12   0.09  -0.05    -0.05   0.12   0.07
  19   6    -0.11   0.18  -0.40    -0.09   0.14  -0.35     0.11   0.36   0.22
  20   1     0.02   0.07   0.12     0.01  -0.08  -0.07    -0.04  -0.07   0.10
  21   1    -0.04   0.10   0.07     0.05  -0.11  -0.05    -0.11  -0.06   0.05
  22   1     0.03   0.08   0.14    -0.01  -0.09  -0.11    -0.11  -0.06   0.04
  23   1     0.04  -0.00   0.01    -0.01  -0.01  -0.01    -0.06   0.02  -0.06
  24   1     0.10  -0.01   0.06    -0.05   0.02  -0.04     0.01   0.01  -0.00
  25   1     0.04  -0.04   0.00    -0.03   0.03  -0.04     0.04   0.03   0.00
  26   1     0.07  -0.01  -0.00    -0.03   0.03  -0.02    -0.00   0.01  -0.03
  27   1     0.01  -0.07   0.01     0.03   0.06  -0.05    -0.01   0.07   0.03
  28   1     0.05  -0.07   0.02     0.01   0.06  -0.08    -0.02   0.07   0.01
  29   1     0.03  -0.04   0.00     0.04   0.07  -0.04    -0.04   0.06  -0.01
  30   1    -0.01   0.00   0.01     0.00   0.00   0.00    -0.00   0.02   0.00
  31   1    -0.01  -0.00   0.00     0.01   0.01   0.00    -0.00   0.01   0.02
  32   1     0.00  -0.01  -0.00     0.02   0.01  -0.01     0.00  -0.03   0.02
  33   1     0.00  -0.01  -0.00     0.03   0.01  -0.01    -0.05  -0.05  -0.05
  34   1     0.01   0.01   0.01     0.03   0.03  -0.01    -0.06  -0.06   0.09
  35   1    -0.00   0.02  -0.00     0.02   0.03  -0.01    -0.11  -0.06   0.05
  36   1     0.01   0.02   0.02     0.04   0.03  -0.00    -0.11  -0.06   0.03
  37   1    -0.04   0.02   0.00    -0.03   0.02   0.01    -0.08   0.05   0.02
  38   1    -0.10   0.05   0.01    -0.08   0.05   0.01     0.01  -0.00   0.01
  39   1    -0.04   0.06  -0.13    -0.04   0.05  -0.11     0.09   0.08   0.08
  40   1     0.03   0.03  -0.14     0.03   0.02  -0.12     0.02   0.14   0.07
  41   1    -0.07   0.08  -0.14    -0.06   0.06  -0.13     0.02   0.13   0.07
                     10                     11                     12
                        a                      a                      a 
 Frequencies --    78.6918                75.8633                90.6009
 Red. masses --    13.4607                10.4024                13.0944
 Frc consts  --     0.0000                 0.0000                 0.0000
 IR Inten    --     3.7319                 0.5729                 7.5257
 Raman Activ --     0.0000                 0.0000                 0.0000
 Depolar     --     0.0000                 0.0000                 0.0000
 Atom AN      X      Y      Z        X      Y      Z        X      Y      Z
   1   6    -0.29  -0.24   0.16    -0.29  -0.13   0.28    -0.01  -0.12  -0.01
   2   6    -0.08  -0.07  -0.08    -0.07  -0.03   0.01    -0.01   0.07   0.03
   3   8     0.05  -0.04  -0.03     0.00  -0.02  -0.00     0.14   0.12   0.16
   4  15     0.03  -0.00   0.00    -0.01   0.01   0.03     0.06   0.11  -0.00
   5  16     0.13   0.26  -0.04    -0.02   0.15  -0.03    -0.22  -0.06  -0.12
   6   8     0.02   0.01  -0.01     0.02  -0.01   0.02     0.08   0.12  -0.06
   7   6     0.03  -0.02  -0.11    -0.04   0.02  -0.02     0.13   0.08   0.09
   8   6     0.15  -0.01  -0.20    -0.05   0.12  -0.03    -0.03  -0.00   0.22
   9  16    -0.10  -0.11   0.09    -0.03   0.01   0.11    -0.06  -0.03  -0.07
  10   6     0.03  -0.04   0.01    -0.01   0.03   0.05     0.00  -0.07  -0.03
  11  16    -0.04  -0.03  -0.04     0.00   0.03   0.03    -0.09  -0.08  -0.03
  12  15     0.06   0.08   0.03    -0.07  -0.02  -0.03    -0.02   0.09  -0.03
  13  16     0.16   0.15   0.09    -0.00  -0.00  -0.05    -0.03   0.03  -0.22
  14   8     0.08   0.09   0.01    -0.14  -0.07  -0.00     0.10   0.13  -0.05
  15   6    -0.13   0.09  -0.00     0.27  -0.03  -0.04     0.28   0.09  -0.01
  16   6    -0.20   0.19   0.09     0.54  -0.06  -0.31     0.04  -0.33   0.14
  17   8     0.01   0.07   0.02    -0.05  -0.00  -0.06    -0.06   0.07   0.13
  18   6     0.12  -0.09   0.05    -0.02  -0.05  -0.05     0.00   0.05   0.16
  19   6    -0.09  -0.38  -0.08     0.01  -0.01   0.06    -0.18  -0.20  -0.11
  20   1    -0.05  -0.08   0.11    -0.05  -0.04   0.14     0.01  -0.04   0.01
  21   1    -0.13  -0.08   0.04    -0.14  -0.04   0.07     0.01  -0.05   0.01
  22   1    -0.11  -0.08   0.04    -0.10  -0.04   0.08    -0.03  -0.04  -0.03
  23   1    -0.06  -0.01  -0.09    -0.05  -0.01  -0.06    -0.01   0.03   0.00
  24   1     0.03   0.00  -0.02     0.04   0.00   0.01    -0.02   0.03  -0.00
  25   1    -0.02  -0.02  -0.05    -0.01   0.00  -0.00     0.07   0.03   0.05
  26   1     0.01  -0.00  -0.03    -0.02  -0.00  -0.02     0.06   0.03   0.02
  27   1     0.04  -0.01  -0.06    -0.01   0.05   0.00    -0.03  -0.01   0.07
  28   1     0.04  -0.01  -0.08    -0.02   0.04  -0.02     0.01  -0.00   0.10
  29   1     0.07   0.01  -0.04    -0.02   0.04  -0.01    -0.04  -0.01   0.04
  30   1     0.02  -0.02   0.02    -0.00   0.01   0.02     0.01  -0.03   0.00
  31   1     0.02  -0.01  -0.01    -0.00   0.01   0.02     0.01  -0.02  -0.02
  32   1    -0.04   0.03  -0.00     0.05  -0.02  -0.03     0.19   0.01   0.02
  33   1    -0.05   0.00  -0.03     0.11   0.02   0.07     0.07   0.11  -0.05
  34   1    -0.05   0.06   0.04     0.13  -0.02  -0.15     0.03  -0.16   0.09
  35   1    -0.08   0.07   0.01     0.21  -0.02  -0.08     0.04  -0.11   0.06
  36   1    -0.05   0.06   0.04     0.18  -0.02  -0.08    -0.09  -0.10   0.00
  37   1     0.10  -0.05   0.04    -0.02  -0.00  -0.04     0.07  -0.02   0.10
  38   1     0.03   0.03   0.02     0.00  -0.04  -0.02    -0.01   0.10   0.06
  39   1    -0.09  -0.08  -0.06     0.02  -0.01   0.03    -0.12  -0.02  -0.08
  40   1    -0.03  -0.17  -0.03    -0.01   0.02   0.03    -0.03  -0.14  -0.05
  41   1    -0.00  -0.14  -0.01     0.01  -0.01   0.02    -0.04  -0.07  -0.03
                     13                     14                     15
                        a                      a                      a 
 Frequencies --    94.6248                99.3985               110.1409
 Red. masses --    13.3904                10.8938                11.6535
 Frc consts  --     0.0000                 0.0000                 0.0000
 IR Inten    --     1.5775                 1.7166                 5.0407
 Raman Activ --     0.0000                 0.0000                 0.0000
 Depolar     --     0.0000                 0.0000                 0.0000
 Atom AN      X      Y      Z        X      Y      Z        X      Y      Z
   1   6     0.01  -0.14  -0.10     0.00  -0.17   0.18    -0.03   0.10  -0.01
   2   6    -0.04   0.07   0.01     0.17  -0.04  -0.03    -0.06   0.02   0.01
   3   8     0.15   0.14   0.16     0.21  -0.03   0.11    -0.06   0.02  -0.07
   4  15     0.10   0.11   0.01     0.02  -0.00  -0.06     0.07  -0.01   0.00
   5  16    -0.20  -0.07  -0.11    -0.16  -0.16  -0.11    -0.01  -0.06  -0.04
   6   8     0.13   0.09  -0.05    -0.07   0.12  -0.06     0.08  -0.12   0.06
   7   6     0.24   0.01   0.12    -0.27   0.34   0.16    -0.22   0.18   0.13
   8   6    -0.04  -0.02   0.32     0.09  -0.21   0.03     0.12  -0.07  -0.06
   9  16    -0.05  -0.05  -0.03    -0.00  -0.04  -0.17     0.20   0.13   0.10
  10   6     0.01  -0.07  -0.01    -0.00  -0.03  -0.09    -0.02   0.09   0.10
  11  16    -0.07  -0.10  -0.11    -0.01   0.00   0.04     0.09   0.04  -0.01
  12  15    -0.01  -0.09  -0.06     0.01   0.07   0.04     0.00  -0.11  -0.09
  13  16     0.03   0.03   0.22    -0.08   0.03   0.05     0.08  -0.09  -0.12
  14   8     0.11  -0.10  -0.06    -0.09   0.06   0.05     0.22  -0.10  -0.11
  15   6    -0.17  -0.07  -0.08    -0.03   0.07   0.03    -0.07  -0.18   0.00
  16   6     0.06   0.37  -0.21    -0.03   0.06   0.02     0.06   0.03  -0.08
  17   8    -0.11   0.00  -0.08     0.13  -0.01  -0.03    -0.23   0.04   0.05
  18   6    -0.03  -0.03  -0.01     0.05  -0.06  -0.12    -0.10   0.16   0.24
  19   6    -0.03  -0.04   0.10     0.14   0.06   0.01    -0.26  -0.06  -0.02
  20   1     0.01  -0.06  -0.03     0.02  -0.03   0.12    -0.02   0.03  -0.02
  21   1     0.04  -0.05  -0.02    -0.05  -0.09   0.06    -0.00   0.04  -0.01
  22   1    -0.03  -0.05  -0.05    -0.01  -0.05   0.02    -0.00   0.03   0.01
  23   1    -0.02   0.04   0.01     0.03  -0.03  -0.08    -0.01   0.01   0.02
  24   1    -0.04   0.03  -0.01     0.11   0.03  -0.01    -0.02  -0.01   0.01
  25   1     0.11  -0.01   0.08    -0.14   0.23  -0.05    -0.12   0.17  -0.05
  26   1     0.10   0.01  -0.01    -0.13   0.12   0.23    -0.14   0.05   0.17
  27   1    -0.04  -0.01   0.13     0.07  -0.09  -0.17     0.10  -0.02  -0.15
  28   1     0.01  -0.02   0.14    -0.01  -0.02   0.06    -0.02   0.03  -0.01
  29   1    -0.06   0.01   0.05     0.10  -0.19   0.10     0.10  -0.13   0.06
  30   1     0.01  -0.03   0.01    -0.00  -0.02  -0.03    -0.02   0.04   0.00
  31   1     0.01  -0.02  -0.01     0.00  -0.01  -0.03    -0.02   0.03   0.06
  32   1    -0.16  -0.01  -0.04    -0.01   0.02   0.00    -0.10  -0.02   0.02
  33   1    -0.04  -0.12   0.02    -0.01   0.03   0.01    -0.02  -0.14   0.02
  34   1     0.00   0.18  -0.10    -0.01   0.01   0.00     0.01   0.09  -0.04
  35   1    -0.03   0.12  -0.08     0.00   0.02   0.00    -0.03  -0.01  -0.01
  36   1     0.12   0.11  -0.03    -0.01   0.02   0.01     0.10  -0.01  -0.03
  37   1    -0.01  -0.01  -0.01    -0.01   0.01  -0.08     0.02  -0.00   0.16
  38   1     0.01  -0.02  -0.01     0.01  -0.08  -0.04    -0.02   0.16   0.07
  39   1    -0.00  -0.01   0.03     0.07  -0.01   0.05    -0.13   0.03  -0.09
  40   1    -0.03  -0.01   0.04     0.05   0.08   0.01    -0.08  -0.13  -0.01
  41   1     0.00  -0.02   0.04     0.03   0.01  -0.02    -0.05  -0.01   0.03
                     16                     17                     18
                        a                      a                      a 
 Frequencies --   132.9733               149.0971               139.2232
 Red. masses --    15.9105                21.7496                13.8672
 Frc consts  --     0.0000                 0.0000                 0.0000
 IR Inten    --     4.1806                 3.1267                 8.6545
 Raman Activ --     0.0000                 0.0000                 0.0000
 Depolar     --     0.0000                 0.0000                 0.0000
 Atom AN      X      Y      Z        X      Y      Z        X      Y      Z
   1   6    -0.01  -0.05   0.07     0.06  -0.10   0.08    -0.03   0.04  -0.08
   2   6     0.17   0.00  -0.16     0.13  -0.09  -0.00    -0.31   0.03   0.29
   3   8     0.09  -0.02  -0.03     0.03  -0.11   0.11    -0.05   0.10   0.03
   4  15    -0.05   0.05  -0.10    -0.11  -0.06   0.12     0.12  -0.07  -0.03
   5  16     0.11  -0.26   0.14    -0.17   0.22  -0.03     0.09   0.17  -0.16
   6   8    -0.10   0.16  -0.11    -0.09  -0.03   0.08     0.12  -0.08  -0.03
   7   6     0.11  -0.03  -0.07     0.01  -0.14  -0.05    -0.04   0.07   0.04
   8   6    -0.06  -0.04   0.04    -0.04   0.02  -0.05     0.03   0.01   0.01
   9  16    -0.18   0.01   0.05     0.17   0.12  -0.29    -0.06  -0.23   0.02
  10   6    -0.10   0.13  -0.03     0.13  -0.12  -0.09     0.08  -0.12  -0.03
  11  16    -0.07   0.17  -0.09     0.18  -0.11   0.28    -0.16  -0.05  -0.07
  12  15     0.03   0.07   0.10     0.05   0.16  -0.10     0.03   0.17   0.07
  13  16     0.11  -0.05  -0.33    -0.38   0.02   0.01    -0.11   0.03  -0.19
  14   8    -0.06   0.02   0.09     0.19   0.04  -0.11    -0.04   0.09   0.06
  15   6    -0.22  -0.17   0.30    -0.11  -0.14   0.12    -0.13  -0.09   0.26
  16   6     0.10  -0.03   0.02     0.04  -0.06  -0.01     0.11  -0.05   0.04
  17   8     0.08  -0.00   0.12    -0.02   0.15  -0.08     0.16   0.03   0.04
  18   6     0.05   0.06   0.11     0.07   0.13   0.01     0.10  -0.02  -0.07
  19   6     0.01   0.01  -0.07    -0.02   0.01  -0.01     0.12   0.01  -0.07
  20   1     0.01   0.02   0.10     0.02  -0.01   0.06    -0.02  -0.07  -0.15
  21   1    -0.07  -0.06   0.03    -0.01  -0.06   0.03     0.11   0.09  -0.03
  22   1     0.01  -0.02  -0.01     0.03  -0.03   0.00    -0.05   0.01   0.03
  23   1     0.04  -0.04  -0.12     0.04  -0.05  -0.04    -0.08   0.09   0.22
  24   1     0.12   0.05  -0.05     0.07   0.01  -0.00    -0.21  -0.09   0.09
  25   1     0.06  -0.06   0.02     0.01  -0.09   0.01    -0.02   0.07  -0.01
  26   1     0.08   0.01  -0.07     0.03  -0.04  -0.07    -0.05   0.01   0.06
  27   1    -0.06  -0.03   0.06    -0.03   0.01   0.04     0.04   0.01  -0.04
  28   1     0.02  -0.04   0.03     0.01  -0.02  -0.05    -0.03   0.03   0.02
  29   1    -0.05   0.03  -0.02    -0.02   0.06  -0.04     0.02  -0.05   0.03
  30   1    -0.03   0.06  -0.02     0.04  -0.07  -0.01     0.04  -0.06   0.02
  31   1    -0.04   0.04   0.01     0.04  -0.05  -0.06     0.05  -0.02  -0.04
  32   1    -0.19  -0.00   0.12    -0.12   0.00   0.08    -0.13   0.01   0.11
  33   1    -0.04  -0.18   0.15    -0.03  -0.15   0.06    -0.02  -0.12   0.13
  34   1     0.00   0.11  -0.06     0.00   0.08  -0.03     0.01   0.08  -0.03
  35   1     0.00  -0.05   0.05    -0.03  -0.06   0.04     0.01  -0.06   0.06
  36   1     0.15  -0.05  -0.03     0.10  -0.06  -0.05     0.12  -0.06  -0.03
  37   1     0.03   0.00   0.06     0.04   0.02   0.03     0.03   0.00  -0.04
  38   1    -0.00   0.05   0.04     0.03   0.07   0.00     0.01  -0.03  -0.01
  39   1    -0.01   0.02  -0.05    -0.03   0.02  -0.02     0.04  -0.01   0.00
  40   1     0.02  -0.03  -0.03    -0.02  -0.03  -0.00     0.05   0.03  -0.02
  41   1    -0.00   0.02  -0.02     0.01  -0.01   0.01     0.02  -0.00  -0.04
                     19                     20                     21
                        a                      a                      a 
 Frequencies --   173.3487               174.9529               173.5557
 Red. masses --    23.9935                16.8841                12.5769
 Frc consts  --     0.0000                 0.0000                 0.0000
 IR Inten    --    10.9735                 9.9494                16.3099
 Raman Activ --     0.0000                 0.0000                 0.0000
 Depolar     --     0.0000                 0.0000                 0.0000
 Atom AN      X      Y      Z        X      Y      Z        X      Y      Z
   1   6     0.11  -0.18   0.06    -0.09   0.17  -0.04    -0.03   0.04  -0.04
   2   6     0.03  -0.09   0.18     0.08   0.07  -0.29    -0.02   0.02  -0.06
   3   8     0.09  -0.07   0.22    -0.16   0.01  -0.12    -0.03   0.01  -0.06
   4  15    -0.03  -0.10   0.13     0.08   0.10   0.23     0.02   0.03   0.01
   5  16    -0.11   0.30  -0.07    -0.29  -0.03   0.05    -0.03  -0.05   0.00
   6   8    -0.06  -0.02   0.09     0.20  -0.15   0.23     0.03  -0.01   0.01
   7   6    -0.02  -0.07  -0.00     0.05  -0.02   0.11     0.00   0.02   0.03
   8   6    -0.02   0.01  -0.02     0.18   0.18  -0.02     0.03   0.02   0.02
   9  16     0.30   0.13  -0.30     0.13  -0.00  -0.08    -0.09  -0.07   0.04
  10   6    -0.02   0.12  -0.14     0.17  -0.18  -0.01     0.10  -0.07  -0.02
  11  16    -0.15   0.24  -0.28    -0.29  -0.09  -0.19     0.07  -0.06   0.01
  12  15    -0.08  -0.13   0.09    -0.05   0.01   0.06    -0.03  -0.01  -0.15
  13  16     0.27  -0.04  -0.05     0.05   0.01  -0.09    -0.05   0.15   0.26
  14   8    -0.23  -0.10   0.10     0.00   0.03   0.04    -0.39  -0.02  -0.05
  15   6    -0.06  -0.02   0.01    -0.03  -0.01   0.08    -0.13  -0.00  -0.09
  16   6    -0.04  -0.00  -0.02     0.01  -0.00   0.05    -0.05  -0.14  -0.21
  17   8     0.01  -0.15   0.13     0.06  -0.06   0.08     0.15  -0.14   0.01
  18   6    -0.04  -0.02   0.13    -0.03  -0.09  -0.05     0.26   0.18   0.31
  19   6    -0.01   0.02  -0.02     0.04   0.01  -0.02     0.19   0.08  -0.10
  20   1     0.03  -0.07  -0.01    -0.03   0.13   0.07    -0.01   0.02  -0.01
  21   1     0.07  -0.05   0.02    -0.12  -0.02  -0.00    -0.02   0.01  -0.01
  22   1     0.01  -0.06   0.01     0.04   0.06  -0.05    -0.00   0.01  -0.01
  23   1     0.01  -0.01   0.08     0.03  -0.05  -0.17    -0.00   0.00  -0.02
  24   1    -0.03  -0.03   0.05     0.11   0.09  -0.09     0.00   0.01  -0.02
  25   1    -0.01  -0.05   0.01    -0.00   0.01   0.02    -0.00   0.02   0.00
  26   1     0.00  -0.02  -0.02    -0.02  -0.03   0.04    -0.01   0.01   0.02
  27   1    -0.02   0.00   0.02     0.10   0.08  -0.01     0.02   0.01  -0.00
  28   1     0.01  -0.01  -0.03     0.01   0.08  -0.06    -0.00   0.01   0.00
  29   1    -0.00   0.03  -0.01     0.08   0.04   0.02     0.01  -0.00   0.01
  30   1    -0.03   0.02  -0.06     0.07  -0.11   0.04     0.05  -0.03   0.02
  31   1    -0.00   0.06  -0.01     0.10  -0.03  -0.05     0.05  -0.02  -0.04
  32   1    -0.01  -0.02  -0.02    -0.03   0.01   0.03    -0.02  -0.01  -0.03
  33   1    -0.01   0.02   0.01    -0.01  -0.02   0.03    -0.02   0.03   0.00
  34   1    -0.02  -0.03  -0.02     0.00   0.03   0.01    -0.03  -0.08  -0.09
  35   1     0.01   0.02  -0.03    -0.01  -0.01   0.03     0.04  -0.04  -0.06
  36   1    -0.03   0.02   0.02     0.03  -0.01  -0.00    -0.04  -0.03  -0.05
  37   1    -0.01  -0.01   0.06    -0.02  -0.01  -0.05     0.10  -0.01   0.24
  38   1    -0.02   0.02   0.04    -0.02  -0.07  -0.01     0.09   0.21   0.09
  39   1     0.00   0.02  -0.04     0.03  -0.02   0.04     0.04   0.09  -0.21
  40   1     0.01  -0.03  -0.01     0.04   0.05  -0.01     0.03  -0.16  -0.04
  41   1    -0.01   0.04   0.01    -0.01  -0.00  -0.04     0.08   0.12   0.07
                     22                     23                     24
                        a                      a                      a 
 Frequencies --   221.6851               208.4607               220.8980
 Red. masses --    18.0777                 8.4749                 8.1473
 Frc consts  --     0.0000                 0.0000                 0.0000
 IR Inten    --    50.0764                 8.3045                 4.5670
 Raman Activ --     0.0000                 0.0000                 0.0000
 Depolar     --     0.0000                 0.0000                 0.0000
 Atom AN      X      Y      Z        X      Y      Z        X      Y      Z
   1   6     0.01  -0.02   0.02    -0.03   0.03  -0.01     0.00  -0.01  -0.00
   2   6     0.01  -0.00   0.03    -0.04  -0.07  -0.02     0.01  -0.00  -0.00
   3   8     0.01   0.00   0.03     0.01  -0.08  -0.20     0.00  -0.00   0.01
   4  15    -0.03  -0.01  -0.01     0.15   0.00   0.01     0.00   0.01   0.01
   5  16     0.03   0.02   0.01    -0.14  -0.09  -0.15    -0.00   0.01   0.01
   6   8    -0.02   0.00  -0.01    -0.25   0.26   0.14     0.01  -0.02   0.03
   7   6    -0.01  -0.01  -0.02    -0.09   0.13   0.10     0.00  -0.01   0.02
   8   6    -0.03  -0.02  -0.01     0.08   0.04   0.00     0.02   0.02   0.01
   9  16     0.11   0.10   0.02     0.18  -0.11   0.10     0.03   0.03  -0.03
  10   6    -0.24  -0.01   0.14     0.04  -0.01   0.06    -0.20  -0.02   0.07
  11  16    -0.23  -0.08   0.24    -0.02   0.02   0.01    -0.27  -0.03   0.14
  12  15    -0.26  -0.02  -0.17    -0.01   0.00   0.00    -0.07   0.05   0.05
  13  16     0.18   0.28   0.04     0.00  -0.00  -0.01    -0.01   0.03  -0.14
  14   8     0.28   0.16  -0.24     0.02  -0.01  -0.00     0.21  -0.13  -0.00
  15   6    -0.00   0.01  -0.09     0.00  -0.01   0.00     0.05  -0.14   0.05
  16   6    -0.02  -0.08  -0.10    -0.00  -0.00   0.01     0.04   0.09   0.12
  17   8     0.13  -0.29   0.15     0.00  -0.00  -0.01     0.01   0.03  -0.18
  18   6     0.01  -0.17   0.04     0.00  -0.01  -0.01     0.13  -0.01  -0.10
  19   6     0.16   0.03  -0.09     0.01  -0.00  -0.00     0.16   0.03  -0.09
  20   1     0.00  -0.01   0.00     0.02  -0.10  -0.08     0.00  -0.00   0.00
  21   1     0.01  -0.01   0.01     0.03   0.15  -0.05     0.00  -0.00   0.00
  22   1     0.00  -0.01  -0.00    -0.08   0.00   0.13    -0.00  -0.00  -0.00
  23   1     0.00   0.00   0.01    -0.02   0.01   0.02     0.00  -0.00  -0.00
  24   1    -0.00  -0.00   0.01    -0.03  -0.06   0.01     0.00   0.00  -0.00
  25   1    -0.00  -0.01  -0.00    -0.05   0.01   0.02     0.00  -0.00   0.01
  26   1    -0.00  -0.00  -0.01     0.01   0.06   0.03    -0.00  -0.01   0.00
  27   1    -0.01  -0.01  -0.00    -0.30  -0.13   0.19     0.02   0.01  -0.00
  28   1    -0.00  -0.01   0.00     0.32  -0.28  -0.17    -0.01   0.02  -0.00
  29   1    -0.01  -0.01  -0.01     0.11   0.42  -0.06     0.01  -0.01   0.01
  30   1    -0.11   0.02  -0.01     0.01  -0.01   0.01    -0.09   0.01  -0.02
  31   1    -0.10  -0.01   0.09     0.02   0.01   0.02    -0.08  -0.00   0.06
  32   1    -0.02   0.03   0.02    -0.00  -0.00   0.00    -0.00  -0.04   0.01
  33   1    -0.01  -0.05  -0.04     0.00  -0.01  -0.00     0.01  -0.06   0.01
  34   1     0.01   0.15   0.00     0.00   0.00   0.01    -0.01  -0.25  -0.01
  35   1    -0.12  -0.14   0.09    -0.00   0.00   0.00     0.18   0.23  -0.17
  36   1     0.09  -0.12  -0.18     0.00   0.00   0.01    -0.13   0.18   0.29
  37   1    -0.02  -0.04   0.00     0.00  -0.00  -0.00     0.03  -0.01   0.00
  38   1    -0.02  -0.07   0.02     0.00  -0.00  -0.00     0.06   0.02  -0.03
  39   1     0.09  -0.01  -0.01     0.01   0.00  -0.01     0.14   0.09  -0.30
  40   1     0.10   0.04  -0.04    -0.01  -0.01   0.00    -0.13  -0.22   0.02
  41   1    -0.01   0.05  -0.07     0.01   0.01   0.01     0.15   0.18   0.22
                     25                     26                     27
                        a                      a                      a 
 Frequencies --   216.3108               223.3387               244.4711
 Red. masses --     5.3724                 5.6153                 9.4110
 Frc consts  --     0.0000                 0.0000                 0.0000
 IR Inten    --     2.0353                 2.9731                 1.1295
 Raman Activ --     0.0000                 0.0000                 0.0000
 Depolar     --     0.0000                 0.0000                 0.0000
 Atom AN      X      Y      Z        X      Y      Z        X      Y      Z
   1   6    -0.04   0.10  -0.04     0.01   0.01  -0.01     0.01  -0.01  -0.00
   2   6    -0.10   0.09   0.06    -0.02   0.03   0.02     0.02   0.02  -0.01
   3   8    -0.07   0.09   0.17     0.00   0.04   0.05     0.02   0.02   0.02
   4  15     0.05  -0.14   0.00    -0.05   0.00  -0.06    -0.09   0.03  -0.07
   5  16     0.06   0.08  -0.09     0.05   0.01  -0.01     0.04  -0.00   0.01
   6   8    -0.00   0.01  -0.06    -0.01   0.01  -0.09    -0.04   0.05  -0.14
   7   6    -0.06   0.05  -0.03    -0.06   0.03  -0.08    -0.05   0.03  -0.13
   8   6    -0.06  -0.07  -0.01    -0.11  -0.10  -0.03    -0.16  -0.15  -0.04
   9  16     0.14  -0.17   0.04     0.04   0.07   0.11     0.03   0.14   0.16
  10   6    -0.07   0.01   0.03     0.24  -0.07   0.05     0.48  -0.11   0.05
  11  16     0.01  -0.03  -0.04    -0.05   0.06   0.06    -0.11   0.16   0.03
  12  15     0.04  -0.00   0.02    -0.10   0.04  -0.07    -0.14  -0.05   0.06
  13  16    -0.01  -0.04   0.01     0.01   0.11  -0.04     0.03  -0.02  -0.02
  14   8    -0.05   0.01   0.03     0.11  -0.05  -0.09     0.06  -0.04   0.02
  15   6     0.03   0.04   0.00    -0.09  -0.14   0.00     0.07   0.01  -0.03
  16   6     0.01   0.02   0.02     0.00  -0.02  -0.07     0.00   0.04   0.05
  17   8    -0.01   0.04  -0.05     0.03  -0.08   0.14    -0.02  -0.10   0.02
  18   6     0.02   0.02  -0.03    -0.00  -0.02   0.13    -0.10  -0.10  -0.06
  19   6     0.01   0.00   0.00     0.01  -0.01  -0.01    -0.02   0.02   0.01
  20   1    -0.15   0.42   0.18    -0.03   0.09   0.04     0.01  -0.03  -0.01
  21   1    -0.14  -0.38   0.13    -0.02  -0.10   0.03     0.01   0.01  -0.01
  22   1     0.29   0.06  -0.40     0.07   0.01  -0.10    -0.02  -0.01   0.01
  23   1    -0.02   0.00   0.01    -0.00   0.01   0.01     0.01   0.00  -0.01
  24   1    -0.03   0.05   0.01    -0.01   0.01   0.00     0.01   0.01  -0.00
  25   1    -0.02   0.03  -0.02    -0.01   0.02  -0.03    -0.01   0.01  -0.03
  26   1    -0.02   0.02   0.01    -0.02   0.01  -0.01    -0.01   0.02  -0.03
  27   1    -0.15  -0.09   0.06    -0.10  -0.07   0.01    -0.07  -0.06  -0.03
  28   1     0.11  -0.13  -0.03     0.03  -0.08   0.01    -0.03  -0.04   0.05
  29   1     0.00   0.12  -0.03    -0.04   0.02  -0.03    -0.08  -0.07  -0.02
  30   1    -0.04   0.03  -0.03     0.11  -0.09   0.08     0.22  -0.17   0.15
  31   1    -0.04   0.01   0.05     0.13  -0.01  -0.07     0.26  -0.01  -0.15
  32   1     0.02   0.00  -0.01    -0.07  -0.02   0.02     0.04  -0.01  -0.02
  33   1     0.01   0.02  -0.00    -0.02  -0.09   0.01     0.02   0.02  -0.02
  34   1     0.01   0.08   0.02    -0.04  -0.31  -0.10     0.02   0.13   0.06
  35   1    -0.05  -0.04   0.05     0.23   0.19  -0.21    -0.11  -0.06   0.08
  36   1     0.04  -0.03  -0.05    -0.15   0.15   0.23     0.06  -0.05  -0.07
  37   1     0.01   0.00  -0.00     0.00  -0.01   0.04    -0.05  -0.02  -0.04
  38   1     0.01   0.01  -0.01    -0.01   0.00   0.04    -0.03  -0.06  -0.02
  39   1     0.02   0.02  -0.07    -0.07  -0.08   0.25     0.09   0.07  -0.22
  40   1    -0.05  -0.06   0.02     0.20   0.20  -0.06    -0.16  -0.17   0.05
  41   1     0.04   0.04   0.07    -0.13  -0.14  -0.25     0.09   0.15   0.21
                     28                     29                     30
                        a                      a                      a 
 Frequencies --   262.0920               278.7923               294.5564
 Red. masses --    14.1464                11.8282                17.0554
 Frc consts  --     0.0000                 0.0000                 0.0000
 IR Inten    --    15.7133                 4.6722                 0.2879
 Raman Activ --     0.0000                 0.0000                 0.0000
 Depolar     --     0.0000                 0.0000                 0.0000
 Atom AN      X      Y      Z        X      Y      Z        X      Y      Z
   1   6    -0.06   0.08  -0.03     0.00  -0.00   0.01     0.04  -0.09   0.03
   2   6    -0.08  -0.07  -0.02    -0.03  -0.04   0.04    -0.06  -0.14   0.15
   3   8    -0.06  -0.09  -0.11    -0.00  -0.04  -0.06    -0.00  -0.13  -0.23
   4  15     0.11  -0.08   0.08     0.03   0.00  -0.00     0.02   0.02  -0.06
   5  16    -0.13   0.00  -0.11    -0.01  -0.02  -0.03     0.01  -0.09  -0.07
   6   8    -0.37   0.48   0.06    -0.03   0.03   0.05    -0.04   0.01   0.08
   7   6     0.13   0.00  -0.09     0.03  -0.01   0.05     0.09  -0.01   0.18
   8   6    -0.01  -0.01   0.01     0.07   0.06   0.02     0.23   0.20   0.07
   9  16     0.31  -0.22   0.11    -0.07  -0.06  -0.04    -0.33  -0.05  -0.14
  10   6     0.03   0.00   0.07     0.03   0.06  -0.09     0.10   0.07  -0.19
  11  16    -0.01   0.03   0.02     0.31   0.00  -0.08     0.03   0.32   0.28
  12  15     0.00   0.00   0.00     0.01  -0.02  -0.12    -0.15  -0.01   0.04
  13  16    -0.00  -0.00  -0.01     0.01   0.09   0.10     0.03   0.05  -0.07
  14   8     0.00  -0.03   0.00     0.05   0.33  -0.11     0.10  -0.18  -0.01
  15   6     0.00  -0.02  -0.01    -0.16   0.09   0.14     0.08  -0.09  -0.10
  16   6    -0.00   0.01  -0.00     0.02  -0.11  -0.08    -0.02   0.05   0.02
  17   8    -0.00   0.01  -0.01     0.09  -0.16   0.27    -0.03  -0.05   0.00
  18   6     0.02   0.01   0.02    -0.27  -0.16  -0.10    -0.00  -0.02   0.05
  19   6     0.01   0.00  -0.00    -0.18  -0.02   0.09     0.03   0.01  -0.02
  20   1    -0.05   0.08  -0.00    -0.02   0.05   0.02    -0.05   0.12   0.05
  21   1    -0.04   0.00  -0.00    -0.01  -0.05   0.02    -0.00  -0.18   0.07
  22   1     0.04   0.03  -0.02     0.04   0.00  -0.04     0.12  -0.01  -0.14
  23   1    -0.02  -0.01   0.01    -0.01   0.00   0.03    -0.02   0.02   0.11
  24   1    -0.03  -0.04  -0.00    -0.02  -0.03   0.02    -0.06  -0.12   0.06
  25   1     0.04  -0.11   0.02     0.01  -0.01   0.02     0.02  -0.01   0.05
  26   1     0.13   0.04  -0.10     0.02  -0.00   0.01     0.03  -0.00   0.04
  27   1     0.22   0.10  -0.13     0.05   0.03   0.01     0.13   0.10   0.03
  28   1    -0.21   0.20   0.13    -0.00   0.03  -0.01     0.02   0.08  -0.05
  29   1    -0.07  -0.29   0.04     0.03   0.01   0.01     0.10   0.07   0.04
  30   1    -0.01   0.00  -0.00     0.01   0.04  -0.03     0.06  -0.04  -0.00
  31   1     0.01   0.02   0.05    -0.01   0.01  -0.01     0.07   0.02  -0.12
  32   1     0.00  -0.01  -0.01    -0.10   0.07   0.10     0.04  -0.04  -0.05
  33   1    -0.00  -0.00  -0.00    -0.04  -0.06   0.07     0.01   0.00  -0.05
  34   1    -0.00  -0.01  -0.00    -0.04  -0.20  -0.11     0.01   0.07   0.05
  35   1     0.01   0.01  -0.01     0.19   0.03  -0.08    -0.08   0.00   0.01
  36   1    -0.01   0.01   0.01    -0.08   0.03   0.06     0.02   0.00  -0.01
  37   1     0.01   0.00   0.01    -0.10  -0.00  -0.12    -0.00  -0.01   0.03
  38   1     0.01   0.01   0.00    -0.12  -0.15  -0.01     0.00   0.01   0.01
  39   1    -0.01  -0.01   0.03     0.04   0.04  -0.14     0.01  -0.00   0.01
  40   1     0.03   0.02  -0.01    -0.21  -0.12   0.08     0.04   0.02  -0.02
  41   1    -0.01  -0.02  -0.03     0.04   0.10   0.21    -0.02   0.01  -0.03
                     31                     32                     33
                        a                      a                      a 
 Frequencies --   316.0168               336.5209               350.6242
 Red. masses --    20.7037                15.9901                17.2069
 Frc consts  --     0.0000                 0.0000                 0.0000
 IR Inten    --     7.4446                21.0741                 7.0804
 Raman Activ --     0.0000                 0.0000                 0.0000
 Depolar     --     0.0000                 0.0000                 0.0000
 Atom AN      X      Y      Z        X      Y      Z        X      Y      Z
   1   6    -0.11   0.20  -0.08     0.02  -0.03   0.01    -0.01   0.02  -0.00
   2   6    -0.00   0.12  -0.22     0.06   0.28   0.01    -0.00   0.01  -0.00
   3   8    -0.02   0.10   0.30     0.20   0.30   0.15     0.01   0.01   0.02
   4  15     0.05  -0.18   0.12     0.18   0.15  -0.17     0.03  -0.01   0.02
   5  16    -0.00   0.09   0.00     0.08  -0.14  -0.25     0.00   0.00  -0.01
   6   8     0.09  -0.05  -0.04    -0.34  -0.15   0.37     0.00  -0.00   0.01
   7   6    -0.01   0.02  -0.04    -0.22  -0.35   0.10    -0.00  -0.00  -0.00
   8   6    -0.05  -0.05  -0.00    -0.04  -0.00  -0.12    -0.01  -0.00  -0.00
   9  16    -0.03  -0.49  -0.11    -0.05  -0.04   0.06    -0.03  -0.02  -0.02
  10   6     0.00   0.11  -0.22     0.03   0.00   0.01    -0.01   0.01  -0.00
  11  16     0.15   0.30   0.22     0.00   0.00   0.00    -0.27   0.15   0.16
  12  15    -0.13   0.01   0.01    -0.01   0.00  -0.00     0.26   0.07   0.29
  13  16     0.01   0.08  -0.05    -0.00   0.01  -0.00     0.07  -0.24   0.02
  14   8     0.07  -0.11  -0.03    -0.00  -0.01  -0.00     0.24  -0.00   0.07
  15   6     0.04  -0.08  -0.06     0.01  -0.00   0.00    -0.21   0.13  -0.22
  16   6    -0.00   0.02   0.01     0.00   0.01   0.01    -0.14  -0.22  -0.44
  17   8     0.01  -0.07   0.06    -0.00  -0.01   0.00     0.07   0.17   0.04
  18   6    -0.05  -0.04   0.03    -0.00  -0.00   0.00     0.03   0.07  -0.08
  19   6    -0.01   0.00   0.00     0.00   0.00  -0.00    -0.03  -0.01   0.02
  20   1     0.01  -0.04  -0.06     0.04  -0.04   0.03    -0.00   0.00  -0.00
  21   1    -0.04   0.20  -0.08     0.02  -0.04   0.02    -0.00   0.01  -0.00
  22   1    -0.09   0.06   0.13    -0.05  -0.03  -0.04     0.00   0.01   0.00
  23   1     0.01  -0.04  -0.15     0.01   0.08  -0.02    -0.00  -0.00  -0.00
  24   1     0.06   0.13  -0.08     0.02   0.10  -0.01    -0.00   0.00  -0.00
  25   1     0.00   0.03  -0.02    -0.09  -0.17   0.04    -0.00  -0.00  -0.00
  26   1    -0.02   0.00   0.00    -0.04  -0.10  -0.03    -0.00  -0.00  -0.00
  27   1    -0.05  -0.03   0.00     0.07   0.05  -0.03    -0.00  -0.00  -0.00
  28   1     0.01  -0.03   0.02    -0.08   0.04  -0.11    -0.00  -0.00  -0.00
  29   1    -0.02  -0.00  -0.01     0.02  -0.01  -0.01    -0.00  -0.00  -0.00
  30   1    -0.01   0.03  -0.08     0.02  -0.01   0.02     0.00  -0.04   0.01
  31   1    -0.01   0.05  -0.02     0.02  -0.00  -0.01     0.02   0.02  -0.02
  32   1     0.02  -0.03  -0.02     0.00  -0.00  -0.00    -0.06   0.03  -0.07
  33   1     0.01  -0.02  -0.03     0.00  -0.00   0.00    -0.07   0.03  -0.08
  34   1     0.01   0.01   0.02     0.00   0.01   0.01    -0.07  -0.13  -0.20
  35   1    -0.03   0.02  -0.02    -0.01  -0.00   0.00     0.09  -0.12  -0.06
  36   1     0.00   0.02   0.02     0.01  -0.00  -0.00    -0.09  -0.09  -0.20
  37   1    -0.02  -0.01   0.00    -0.00  -0.00   0.00     0.02   0.03  -0.05
  38   1    -0.02  -0.02   0.01    -0.00  -0.00   0.00    -0.00  -0.01  -0.02
  39   1     0.01   0.00  -0.01     0.00  -0.00   0.00    -0.02   0.01  -0.01
  40   1    -0.00  -0.00   0.00     0.00   0.00  -0.00    -0.05  -0.02   0.02
  41   1    -0.01   0.02   0.01    -0.00   0.00  -0.00     0.03  -0.02   0.04
                     34                     35                     36
                        a                      a                      a 
 Frequencies --   379.1666               385.4122               417.7195
 Red. masses --    18.0192                18.8405                19.8949
 Frc consts  --     0.0000                 0.0000                 0.0000
 IR Inten    --    16.6513                11.8170                42.1547
 Raman Activ --     0.0000                 0.0000                 0.0000
 Depolar     --     0.0000                 0.0000                 0.0000
 Atom AN      X      Y      Z        X      Y      Z        X      Y      Z
   1   6    -0.02   0.03  -0.01    -0.03   0.06  -0.03     0.14  -0.21   0.06
   2   6    -0.01  -0.00  -0.03     0.00   0.01  -0.07     0.13   0.23   0.10
   3   8    -0.01  -0.00   0.10    -0.08  -0.00   0.34    -0.31   0.13  -0.19
   4  15    -0.06  -0.09  -0.04    -0.35  -0.32  -0.23    -0.27   0.19  -0.18
   5  16     0.04   0.00  -0.04     0.18   0.01  -0.15    -0.07   0.06   0.14
   6   8    -0.04   0.01  -0.04    -0.20   0.03  -0.22     0.01  -0.05  -0.11
   7   6     0.02  -0.00   0.05     0.08  -0.01   0.24     0.01   0.01   0.04
   8   6     0.06   0.05   0.03     0.28   0.22   0.13     0.05   0.04   0.02
   9  16    -0.03  -0.03  -0.02     0.08   0.14   0.10     0.28  -0.34   0.08
  10   6     0.07   0.03  -0.03     0.05  -0.04   0.10     0.03  -0.02  -0.03
  11  16    -0.07   0.14   0.06    -0.03  -0.10  -0.06     0.16  -0.00  -0.06
  12  15    -0.16  -0.28  -0.04     0.05   0.06   0.01    -0.12   0.03   0.16
  13  16     0.16  -0.28   0.15    -0.04   0.05  -0.03    -0.03   0.02  -0.03
  14   8     0.11   0.41  -0.05    -0.03  -0.08   0.01     0.07  -0.02   0.05
  15   6    -0.05   0.24   0.22     0.00  -0.05  -0.05    -0.04   0.03  -0.02
  16   6     0.07  -0.04   0.07    -0.02  -0.00  -0.03    -0.02  -0.03  -0.07
  17   8    -0.29  -0.03  -0.39     0.06   0.02   0.09    -0.18   0.12   0.03
  18   6     0.09   0.02   0.02    -0.02   0.00  -0.01     0.00  -0.12   0.06
  19   6     0.10   0.02  -0.05    -0.02  -0.00   0.01     0.12   0.01  -0.07
  20   1    -0.01   0.01  -0.01    -0.00  -0.01  -0.02     0.10  -0.14   0.05
  21   1    -0.01   0.03  -0.01    -0.02   0.07  -0.03     0.10  -0.13   0.06
  22   1    -0.00   0.01   0.02    -0.02   0.02   0.05    -0.10  -0.10  -0.08
  23   1     0.00  -0.02  -0.02     0.02  -0.06  -0.08     0.05   0.04   0.01
  24   1     0.01   0.02  -0.01     0.04   0.08  -0.04     0.05   0.06   0.03
  25   1     0.01   0.00   0.02     0.03   0.01   0.08     0.01   0.02   0.01
  26   1     0.01   0.00   0.02     0.05   0.02   0.07    -0.00   0.00   0.02
  27   1     0.03   0.03   0.01     0.15   0.11   0.06     0.02   0.02   0.01
  28   1     0.01   0.02  -0.02     0.03   0.08  -0.09     0.01   0.01  -0.02
  29   1     0.03   0.02   0.02     0.14   0.11   0.07     0.03   0.03   0.01
  30   1     0.04  -0.04   0.02     0.03  -0.02   0.05    -0.02   0.03  -0.05
  31   1     0.05   0.02  -0.05     0.03  -0.02  -0.00    -0.01   0.01   0.06
  32   1    -0.05   0.11   0.12     0.01  -0.02  -0.02    -0.01   0.00  -0.01
  33   1    -0.01   0.00   0.08     0.00   0.00  -0.02    -0.01   0.00  -0.01
  34   1    -0.00  -0.06  -0.03    -0.00   0.00   0.00    -0.01  -0.02  -0.03
  35   1     0.11  -0.02   0.04    -0.01   0.00  -0.01     0.02  -0.02  -0.01
  36   1    -0.01  -0.01   0.01    -0.00   0.00  -0.00    -0.01  -0.01  -0.03
  37   1     0.02  -0.03   0.10    -0.00   0.01  -0.02     0.01  -0.03   0.00
  38   1     0.09   0.10  -0.02    -0.02  -0.02   0.00     0.01  -0.04   0.02
  39   1     0.02  -0.01   0.02    -0.01   0.00  -0.00     0.08   0.00  -0.05
  40   1     0.09   0.04  -0.04    -0.02  -0.01   0.01     0.08  -0.01  -0.04
  41   1    -0.01  -0.00  -0.07     0.00  -0.00   0.02    -0.02   0.07  -0.03
                     37                     38                     39
                        a                      a                      a 
 Frequencies --   420.8698               474.9152               494.4932
 Red. masses --    17.2073                20.6585                22.5570
 Frc consts  --     0.0000                 0.0000                 0.0000
 IR Inten    --    11.4136               226.9895               125.3411
 Raman Activ --     0.0000                 0.0000                 0.0000
 Depolar     --     0.0000                 0.0000                 0.0000
 Atom AN      X      Y      Z        X      Y      Z        X      Y      Z
   1   6     0.07  -0.11   0.03     0.11  -0.14   0.05     0.03  -0.03   0.01
   2   6     0.07   0.13   0.05     0.12   0.19   0.04     0.03   0.04   0.01
   3   8    -0.18   0.07  -0.09    -0.53   0.07  -0.02    -0.13   0.01   0.00
   4  15    -0.11   0.07  -0.08     0.26  -0.32   0.25     0.07  -0.09   0.09
   5  16    -0.03   0.03   0.06     0.13  -0.05  -0.26     0.05  -0.03  -0.10
   6   8     0.00  -0.02  -0.06     0.01   0.12   0.07     0.00   0.04   0.04
   7   6     0.01   0.01   0.02     0.04   0.10  -0.06     0.01   0.03  -0.02
   8   6     0.02   0.02   0.01    -0.02  -0.02  -0.00    -0.01  -0.01  -0.00
   9  16     0.11  -0.18   0.01    -0.22   0.19  -0.05    -0.07   0.09  -0.00
  10   6    -0.01  -0.01   0.01    -0.00   0.05   0.03    -0.00  -0.05   0.01
  11  16    -0.26   0.14   0.19    -0.05   0.01   0.04     0.24  -0.13  -0.18
  12  15     0.16  -0.05  -0.25     0.12  -0.00  -0.10    -0.43  -0.02   0.40
  13  16     0.07  -0.08   0.06    -0.00  -0.03   0.02    -0.03   0.19  -0.10
  14   8    -0.10   0.05  -0.09    -0.05   0.01  -0.04     0.20  -0.05   0.14
  15   6     0.05  -0.03   0.04     0.01  -0.02  -0.00    -0.05   0.09   0.01
  16   6     0.04   0.04   0.09     0.01   0.01   0.02    -0.02  -0.03  -0.07
  17   8     0.37  -0.26  -0.11    -0.09   0.07   0.07     0.22  -0.26  -0.24
  18   6     0.00   0.28  -0.14    -0.02  -0.08   0.04     0.07   0.22  -0.11
  19   6    -0.25  -0.01   0.15     0.04  -0.00  -0.03    -0.11   0.01   0.07
  20   1     0.06  -0.08   0.03     0.10  -0.13   0.03     0.02  -0.03   0.01
  21   1     0.05  -0.07   0.03     0.09  -0.08   0.04     0.02  -0.02   0.01
  22   1    -0.06  -0.05  -0.04    -0.10  -0.07  -0.05    -0.02  -0.02  -0.01
  23   1     0.03   0.01   0.00     0.07  -0.04  -0.05     0.01  -0.01  -0.01
  24   1     0.03   0.04   0.01     0.09   0.12   0.00     0.02   0.03  -0.00
  25   1     0.01   0.01   0.00     0.00   0.01  -0.02     0.00   0.00  -0.01
  26   1    -0.00   0.00   0.01     0.01   0.03  -0.02     0.00   0.01  -0.01
  27   1     0.01   0.01   0.01    -0.03  -0.02  -0.01    -0.01  -0.01  -0.00
  28   1     0.00   0.01  -0.01     0.01  -0.01   0.05     0.00  -0.00   0.02
  29   1     0.01   0.01   0.01    -0.03  -0.02  -0.01    -0.01  -0.01  -0.00
  30   1    -0.01  -0.04  -0.00     0.02  -0.01   0.03     0.00   0.04  -0.00
  31   1     0.02   0.02   0.01     0.01  -0.00  -0.04    -0.02  -0.03   0.01
  32   1     0.01  -0.00   0.02     0.00  -0.00   0.00    -0.00   0.01  -0.01
  33   1     0.02  -0.01   0.02     0.00  -0.00   0.00    -0.02   0.02  -0.01
  34   1     0.02   0.02   0.05     0.00   0.00   0.01    -0.02  -0.02  -0.05
  35   1    -0.02   0.03   0.00    -0.01   0.01  -0.01     0.04  -0.03   0.01
  36   1     0.02   0.02   0.05     0.00   0.01   0.02    -0.02  -0.02  -0.05
  37   1    -0.01   0.06   0.01    -0.00  -0.01  -0.02     0.00   0.03   0.07
  38   1    -0.01   0.11  -0.04    -0.01  -0.04   0.01     0.04   0.13  -0.03
  39   1    -0.18  -0.00   0.11     0.04  -0.00  -0.03    -0.12   0.00   0.07
  40   1    -0.17   0.01   0.08     0.04  -0.01  -0.02    -0.09   0.02   0.05
  41   1     0.04  -0.16   0.07    -0.02   0.04  -0.01     0.04  -0.11   0.03
                     40                     41                     42
                        a                      a                      a 
 Frequencies --   612.4486               622.9486               671.9831
 Red. masses --    24.8005                26.4505                18.1652
 Frc consts  --     0.0000                 0.0000                 0.0000
 IR Inten    --   167.4094                79.2028                 8.3590
 Raman Activ --     0.0000                 0.0000                 0.0000
 Depolar     --     0.0000                 0.0000                 0.0000
 Atom AN      X      Y      Z        X      Y      Z        X      Y      Z
   1   6    -0.00   0.00  -0.00    -0.01   0.02  -0.01     0.00  -0.00  -0.00
   2   6     0.01   0.05  -0.00     0.03   0.19  -0.01     0.00  -0.02  -0.00
   3   8     0.05   0.04  -0.05     0.16   0.12  -0.19     0.00   0.01   0.01
   4  15     0.09  -0.11  -0.06     0.36  -0.45  -0.17    -0.02   0.04   0.03
   5  16    -0.09   0.06   0.14    -0.30   0.19   0.42     0.02  -0.01  -0.02
   6   8    -0.04  -0.01  -0.08    -0.13  -0.02  -0.25    -0.01  -0.02  -0.03
   7   6    -0.02  -0.03   0.02    -0.05  -0.09   0.06    -0.00  -0.01   0.01
   8   6     0.01   0.00   0.01     0.02   0.01   0.02     0.00  -0.00   0.00
   9  16    -0.02  -0.01  -0.03    -0.08   0.07  -0.04    -0.11  -0.12  -0.35
  10   6     0.05   0.11   0.03     0.03   0.05   0.09    -0.09  -0.36   0.67
  11  16    -0.09  -0.01   0.05     0.03  -0.04  -0.02     0.16   0.38  -0.11
  12  15     0.44  -0.28  -0.02    -0.16   0.08   0.02     0.04  -0.06  -0.00
  13  16    -0.22   0.47  -0.16     0.06  -0.13   0.04    -0.02   0.03  -0.01
  14   8     0.10  -0.10   0.25    -0.02   0.03  -0.07    -0.01  -0.00  -0.01
  15   6    -0.06   0.16   0.09     0.02  -0.05  -0.03    -0.00   0.00   0.00
  16   6     0.01  -0.00  -0.01    -0.00  -0.00   0.00    -0.00  -0.00   0.00
  17   8    -0.15  -0.26  -0.21     0.05   0.07   0.06     0.01   0.03   0.01
  18   6    -0.10  -0.12   0.08     0.03   0.04  -0.03    -0.01  -0.01   0.01
  19   6    -0.03   0.00   0.01     0.01  -0.00  -0.00    -0.00   0.00  -0.00
  20   1     0.01  -0.01   0.01     0.03  -0.02   0.02    -0.00   0.00   0.00
  21   1     0.00  -0.01   0.00     0.01  -0.03   0.01    -0.00   0.00  -0.00
  22   1    -0.01  -0.00  -0.01    -0.06  -0.01  -0.05     0.00   0.00   0.00
  23   1    -0.00   0.02   0.01    -0.01   0.09   0.02    -0.00  -0.00   0.00
  24   1    -0.00   0.00   0.00    -0.01   0.00   0.01    -0.00  -0.00  -0.00
  25   1     0.00   0.00   0.01     0.00   0.00   0.02     0.00   0.00   0.00
  26   1    -0.00  -0.00   0.01    -0.00  -0.01   0.03    -0.00  -0.00   0.00
  27   1     0.01   0.01   0.01     0.04   0.03   0.02     0.01   0.00   0.00
  28   1    -0.01   0.00  -0.02    -0.02   0.01  -0.07    -0.00   0.00  -0.01
  29   1     0.01   0.01   0.01     0.04   0.03   0.02     0.00   0.00   0.00
  30   1     0.01  -0.00   0.01     0.01   0.01   0.03    -0.04  -0.09   0.16
  31   1     0.02   0.02  -0.01     0.01  -0.01  -0.01     0.00  -0.08   0.15
  32   1     0.00   0.01  -0.01     0.00  -0.01   0.01    -0.00   0.00   0.00
  33   1    -0.02   0.06   0.01     0.00  -0.02  -0.01    -0.00  -0.00  -0.00
  34   1    -0.02  -0.02  -0.05     0.00   0.01   0.01    -0.00   0.00  -0.00
  35   1     0.07  -0.04   0.05    -0.02   0.01  -0.02     0.00   0.00  -0.00
  36   1    -0.02  -0.02  -0.05     0.01   0.01   0.02    -0.00   0.00   0.00
  37   1    -0.05  -0.05   0.09     0.02   0.02  -0.03     0.00   0.00  -0.01
  38   1     0.01   0.03   0.01    -0.00  -0.01  -0.00    -0.00  -0.01   0.00
  39   1     0.03  -0.01   0.00    -0.01   0.00   0.00     0.00   0.00  -0.00
  40   1     0.02   0.02  -0.01    -0.01  -0.00   0.00     0.00  -0.00  -0.00
  41   1    -0.05   0.04  -0.01     0.02  -0.02   0.00    -0.00   0.01  -0.00
                     43                     44                     45
                        a                      a                      a 
 Frequencies --   694.7553               737.5877               753.9076
 Red. masses --    16.4944                19.4481                19.8533
 Frc consts  --     0.0000                 0.0000                 0.0000
 IR Inten    --    32.2651               212.8185               172.0772
 Raman Activ --     0.0000                 0.0000                 0.0000
 Depolar     --     0.0000                 0.0000                 0.0000
 Atom AN      X      Y      Z        X      Y      Z        X      Y      Z
   1   6     0.01  -0.01   0.00    -0.00   0.00  -0.00    -0.07   0.08  -0.05
   2   6    -0.00  -0.05   0.00     0.00   0.02  -0.00     0.06   0.32  -0.03
   3   8    -0.03  -0.02   0.03     0.02   0.00  -0.01     0.39   0.06  -0.30
   4  15    -0.05   0.10   0.01    -0.02  -0.02   0.01    -0.46  -0.35   0.23
   5  16     0.03  -0.02  -0.04     0.01  -0.00  -0.01     0.08  -0.05  -0.11
   6   8     0.01  -0.02   0.01     0.00   0.00   0.01     0.09   0.02   0.23
   7   6     0.01   0.01  -0.01     0.00   0.01  -0.00     0.06   0.11  -0.06
   8   6     0.00   0.00  -0.00     0.00   0.00  -0.00     0.03   0.03   0.01
   9  16    -0.08  -0.17  -0.31     0.00  -0.00   0.01     0.01  -0.01  -0.03
  10   6     0.37   0.61   0.37    -0.00   0.02  -0.02     0.02   0.02   0.03
  11  16    -0.11  -0.30   0.04    -0.01   0.00   0.02    -0.01  -0.01  -0.00
  12  15    -0.07   0.03   0.03    -0.24  -0.40  -0.40     0.01   0.07  -0.02
  13  16     0.02  -0.03   0.01    -0.03   0.07  -0.02     0.01  -0.03   0.01
  14   8    -0.01   0.01  -0.03     0.13  -0.19   0.32     0.01  -0.02   0.02
  15   6     0.01  -0.02  -0.01    -0.09   0.15   0.12    -0.01   0.01   0.01
  16   6    -0.00  -0.00  -0.00     0.01   0.03   0.03    -0.00  -0.00   0.00
  17   8     0.01   0.02   0.03     0.07   0.33   0.30    -0.00  -0.03  -0.03
  18   6     0.02   0.03  -0.02     0.15   0.20  -0.12    -0.02  -0.03   0.02
  19   6     0.01  -0.00  -0.00     0.09  -0.02  -0.03    -0.01   0.00   0.00
  20   1    -0.01   0.01  -0.00     0.00  -0.00   0.00     0.05  -0.04   0.06
  21   1    -0.00   0.01  -0.00    -0.00  -0.00   0.00    -0.03  -0.05   0.01
  22   1     0.02   0.00   0.01    -0.01  -0.00  -0.00    -0.14  -0.01  -0.09
  23   1     0.00  -0.02  -0.00    -0.00   0.01   0.00    -0.00   0.20   0.11
  24   1     0.00  -0.00  -0.00    -0.00   0.00   0.00    -0.07  -0.04   0.02
  25   1     0.00   0.00  -0.00    -0.00  -0.00  -0.00     0.00  -0.01  -0.02
  26   1    -0.00  -0.00   0.00     0.00   0.00  -0.00     0.01   0.02  -0.04
  27   1    -0.00  -0.00   0.00    -0.00  -0.00  -0.00    -0.04  -0.03  -0.02
  28   1     0.00  -0.00   0.00     0.00  -0.00   0.01     0.05  -0.00   0.10
  29   1    -0.00  -0.00  -0.00    -0.00  -0.00  -0.00    -0.03  -0.04  -0.01
  30   1     0.04   0.18   0.03     0.01  -0.02   0.01    -0.00   0.01   0.00
  31   1     0.03   0.12   0.14     0.01   0.01  -0.02    -0.00   0.01   0.02
  32   1     0.00  -0.00   0.00     0.02  -0.00  -0.03     0.01  -0.00  -0.00
  33   1     0.00  -0.01  -0.00    -0.04   0.10  -0.01    -0.00   0.01  -0.00
  34   1     0.00   0.00   0.01    -0.04  -0.03  -0.09    -0.00   0.00  -0.01
  35   1    -0.01   0.01  -0.01     0.12  -0.05   0.08     0.01  -0.00   0.00
  36   1     0.00   0.00   0.01    -0.00  -0.03  -0.06    -0.00   0.00   0.00
  37   1     0.01   0.01  -0.01     0.05   0.10  -0.16    -0.00  -0.01   0.02
  38   1     0.00   0.00  -0.00    -0.01  -0.06  -0.02    -0.00   0.01   0.00
  39   1    -0.01   0.00   0.00    -0.06   0.01   0.00     0.01  -0.00  -0.00
  40   1    -0.01  -0.00   0.00    -0.02  -0.04   0.01     0.00   0.00  -0.00
  41   1     0.01  -0.01   0.00     0.09  -0.09   0.01    -0.01   0.01  -0.00
                     46                     47                     48
                        a                      a                      a 
 Frequencies --   761.2277               787.8217               802.5815
 Red. masses --    21.8362                19.7623                 5.8015
 Frc consts  --     0.0000                 0.0000                 0.0000
 IR Inten    --   278.8341               283.6347                11.9525
 Raman Activ --     0.0000                 0.0000                 0.0000
 Depolar     --     0.0000                 0.0000                 0.0000
 Atom AN      X      Y      Z        X      Y      Z        X      Y      Z
   1   6     0.01  -0.01   0.00     0.02  -0.02   0.01     0.00   0.00   0.00
   2   6    -0.01  -0.03   0.00    -0.03  -0.07   0.02     0.00  -0.00   0.00
   3   8    -0.04  -0.01   0.03    -0.09  -0.00   0.13     0.01   0.01  -0.01
   4  15     0.05   0.04   0.00    -0.00  -0.17  -0.58     0.01  -0.03   0.02
   5  16    -0.00   0.00   0.00    -0.10   0.07   0.15     0.00  -0.00  -0.01
   6   8    -0.02  -0.01  -0.05     0.10  -0.01   0.56    -0.00   0.02  -0.04
   7   6    -0.01  -0.02   0.01     0.13   0.24  -0.12    -0.02  -0.02   0.01
   8   6    -0.01  -0.00   0.00     0.06   0.07  -0.01    -0.01  -0.01   0.00
   9  16    -0.01  -0.00  -0.02    -0.03   0.01  -0.02    -0.10   0.09   0.05
  10   6    -0.00  -0.02   0.04     0.03  -0.03   0.05     0.46  -0.28  -0.09
  11  16     0.03  -0.02  -0.01     0.00   0.02  -0.00    -0.11   0.10   0.03
  12  15    -0.09   0.55  -0.37    -0.00   0.02  -0.02     0.01  -0.05  -0.02
  13  16     0.11  -0.24   0.08     0.00  -0.01   0.00    -0.00   0.00  -0.00
  14   8     0.14  -0.27   0.31     0.01  -0.01   0.02     0.00   0.00   0.01
  15   6    -0.10   0.16   0.14    -0.00   0.01   0.00     0.01   0.01  -0.00
  16   6     0.00   0.04   0.04     0.00   0.00  -0.00     0.00   0.00   0.00
  17   8     0.01  -0.18  -0.14     0.00  -0.00  -0.01     0.01   0.02  -0.01
  18   6    -0.11  -0.15   0.09    -0.01  -0.01   0.01    -0.01  -0.01   0.03
  19   6    -0.07   0.01   0.02    -0.00   0.00   0.00    -0.01   0.01   0.01
  20   1    -0.01   0.00  -0.01    -0.02   0.01  -0.02    -0.00  -0.00  -0.00
  21   1     0.00   0.00  -0.00     0.02   0.02  -0.00     0.00  -0.00   0.00
  22   1     0.01   0.00   0.01     0.04   0.00   0.03    -0.00  -0.00  -0.00
  23   1    -0.00  -0.02  -0.01    -0.00  -0.07  -0.05    -0.00   0.00  -0.00
  24   1     0.01   0.01  -0.00     0.03   0.03  -0.00     0.00  -0.00   0.00
  25   1    -0.00   0.00   0.00     0.01  -0.03  -0.02     0.00  -0.00   0.01
  26   1    -0.00  -0.00   0.01     0.01   0.03  -0.11     0.00  -0.00   0.00
  27   1     0.01   0.01   0.01    -0.11  -0.08  -0.08     0.01   0.00   0.00
  28   1    -0.01   0.00  -0.02     0.11  -0.01   0.23    -0.01  -0.00  -0.02
  29   1     0.01   0.01   0.00    -0.07  -0.09  -0.03     0.01   0.01   0.01
  30   1    -0.01   0.02  -0.00    -0.01   0.01  -0.01    -0.16   0.31  -0.45
  31   1    -0.01  -0.01   0.02    -0.01  -0.02   0.03    -0.26  -0.15   0.48
  32   1     0.07  -0.02  -0.03    -0.01   0.00  -0.00    -0.02   0.00  -0.00
  33   1    -0.05   0.14  -0.03     0.00  -0.00   0.00     0.00  -0.01   0.01
  34   1    -0.05  -0.01  -0.12     0.00  -0.01   0.00     0.00  -0.01   0.01
  35   1     0.14  -0.05   0.09     0.00  -0.00   0.01    -0.00  -0.00   0.00
  36   1     0.02  -0.03  -0.06    -0.01  -0.00  -0.01    -0.01  -0.00  -0.01
  37   1    -0.02  -0.07   0.09    -0.00  -0.00   0.00    -0.01   0.01  -0.02
  38   1    -0.00   0.04   0.02     0.00   0.00   0.00     0.00  -0.03   0.00
  39   1     0.05  -0.01   0.00     0.00  -0.00  -0.00    -0.02   0.01  -0.01
  40   1     0.01   0.03  -0.00     0.00   0.00  -0.00     0.01  -0.02  -0.01
  41   1    -0.07   0.07  -0.00    -0.00   0.00   0.00    -0.01   0.00  -0.01
                     49                     50                     51
                        a                      a                      a 
 Frequencies --   819.7597               820.2727               820.6183
 Red. masses --     2.8747                 2.7018                 2.5745
 Frc consts  --     0.0000                 0.0000                 0.0000
 IR Inten    --     4.8326                 6.3489                 6.5606
 Raman Activ --     0.0000                 0.0000                 0.0000
 Depolar     --     0.0000                 0.0000                 0.0000
 Atom AN      X      Y      Z        X      Y      Z        X      Y      Z
   1   6     0.09  -0.02  -0.07     0.01  -0.00  -0.01    -0.00  -0.00   0.01
   2   6     0.16  -0.06  -0.22     0.02  -0.00  -0.03    -0.01  -0.00   0.01
   3   8    -0.15   0.05   0.13    -0.02   0.00   0.02     0.01   0.00  -0.00
   4  15     0.05   0.02  -0.06     0.01   0.00  -0.01    -0.01   0.00  -0.01
   5  16    -0.01   0.01   0.01    -0.00   0.00   0.00     0.00  -0.00   0.00
   6   8    -0.00   0.00   0.01    -0.01   0.00   0.00     0.01  -0.00   0.01
   7   6     0.01  -0.00  -0.01     0.01  -0.01  -0.01    -0.01   0.01   0.00
   8   6     0.00  -0.00  -0.00     0.01  -0.00  -0.00    -0.00   0.01   0.00
   9  16    -0.00  -0.00   0.01     0.00  -0.00  -0.00     0.00   0.00   0.00
  10   6     0.01  -0.01  -0.00    -0.03   0.02   0.01     0.01  -0.00  -0.00
  11  16    -0.00   0.00  -0.00     0.00  -0.01  -0.00    -0.01   0.00  -0.00
  12  15    -0.00  -0.01   0.00    -0.00   0.07   0.00     0.03  -0.03   0.07
  13  16    -0.00   0.00  -0.00     0.01  -0.02   0.00    -0.01   0.02  -0.01
  14   8     0.00   0.01  -0.00    -0.00  -0.05   0.01     0.02   0.12  -0.10
  15   6    -0.01  -0.02   0.01     0.04   0.07  -0.02    -0.16  -0.17   0.11
  16   6    -0.00  -0.01   0.00     0.02   0.03   0.00    -0.06  -0.07   0.04
  17   8     0.00   0.01   0.02     0.00  -0.09  -0.15    -0.01  -0.02  -0.04
  18   6    -0.01  -0.01  -0.03     0.06   0.09   0.23     0.03   0.04   0.06
  19   6    -0.00  -0.01  -0.01     0.01   0.06   0.09     0.01   0.02   0.03
  20   1     0.21  -0.02   0.37     0.03  -0.00   0.05    -0.01   0.00  -0.02
  21   1    -0.42   0.00  -0.10    -0.05   0.00  -0.01     0.02   0.00   0.01
  22   1    -0.06  -0.01   0.14    -0.01  -0.00   0.02     0.01   0.00  -0.01
  23   1     0.18   0.10   0.43     0.02   0.01   0.06    -0.01  -0.01  -0.03
  24   1    -0.43  -0.17  -0.10    -0.06  -0.02  -0.01     0.02   0.01   0.01
  25   1    -0.01   0.01  -0.01    -0.02   0.02  -0.03     0.02  -0.01   0.02
  26   1    -0.00   0.00   0.02    -0.00   0.00   0.04     0.00  -0.00  -0.03
  27   1     0.00   0.00   0.01     0.01   0.01   0.03    -0.01  -0.01  -0.03
  28   1    -0.00   0.00   0.01    -0.01   0.01   0.01     0.01  -0.01  -0.00
  29   1    -0.01   0.00  -0.01    -0.02   0.00  -0.02     0.02  -0.01   0.02
  30   1    -0.00   0.00  -0.01     0.01  -0.01   0.03     0.00   0.01  -0.00
  31   1    -0.01  -0.00   0.01     0.01   0.01  -0.03    -0.00  -0.00   0.01
  32   1     0.04  -0.01   0.01    -0.12   0.03  -0.02     0.46  -0.11   0.09
  33   1    -0.01   0.03  -0.03     0.04  -0.09   0.07    -0.16   0.32  -0.29
  34   1    -0.01   0.02  -0.03     0.04  -0.05   0.08    -0.15   0.18  -0.31
  35   1     0.01   0.01  -0.01    -0.01  -0.03   0.04     0.07   0.09  -0.10
  36   1     0.04  -0.00   0.02    -0.11  -0.00  -0.05     0.39   0.00   0.18
  37   1     0.03  -0.02   0.03    -0.30   0.22  -0.27    -0.09   0.07  -0.08
  38   1    -0.02   0.05   0.00     0.13  -0.44  -0.03     0.04  -0.13  -0.01
  39   1     0.04  -0.02   0.02    -0.35   0.16  -0.15    -0.11   0.05  -0.04
  40   1    -0.03   0.04   0.01     0.23  -0.32  -0.11     0.07  -0.10  -0.03
  41   1     0.01   0.01   0.01    -0.08  -0.06  -0.12    -0.02  -0.02  -0.03
                     52                     53                     54
                        a                      a                      a 
 Frequencies --   826.0205               913.6176               916.9708
 Red. masses --     2.1363                12.7223                13.1489
 Frc consts  --     0.0000                 0.0000                 0.0000
 IR Inten    --     3.6069               405.2600               185.2586
 Raman Activ --     0.0000                 0.0000                 0.0000
 Depolar     --     0.0000                 0.0000                 0.0000
 Atom AN      X      Y      Z        X      Y      Z        X      Y      Z
   1   6    -0.00  -0.00   0.00     0.04  -0.05   0.03    -0.15   0.17  -0.10
   2   6    -0.01   0.00   0.01    -0.01  -0.09  -0.02     0.02   0.30   0.08
   3   8     0.01  -0.00   0.00    -0.01   0.16  -0.04     0.03  -0.55   0.15
   4  15    -0.01  -0.01  -0.04    -0.04  -0.05   0.01     0.15   0.18  -0.00
   5  16    -0.00   0.00   0.01     0.00  -0.00  -0.00    -0.00   0.00   0.01
   6   8    -0.07   0.04   0.08     0.07   0.07   0.02    -0.27  -0.27  -0.08
   7   6     0.19  -0.14  -0.10    -0.03  -0.04   0.03     0.11   0.15  -0.10
   8   6     0.09  -0.06  -0.04    -0.02  -0.02  -0.01     0.09   0.08   0.04
   9  16    -0.00   0.00   0.00     0.01  -0.01  -0.00    -0.00   0.02  -0.00
  10   6     0.01  -0.01   0.00    -0.02   0.03  -0.00     0.01  -0.00  -0.00
  11  16    -0.00   0.00  -0.00    -0.02  -0.02   0.00    -0.01  -0.00   0.00
  12  15     0.00  -0.01   0.00    -0.11  -0.17  -0.07    -0.03  -0.06  -0.01
  13  16    -0.00   0.00  -0.00    -0.01   0.01  -0.00    -0.00   0.01  -0.00
  14   8     0.00   0.01  -0.01     0.04   0.16   0.22     0.01   0.04   0.04
  15   6    -0.01  -0.01   0.01     0.03  -0.14  -0.07     0.01  -0.03  -0.02
  16   6    -0.00  -0.01   0.00    -0.03  -0.05  -0.07    -0.01  -0.01  -0.01
  17   8    -0.00   0.00   0.01     0.46   0.33  -0.26     0.14   0.10  -0.07
  18   6    -0.00  -0.00  -0.01    -0.11  -0.22   0.23    -0.03  -0.07   0.07
  19   6     0.00  -0.00  -0.00    -0.26   0.03   0.11    -0.08   0.01   0.03
  20   1    -0.01   0.00  -0.02    -0.02   0.02  -0.01     0.06  -0.07   0.03
  21   1     0.02   0.00   0.00    -0.01   0.02  -0.01     0.02  -0.07   0.03
  22   1     0.00   0.00  -0.01     0.08   0.00   0.05    -0.26  -0.01  -0.19
  23   1    -0.01  -0.01  -0.02    -0.02   0.01  -0.02     0.08  -0.03   0.07
  24   1     0.02   0.01   0.00    -0.00   0.00  -0.01     0.02  -0.01   0.05
  25   1    -0.28   0.22  -0.35    -0.00  -0.00   0.01     0.00   0.00  -0.03
  26   1    -0.03   0.07   0.49     0.01   0.00   0.01    -0.03  -0.00  -0.03
  27   1     0.07   0.14   0.40     0.01   0.01   0.01    -0.04  -0.03  -0.02
  28   1    -0.09   0.10   0.08    -0.02  -0.00  -0.04     0.08   0.00   0.15
  29   1    -0.33   0.07  -0.30     0.01   0.01   0.00    -0.02  -0.03  -0.01
  30   1    -0.00   0.00  -0.00     0.01  -0.00   0.02     0.00   0.01  -0.00
  31   1    -0.00  -0.00   0.01     0.01   0.01  -0.03    -0.01  -0.01   0.00
  32   1     0.03  -0.01   0.01     0.00  -0.01   0.01     0.00  -0.00   0.00
  33   1    -0.01   0.02  -0.02     0.02  -0.01   0.03     0.00  -0.00   0.00
  34   1    -0.01   0.01  -0.02     0.01   0.02   0.03     0.00   0.00   0.00
  35   1     0.00   0.01  -0.01    -0.09   0.03  -0.08    -0.02   0.01  -0.01
  36   1     0.03   0.00   0.01     0.01   0.01   0.03     0.01   0.00   0.01
  37   1     0.02  -0.01   0.01     0.10  -0.06  -0.01     0.03  -0.02  -0.00
  38   1    -0.01   0.02   0.00     0.07  -0.02   0.01     0.02  -0.00   0.00
  39   1     0.02  -0.01   0.01     0.08   0.01  -0.05     0.03   0.00  -0.02
  40   1    -0.01   0.02   0.01     0.09   0.02  -0.04     0.02   0.01  -0.01
  41   1     0.00   0.00   0.01    -0.26   0.25  -0.03    -0.08   0.07  -0.01
                     55                     56                     57
                        a                      a                      a 
 Frequencies --   933.8438               942.8302              1037.2110
 Red. masses --    12.3576                12.1910                 8.4160
 Frc consts  --     0.0000                 0.0000                 0.0000
 IR Inten    --   233.2588               152.8190               231.8751
 Raman Activ --     0.0000                 0.0000                 0.0000
 Depolar     --     0.0000                 0.0000                 0.0000
 Atom AN      X      Y      Z        X      Y      Z        X      Y      Z
   1   6    -0.01   0.01  -0.01    -0.12   0.13  -0.08    -0.21   0.22  -0.14
   2   6     0.00   0.02   0.00     0.04   0.14   0.07     0.23  -0.37   0.14
   3   8    -0.00  -0.03   0.01    -0.02  -0.35   0.10    -0.02   0.25   0.00
   4  15     0.00   0.01  -0.01    -0.03  -0.02  -0.20     0.00   0.00   0.01
   5  16     0.00  -0.00  -0.00    -0.01   0.01   0.01    -0.00  -0.00  -0.00
   6   8     0.01   0.01   0.00     0.42   0.42   0.14     0.09   0.12  -0.08
   7   6    -0.00  -0.00   0.00    -0.12  -0.19   0.17    -0.27  -0.22  -0.11
   8   6    -0.01  -0.01  -0.00    -0.19  -0.16  -0.08     0.21   0.14   0.15
   9  16    -0.00   0.00  -0.00    -0.01   0.00  -0.02     0.00  -0.01   0.00
  10   6     0.00  -0.01   0.01    -0.00   0.01   0.02    -0.00   0.00  -0.00
  11  16     0.02   0.01  -0.01     0.00  -0.00   0.00     0.00  -0.00   0.00
  12  15    -0.00   0.09  -0.16    -0.00  -0.00   0.01    -0.00   0.00   0.00
  13  16     0.01  -0.01   0.00    -0.00   0.00  -0.00     0.00  -0.00   0.00
  14   8     0.09   0.35   0.57    -0.00  -0.01  -0.02    -0.00   0.02   0.01
  15   6     0.09  -0.31  -0.13    -0.01   0.01   0.00    -0.01  -0.02  -0.03
  16   6    -0.08  -0.12  -0.22     0.00   0.00   0.01     0.01   0.01   0.03
  17   8    -0.20  -0.16   0.04     0.01   0.01  -0.00     0.01   0.01  -0.01
  18   6     0.02   0.08  -0.08    -0.00  -0.01   0.01    -0.02  -0.00   0.01
  19   6     0.12  -0.01  -0.04    -0.01   0.00   0.00     0.02  -0.00  -0.01
  20   1     0.00  -0.00   0.00     0.04  -0.06   0.02     0.04  -0.09  -0.01
  21   1     0.00  -0.00   0.00     0.02  -0.05   0.02     0.02  -0.09   0.03
  22   1    -0.02  -0.00  -0.01    -0.20  -0.01  -0.14    -0.30  -0.01  -0.22
  23   1     0.01  -0.00   0.00     0.07  -0.05   0.05     0.10  -0.13   0.07
  24   1     0.00  -0.00   0.00     0.03  -0.02   0.04     0.13  -0.09   0.06
  25   1     0.00   0.00   0.00     0.03   0.02   0.06    -0.12  -0.07  -0.07
  26   1     0.00   0.00   0.00     0.07   0.03   0.07    -0.10  -0.08  -0.07
  27   1     0.00   0.00   0.00     0.08   0.06   0.03    -0.06  -0.04   0.03
  28   1    -0.00  -0.00  -0.01    -0.16  -0.01  -0.30     0.14   0.01   0.26
  29   1     0.00   0.00   0.00     0.06   0.07   0.02    -0.04  -0.06   0.00
  30   1    -0.01  -0.00  -0.01    -0.00  -0.01   0.01    -0.00  -0.01  -0.00
  31   1    -0.00   0.00   0.01     0.01   0.01  -0.00     0.01   0.01   0.00
  32   1     0.02  -0.03   0.04     0.00  -0.00  -0.00    -0.01  -0.01  -0.01
  33   1     0.07   0.01   0.10    -0.00   0.00  -0.01    -0.01  -0.00  -0.01
  34   1     0.05   0.05   0.10    -0.00  -0.00  -0.00    -0.00  -0.01  -0.01
  35   1    -0.28   0.10  -0.22     0.01  -0.00   0.01     0.03  -0.01   0.02
  36   1     0.01   0.04   0.09     0.00  -0.00  -0.00     0.00  -0.00  -0.01
  37   1    -0.08   0.02   0.02     0.00  -0.00  -0.00    -0.01   0.00   0.01
  38   1    -0.01   0.01  -0.01     0.00  -0.00   0.00    -0.01   0.00   0.00
  39   1    -0.06   0.01   0.02     0.00  -0.00  -0.00    -0.00  -0.00   0.00
  40   1    -0.03  -0.03   0.01     0.00   0.00  -0.00    -0.00  -0.00   0.00
  41   1     0.11  -0.11   0.01    -0.01   0.01  -0.00     0.02  -0.01   0.00
                     58                     59                     60
                        a                      a                      a 
 Frequencies --  1038.9616              1046.2563              1051.0226
 Red. masses --     8.6165                 9.1635                 9.7299
 Frc consts  --     0.0000                 0.0000                 0.0000
 IR Inten    --   133.6613               162.6439                76.1267
 Raman Activ --     0.0000                 0.0000                 0.0000
 Depolar     --     0.0000                 0.0000                 0.0000
 Atom AN      X      Y      Z        X      Y      Z        X      Y      Z
   1   6    -0.01   0.01  -0.01     0.01  -0.01   0.00    -0.15   0.15  -0.10
   2   6     0.01  -0.02   0.01    -0.01   0.01  -0.00     0.18  -0.31   0.10
   3   8    -0.00   0.01   0.00     0.00  -0.01  -0.00     0.01   0.28  -0.01
   4  15     0.00   0.00  -0.00    -0.00  -0.00   0.00    -0.01  -0.02   0.01
   5  16    -0.00   0.00   0.00     0.00  -0.00  -0.00    -0.00   0.00   0.00
   6   8     0.01   0.01  -0.01    -0.00  -0.01   0.00    -0.18  -0.22   0.08
   7   6    -0.03  -0.02  -0.01     0.01   0.01   0.00     0.37   0.29   0.16
   8   6     0.02   0.01   0.01    -0.01  -0.00  -0.01    -0.24  -0.14  -0.21
   9  16    -0.00   0.00   0.00    -0.00   0.00  -0.00     0.01  -0.01   0.01
  10   6     0.00  -0.01  -0.00     0.00  -0.00   0.01     0.00  -0.00  -0.00
  11  16     0.01   0.01  -0.00     0.01   0.00  -0.01    -0.00   0.00  -0.00
  12  15     0.01   0.02  -0.01     0.01   0.02   0.01    -0.00   0.00  -0.00
  13  16     0.00  -0.00   0.00    -0.00   0.00  -0.00     0.00   0.00  -0.00
  14   8     0.02  -0.13  -0.06    -0.02   0.23   0.15     0.00  -0.00   0.00
  15   6     0.11   0.15   0.26    -0.19  -0.25  -0.42     0.01   0.00   0.01
  16   6    -0.11  -0.07  -0.21     0.19   0.09   0.31    -0.01   0.00  -0.01
  17   8    -0.17  -0.16   0.17    -0.14  -0.13   0.09    -0.01  -0.01   0.00
  18   6     0.45   0.03  -0.22     0.29   0.01  -0.16     0.01   0.00  -0.00
  19   6    -0.34   0.04   0.12    -0.20   0.04   0.07    -0.01  -0.00   0.00
  20   1     0.00  -0.01  -0.00    -0.00   0.00   0.00     0.03  -0.07  -0.01
  21   1     0.00  -0.01   0.00    -0.00   0.00  -0.00     0.01  -0.07   0.02
  22   1    -0.02  -0.00  -0.01     0.01   0.00   0.01    -0.20  -0.01  -0.16
  23   1     0.01  -0.01   0.00    -0.00   0.00  -0.00     0.07  -0.09   0.05
  24   1     0.01  -0.01   0.00    -0.00   0.00  -0.00     0.10  -0.07   0.04
  25   1    -0.01  -0.01  -0.01     0.00   0.00   0.00     0.14   0.08   0.08
  26   1    -0.01  -0.01  -0.01     0.00   0.00   0.00     0.11   0.09   0.09
  27   1    -0.00  -0.00   0.00     0.00   0.00  -0.00     0.04   0.03  -0.05
  28   1     0.01   0.00   0.03    -0.00  -0.00  -0.01    -0.14  -0.02  -0.26
  29   1    -0.00  -0.01   0.00     0.00   0.00  -0.00     0.02   0.06  -0.03
[...]
  33   1     0.77  -0.01  -0.35     0.22  -0.00  -0.10     0.02  -0.00  -0.01
  34   1    -0.04  -0.00   0.02    -0.01  -0.00   0.01    -0.00  -0.00   0.00
  35   1     0.00   0.01   0.01    -0.00   0.00   0.00    -0.00   0.00   0.00
  36   1     0.01   0.01  -0.01     0.00   0.00  -0.00     0.00  -0.00   0.00
  37   1     0.00  -0.00   0.01    -0.01   0.03  -0.02     0.00   0.00   0.00
  38   1    -0.11   0.01  -0.24     0.38  -0.05   0.84     0.00  -0.00   0.00
  39   1    -0.00  -0.00  -0.00    -0.01  -0.03  -0.01     0.00   0.00   0.00
  40   1     0.01  -0.00   0.01    -0.02   0.01  -0.05    -0.00   0.00  -0.00
  41   1    -0.00  -0.00   0.00     0.01   0.01  -0.00     0.00   0.00  -0.00
                    103                    104                    105
                        a                      a                      a 
 Frequencies --  2975.6816              2977.8135              2981.1142
 Red. masses --     1.7161                 2.0517                 1.7220
 Frc consts  --     0.0000                 0.0000                 0.0000
 IR Inten    --     7.0206                14.2530                 9.5364
 Raman Activ --     0.0000                 0.0000                 0.0000
 Depolar     --     0.0000                 0.0000                 0.0000
 Atom AN      X      Y      Z        X      Y      Z        X      Y      Z
   1   6    -0.00  -0.00   0.00     0.00   0.00  -0.00     0.03   0.02  -0.02
   2   6     0.00   0.00  -0.00    -0.00  -0.00   0.00    -0.21  -0.12   0.09
   3   8     0.00   0.00   0.00    -0.00  -0.00   0.00    -0.00  -0.01   0.00
   4  15    -0.00  -0.00  -0.00     0.00  -0.00   0.00     0.00   0.00  -0.00
   5  16     0.00  -0.00   0.00     0.00  -0.00   0.00     0.00   0.00  -0.00
   6   8     0.00   0.00   0.00    -0.00   0.00  -0.00    -0.00  -0.00   0.00
   7   6    -0.00   0.00  -0.00     0.00  -0.00   0.00    -0.00   0.00   0.00
   8   6     0.00  -0.00  -0.00    -0.00   0.00   0.00     0.00  -0.00   0.00
   9  16    -0.00   0.00   0.00    -0.00   0.00   0.00    -0.00   0.00   0.00
  10   6    -0.01   0.00   0.00    -0.27   0.13   0.06     0.00  -0.00  -0.00
  11  16    -0.00   0.00   0.00    -0.00   0.00   0.00    -0.00  -0.00  -0.00
  12  15    -0.00  -0.00   0.00     0.00  -0.00   0.00     0.00   0.00  -0.00
  13  16    -0.00   0.00  -0.00     0.00  -0.00  -0.00     0.00  -0.00   0.00
  14   8    -0.00  -0.00  -0.00    -0.00   0.00  -0.00    -0.00  -0.00   0.00
  15   6    -0.00   0.00   0.00     0.00   0.00  -0.00     0.00   0.00  -0.00
  16   6     0.00   0.00  -0.00    -0.00  -0.00   0.00    -0.00   0.00   0.00
  17   8     0.01   0.01  -0.00    -0.00  -0.00   0.00     0.00   0.00   0.00
  18   6     0.05   0.23   0.09    -0.00  -0.01  -0.00     0.00   0.00   0.00
  19   6    -0.01  -0.03  -0.01     0.00   0.00   0.00    -0.00  -0.00   0.00
  20   1     0.00   0.00  -0.00    -0.00  -0.00   0.00    -0.12  -0.07   0.06
  21   1     0.00  -0.00  -0.00    -0.00   0.00   0.00     0.00   0.01   0.01
  22   1    -0.00  -0.00   0.00     0.00  -0.00  -0.00     0.01  -0.02  -0.00
  23   1    -0.00  -0.00   0.00     0.01   0.00  -0.00     0.77   0.45  -0.34
  24   1     0.00   0.00   0.00     0.00  -0.00  -0.00    -0.03  -0.01   0.04
  25   1     0.00  -0.00  -0.00    -0.00   0.00   0.00     0.00  -0.00  -0.00
  26   1     0.00  -0.00   0.00    -0.00   0.00  -0.00     0.00  -0.00   0.00
  27   1    -0.00   0.00  -0.00     0.00  -0.00   0.00    -0.00   0.00  -0.00
  28   1    -0.00  -0.00   0.00    -0.00  -0.00   0.00     0.00   0.00  -0.00
  29   1    -0.00   0.00   0.00     0.00  -0.00  -0.00    -0.00  -0.00   0.00
  30   1     0.02  -0.00  -0.01     0.59  -0.09  -0.47    -0.01   0.00   0.01
  31   1     0.01  -0.01   0.01     0.38  -0.36   0.25    -0.00   0.00  -0.00
  32   1    -0.00  -0.00   0.00     0.00  -0.00   0.00    -0.00  -0.00   0.00
  33   1     0.01  -0.00  -0.00    -0.01   0.00   0.00    -0.00   0.00   0.00
  34   1    -0.00   0.00   0.00     0.00  -0.00  -0.00     0.00  -0.00  -0.00
  35   1     0.00   0.00  -0.00    -0.00  -0.00   0.00    -0.00  -0.00  -0.00
  36   1    -0.00  -0.00   0.00     0.00   0.00  -0.00    -0.00  -0.00   0.00
  37   1    -0.20  -0.87  -0.34     0.01   0.02   0.01    -0.00  -0.00  -0.00
  38   1     0.02   0.03   0.05    -0.00  -0.00  -0.00    -0.00   0.00  -0.00
  39   1     0.03   0.13   0.05    -0.00  -0.01  -0.00     0.00   0.00   0.00
  40   1     0.01  -0.01   0.02    -0.00   0.00  -0.00    -0.00  -0.00  -0.00
  41   1     0.01   0.00  -0.01     0.00   0.00   0.00     0.00   0.00  -0.00
                    106                    107                    108
                        a                      a                      a 
 Frequencies --  3016.2724              3019.2520              3045.8566
 Red. masses --     1.7745                 1.7532                 1.8074
 Frc consts  --     0.0000                 0.0000                 0.0000
 IR Inten    --    47.5322                46.3727                26.8152
 Raman Activ --     0.0000                 0.0000                 0.0000
 Depolar     --     0.0000                 0.0000                 0.0000
 Atom AN      X      Y      Z        X      Y      Z        X      Y      Z
   1   6     0.00   0.00  -0.00    -0.20  -0.11   0.11    -0.00   0.00   0.01
   2   6     0.00   0.00  -0.00    -0.04  -0.02   0.02    -0.00  -0.00   0.00
   3   8    -0.00  -0.00  -0.00     0.00  -0.00   0.00     0.00  -0.00  -0.00
   4  15    -0.00   0.00   0.00    -0.00   0.00  -0.00    -0.00   0.00   0.00
   5  16     0.00  -0.00  -0.00     0.00  -0.00   0.00    -0.00  -0.00   0.00
   6   8    -0.00   0.00  -0.00     0.00  -0.00   0.00     0.00   0.00  -0.00
   7   6     0.00  -0.00  -0.00    -0.00   0.00  -0.00     0.00  -0.00   0.00
   8   6    -0.00   0.00   0.00    -0.00  -0.00   0.00     0.00  -0.00  -0.00
   9  16     0.00  -0.00  -0.00    -0.00   0.00  -0.00    -0.00   0.00  -0.00
  10   6    -0.00   0.00  -0.00     0.00   0.00  -0.00    -0.00   0.00   0.00
  11  16     0.00   0.00  -0.00    -0.00  -0.00   0.00     0.00   0.00   0.00
  12  15     0.00  -0.00  -0.00     0.00  -0.00   0.00     0.00  -0.00  -0.00
  13  16    -0.00  -0.00   0.00    -0.00  -0.00  -0.00     0.00  -0.00  -0.00
  14   8    -0.00   0.00   0.00    -0.00   0.00  -0.00    -0.00  -0.00  -0.00
  15   6    -0.00   0.00  -0.00    -0.00  -0.00   0.00     0.02   0.00  -0.01
  16   6    -0.00  -0.00  -0.00    -0.00  -0.00   0.00     0.23   0.06  -0.12
  17   8    -0.00  -0.00   0.00    -0.00  -0.00   0.00     0.00   0.00  -0.00
  18   6    -0.01  -0.04  -0.02    -0.00  -0.00  -0.00     0.00  -0.00   0.00
  19   6    -0.07  -0.22  -0.12    -0.00  -0.00  -0.00     0.01  -0.00   0.02
  20   1    -0.01  -0.00   0.00     0.75   0.45  -0.38     0.01   0.01  -0.00
  21   1     0.00   0.00   0.00    -0.01  -0.04  -0.04     0.01  -0.02  -0.04
  22   1     0.00   0.00  -0.00    -0.03  -0.02   0.02    -0.00   0.00   0.00
  23   1    -0.00  -0.00   0.00     0.11   0.07  -0.05     0.00   0.00  -0.00
  24   1     0.00  -0.00  -0.00    -0.00  -0.01  -0.01     0.00  -0.00  -0.00
  25   1    -0.00   0.00   0.00    -0.00   0.00   0.00     0.00  -0.00  -0.00
  26   1    -0.00   0.00  -0.00     0.00  -0.00   0.00    -0.00   0.00  -0.00
  27   1     0.00  -0.00   0.00     0.00  -0.00   0.00    -0.01   0.01  -0.00
  28   1     0.00   0.00  -0.00     0.00   0.00  -0.00    -0.00  -0.00   0.00
  29   1     0.00  -0.00  -0.00     0.00  -0.00  -0.01    -0.01   0.00   0.01
  30   1     0.00  -0.00  -0.00    -0.00   0.00   0.00     0.00  -0.00  -0.00
  31   1     0.00  -0.00   0.00     0.00  -0.00   0.00     0.00  -0.00   0.00
  32   1    -0.00  -0.01   0.00     0.00   0.00  -0.00    -0.00  -0.01   0.01
  33   1     0.00   0.00  -0.00     0.00  -0.00  -0.00    -0.05   0.00   0.02
  34   1    -0.00  -0.00   0.00     0.01  -0.00  -0.01    -0.85   0.01   0.38
  35   1    -0.00   0.00   0.00    -0.00  -0.00   0.00     0.03  -0.03  -0.05
  36   1     0.00   0.01  -0.00    -0.00   0.00  -0.00    -0.01  -0.19   0.08
  37   1     0.03   0.13   0.05     0.00   0.00   0.00     0.00   0.00   0.00
  38   1     0.01  -0.01   0.02    -0.00  -0.00   0.00    -0.00  -0.00  -0.01
  39   1     0.22   0.86   0.33     0.00   0.01   0.00     0.00   0.01   0.01
  40   1     0.03  -0.04   0.09     0.00  -0.00   0.00    -0.04   0.01  -0.09
  41   1    -0.02  -0.03  -0.01    -0.00  -0.00  -0.00    -0.01  -0.00   0.01
                    109                    110                    111
                        a                      a                      a 
 Frequencies --  3046.5530              3049.3749              3051.4971
 Red. masses --     1.6277                 1.6015                 1.5586
 Frc consts  --     0.0000                 0.0000                 0.0000
 IR Inten    --    19.2534                14.9865                17.5836
 Raman Activ --     0.0000                 0.0000                 0.0000
 Depolar     --     0.0000                 0.0000                 0.0000
 Atom AN      X      Y      Z        X      Y      Z        X      Y      Z
   1   6     0.00   0.00   0.00    -0.03   0.05   0.22    -0.00   0.01  -0.00
   2   6    -0.00  -0.00   0.00    -0.00   0.00   0.02     0.00   0.00  -0.00
   3   8     0.00  -0.00  -0.00    -0.00  -0.00  -0.00    -0.00   0.00   0.00
   4  15    -0.00  -0.00   0.00     0.00   0.00   0.00     0.00   0.00  -0.00
   5  16     0.00  -0.00   0.00    -0.00  -0.00   0.00     0.00  -0.00  -0.00
   6   8     0.00   0.00   0.00    -0.00   0.00  -0.00    -0.00  -0.00   0.00
   7   6    -0.00  -0.00   0.00     0.00  -0.00   0.00    -0.00   0.00  -0.00
   8   6    -0.00  -0.00   0.00    -0.00   0.01  -0.00    -0.01   0.01  -0.00
   9  16    -0.00   0.00  -0.00     0.00  -0.00   0.00    -0.00   0.00   0.00
  10   6    -0.00   0.00   0.00    -0.00   0.00  -0.00    -0.00   0.00  -0.00
  11  16    -0.00  -0.00   0.00    -0.00   0.00   0.00     0.00   0.00  -0.00
  12  15    -0.00   0.00  -0.00    -0.00  -0.00  -0.00     0.00   0.00   0.00
  13  16     0.00  -0.00  -0.00     0.00  -0.00  -0.00    -0.00   0.00  -0.00
  14   8    -0.00  -0.00   0.00     0.00   0.00   0.00     0.00   0.00  -0.00
  15   6     0.00   0.00  -0.00    -0.00   0.00   0.00     0.00   0.01  -0.01
  16   6     0.02   0.01  -0.01    -0.01   0.00   0.01    -0.01   0.20  -0.11
  17   8     0.00  -0.00   0.00     0.00  -0.00   0.00    -0.00  -0.00   0.00
  18   6    -0.01   0.00  -0.02    -0.00  -0.00  -0.00    -0.00  -0.00  -0.00
  19   6    -0.10   0.04  -0.21     0.00   0.00  -0.00     0.00  -0.00  -0.00
  20   1    -0.00  -0.00   0.00    -0.05  -0.02   0.05    -0.00   0.00   0.00
  21   1     0.00  -0.00  -0.01     0.18  -0.36  -0.86    -0.00   0.00   0.00
  22   1    -0.00   0.00   0.00    -0.04   0.19   0.01     0.01  -0.05   0.00
  23   1     0.00   0.00  -0.00     0.01   0.01  -0.00    -0.00  -0.00   0.00
  24   1     0.00  -0.00  -0.00     0.01  -0.01  -0.04    -0.00   0.00   0.00
  25   1     0.00  -0.00  -0.00     0.00   0.00  -0.00     0.00  -0.00  -0.00
  26   1    -0.00   0.00  -0.00    -0.00   0.00  -0.00     0.00  -0.00   0.00
  27   1    -0.00   0.00  -0.00     0.01  -0.02   0.00     0.02  -0.04   0.01
  28   1     0.00   0.00  -0.00    -0.01  -0.01   0.00     0.00   0.00  -0.00
  29   1     0.00  -0.00  -0.00     0.00  -0.00  -0.00    -0.00   0.00  -0.00
  30   1     0.00  -0.00  -0.00    -0.00  -0.00   0.00    -0.00  -0.00   0.00
  31   1    -0.00   0.00  -0.00     0.00  -0.00   0.00     0.00  -0.00   0.00
  32   1    -0.00  -0.00   0.00    -0.00   0.00  -0.00    -0.01  -0.04   0.02
  33   1    -0.01   0.00   0.00     0.00   0.00  -0.00     0.00   0.00  -0.00
  34   1    -0.09   0.00   0.04     0.04   0.00  -0.02     0.20   0.03  -0.10
  35   1     0.00  -0.00  -0.00    -0.00  -0.01  -0.01    -0.01   0.11   0.06
  36   1    -0.00  -0.03   0.01    -0.00  -0.00   0.00    -0.16  -0.82   0.42
  37   1     0.00   0.01   0.00     0.00   0.00   0.00     0.00   0.00   0.00
  38   1     0.02  -0.00   0.05     0.00   0.00   0.00    -0.00  -0.00   0.00
  39   1    -0.04  -0.10  -0.07     0.00   0.00   0.00     0.00   0.01   0.00
  40   1     0.35  -0.08   0.88    -0.00   0.00  -0.00    -0.00   0.00  -0.01
  41   1     0.04   0.04  -0.08    -0.00  -0.00   0.00    -0.01  -0.00   0.01
                    112                    113                    114
                        a                      a                      a 
 Frequencies --  3053.6920              3053.6405              3055.8237
 Red. masses --     1.8308                 1.8009                 1.8163
 Frc consts  --     0.0000                 0.0000                 0.0000
 IR Inten    --    21.8352                15.5560                 6.9040
 Raman Activ --     0.0000                 0.0000                 0.0000
 Depolar     --     0.0000                 0.0000                 0.0000
 Atom AN      X      Y      Z        X      Y      Z        X      Y      Z
   1   6    -0.00   0.02  -0.00    -0.00   0.01  -0.00     0.06  -0.26  -0.02
   2   6     0.00   0.00   0.00     0.00   0.00  -0.00    -0.00  -0.01  -0.00
   3   8    -0.00  -0.00  -0.00     0.00  -0.00  -0.00     0.00   0.00   0.00
   4  15    -0.00   0.00   0.00    -0.00   0.00   0.00     0.00   0.00  -0.00
   5  16     0.00   0.00  -0.00     0.00   0.00   0.00     0.00   0.00  -0.00
   6   8     0.00  -0.00   0.00     0.00  -0.00   0.00     0.00   0.00   0.00
   7   6    -0.01   0.01   0.00    -0.01   0.01   0.00    -0.00   0.00   0.00
   8   6    -0.15   0.18   0.01    -0.10   0.12   0.01    -0.03   0.02   0.02
   9  16    -0.00   0.00   0.00    -0.00   0.00   0.00    -0.00  -0.00   0.00
  10   6     0.00  -0.00  -0.00     0.00  -0.00   0.00     0.00   0.00  -0.00
  11  16    -0.00  -0.00  -0.00    -0.00   0.00   0.00     0.00  -0.00  -0.00
  12  15     0.00   0.00   0.00    -0.00  -0.00  -0.00    -0.00  -0.00   0.00
  13  16    -0.00   0.00  -0.00     0.00  -0.00   0.00     0.00  -0.00   0.00
  14   8     0.00  -0.00  -0.00    -0.00   0.00   0.00     0.00  -0.00  -0.00
  15   6     0.00  -0.00   0.00    -0.00  -0.00   0.00     0.00   0.00  -0.00
  16   6     0.00  -0.01   0.00     0.00  -0.01   0.00     0.00   0.01  -0.01
  17   8    -0.00   0.00  -0.00     0.00  -0.00   0.00    -0.00   0.00  -0.00
  18   6    -0.00  -0.00   0.00     0.00   0.01  -0.01     0.00   0.00   0.00
  19   6    -0.09  -0.06   0.09     0.14   0.10  -0.14    -0.00  -0.00   0.00
  20   1    -0.00   0.00   0.00    -0.00   0.00   0.00     0.01  -0.03  -0.01
  21   1     0.00   0.00  -0.00    -0.00   0.00   0.00    -0.03   0.04   0.16
  22   1     0.02  -0.09   0.01     0.01  -0.06   0.00    -0.18   0.91  -0.07
  23   1    -0.00  -0.00   0.00    -0.00  -0.00   0.00     0.01   0.01  -0.01
  24   1     0.00   0.00  -0.00     0.00   0.00  -0.00    -0.00   0.00   0.02
  25   1     0.01  -0.00  -0.01     0.01  -0.00  -0.01     0.00  -0.00  -0.00
  26   1     0.02  -0.03   0.01     0.01  -0.02   0.01     0.00  -0.00   0.00
  27   1     0.38  -0.63   0.18     0.25  -0.40   0.12     0.03  -0.06   0.02
  28   1    -0.00   0.04  -0.00    -0.01   0.02   0.00    -0.00   0.00   0.00
  29   1     0.14  -0.04  -0.20     0.11  -0.03  -0.15     0.08  -0.03  -0.10
  30   1    -0.00   0.00   0.00     0.00  -0.00  -0.00    -0.00   0.00   0.00
  31   1     0.00  -0.00  -0.00    -0.00   0.00  -0.00     0.00   0.00   0.00
  32   1     0.00   0.00  -0.00     0.00   0.00  -0.00    -0.00  -0.00   0.00
  33   1    -0.00  -0.00   0.00     0.00   0.00  -0.00    -0.00   0.00   0.00
  34   1    -0.02  -0.00   0.01    -0.01  -0.00   0.01     0.00   0.00  -0.00
  35   1     0.00  -0.01  -0.01     0.00  -0.00  -0.00    -0.00   0.01   0.00
  36   1     0.01   0.03  -0.01     0.01   0.03  -0.01    -0.01  -0.04   0.02
  37   1     0.00   0.01   0.00    -0.00  -0.01  -0.01    -0.00  -0.00  -0.00
  38   1    -0.00  -0.00  -0.01     0.01   0.00   0.01    -0.00  -0.00  -0.00
  39   1    -0.01  -0.00   0.02     0.01  -0.00  -0.03    -0.00  -0.00   0.00
  40   1    -0.03  -0.01  -0.03     0.04   0.01   0.04    -0.00   0.00  -0.00
  41   1     0.36   0.22  -0.31    -0.55  -0.34   0.48     0.00   0.00  -0.00
                    115                    116                    117
                        a                      a                      a 
 Frequencies --  3057.0030              3062.2926              3063.0321
 Red. masses --     1.4525                 1.8478                 1.7994
 Frc consts  --     0.0000                 0.0000                 0.0000
 IR Inten    --    12.9230                11.7928                 8.4218
 Raman Activ --     0.0000                 0.0000                 0.0000
 Depolar     --     0.0000                 0.0000                 0.0000
 Atom AN      X      Y      Z        X      Y      Z        X      Y      Z
   1   6     0.01  -0.03  -0.00    -0.00   0.01   0.00    -0.00   0.00   0.00
   2   6    -0.00  -0.00  -0.00     0.00   0.00   0.00    -0.00  -0.00   0.00
   3   8     0.00  -0.00   0.00    -0.00  -0.00  -0.00     0.00  -0.00  -0.00
   4  15     0.00   0.00   0.00     0.00   0.00   0.00    -0.00  -0.00   0.00
   5  16    -0.00  -0.00  -0.00     0.00   0.00  -0.00     0.00   0.00  -0.00
   6   8    -0.00  -0.00  -0.00     0.00   0.00  -0.00    -0.00  -0.00   0.00
   7   6     0.00  -0.00  -0.01    -0.00  -0.01   0.01     0.00   0.00  -0.00
   8   6     0.06  -0.03  -0.19    -0.17  -0.19   0.09     0.02   0.02  -0.01
   9  16    -0.00  -0.00  -0.00    -0.00  -0.00  -0.00    -0.00  -0.00  -0.00
  10   6    -0.00   0.00   0.00    -0.00   0.00  -0.00     0.00   0.00   0.00
  11  16     0.00  -0.00  -0.00    -0.00   0.00   0.00    -0.00   0.00   0.00
  12  15    -0.00  -0.00   0.00     0.00  -0.00   0.00     0.00  -0.00   0.00
  13  16    -0.00   0.00  -0.00     0.00  -0.00   0.00    -0.00   0.00  -0.00
  14   8     0.00  -0.00  -0.00    -0.00   0.00  -0.00    -0.00   0.00  -0.00
  15   6    -0.00  -0.00   0.00     0.00  -0.00  -0.00     0.00  -0.01  -0.00
  16   6    -0.00  -0.00   0.00     0.00  -0.02  -0.02     0.03  -0.21  -0.17
  17   8     0.00  -0.00  -0.00    -0.00  -0.00  -0.00    -0.00  -0.00  -0.00
  18   6    -0.00   0.00  -0.00     0.00   0.00   0.00     0.00   0.00   0.00
  19   6     0.00   0.00  -0.00     0.00   0.00   0.00    -0.00   0.00   0.00
  20   1     0.01  -0.00  -0.00    -0.01  -0.00   0.00     0.00   0.00   0.00
  21   1    -0.00   0.00   0.02     0.00  -0.01  -0.02     0.00  -0.01  -0.01
  22   1    -0.02   0.10  -0.01     0.00  -0.02   0.00    -0.00   0.00   0.00
  23   1     0.00   0.00  -0.00    -0.00  -0.00   0.00     0.00   0.00  -0.00
  24   1    -0.00   0.00   0.00     0.00  -0.00  -0.00     0.00  -0.00  -0.00
  25   1    -0.02   0.01   0.02     0.01  -0.01  -0.01    -0.00   0.00   0.00
  26   1     0.00  -0.00  -0.00    -0.01   0.01  -0.00     0.00  -0.00   0.00
  27   1     0.18  -0.27   0.05    -0.07   0.05  -0.01     0.01  -0.01   0.00
  28   1     0.15   0.16  -0.06     0.59   0.70  -0.17    -0.07  -0.08   0.02
  29   1    -0.54   0.22   0.67     0.09  -0.07  -0.13    -0.01   0.01   0.02
  30   1     0.00  -0.00  -0.00    -0.00  -0.00   0.00     0.00   0.00   0.00
  31   1     0.00  -0.00   0.00     0.00  -0.00   0.00     0.00   0.00   0.00
  32   1     0.00   0.00  -0.00     0.00   0.00  -0.00     0.00   0.01  -0.01
  33   1     0.00   0.00  -0.00    -0.00  -0.00   0.00    -0.02   0.00   0.01
  34   1     0.00  -0.00  -0.00    -0.01  -0.00   0.00    -0.06  -0.03   0.01
  35   1     0.00  -0.00  -0.00    -0.01   0.08   0.07    -0.06   0.70   0.64
  36   1     0.00   0.01  -0.00     0.00   0.01  -0.01     0.02   0.06  -0.06
  37   1    -0.00   0.00   0.00    -0.00  -0.00  -0.00    -0.00  -0.00  -0.00
  38   1     0.00  -0.00   0.00    -0.00   0.00  -0.00     0.00   0.00  -0.00
  39   1     0.00   0.00  -0.00    -0.00  -0.00  -0.00    -0.00  -0.00  -0.00
  40   1     0.00  -0.00   0.01    -0.00   0.00  -0.00    -0.00   0.00  -0.00
  41   1    -0.01  -0.01   0.01    -0.00  -0.00   0.00     0.00   0.00  -0.00
