      -----------------------------------------------------------      
     |                   =====================                   |     
     |                           x T B                           |     
     |                   =====================                   |     
     |                         S. Grimme                         |     
     |          Mulliken Center for Theoretical Chemistry        |     
     |                    University of Bonn                     |     
      -----------------------------------------------------------      

   * xtb version 6.7.1 (edcfbbe) compiled by 'albert@albert-system' on 2024-07-22

   xtb is free software: you can redistribute it and/or modify it under
   the terms of the GNU Lesser General Public License as published by
   the Free Software Foundation, either version 3 of the License, or
   (at your option) any later version.
   
   xtb is distributed in the hope that it will be useful,
   but WITHOUT ANY WARRANTY; without even the implied warranty of
   MERCHANTABILITY or FITNESS FOR A PARTICULAR PURPOSE.  See the
   GNU Lesser General Public License for more details.
   
   Cite this work as:
   * C. Bannwarth, E. Caldeweyher, S. Ehlert, A. Hansen, P. Pracht,
     J. Seibert, S. Spicher, S. Grimme, WIREs Comput. Mol. Sci., 2020, 11,
     e01493. DOI: 10.1002/wcms.1493
   
   for GFN2-xTB:
   * C. Bannwarth, S. Ehlert and S. Grimme., J. Chem. Theory Comput., 2019,
     15, 1652-1671. DOI: 10.1021/acs.jctc.8b01176
   for GFN1-xTB:
   * S. Grimme, C. Bannwarth, P. Shushkov, J. Chem. Theory Comput., 2017,
     13, 1989-2009. DOI: 10.1021/acs.jctc.7b00118
   for GFN0-xTB:
   * P. Pracht, E. Caldeweyher, S. Ehlert, S. Grimme, ChemRxiv, 2019, preprint.
     DOI: 10.26434/chemrxiv.8326202.v1
   for GFN-FF:
   * S. Spicher and S. Grimme, Angew. Chem. Int. Ed., 2020, 59, 15665-15673.
     DOI: 10.1002/anie.202004239
   
   for ALPB and GBSA implicit solvation:
   * S. Ehlert, M. Stahn, S. Spicher, S. Grimme, J. Chem. Theory Comput.,
     2021, 17, 4250-4261. DOI: 10.1021/acs.jctc.1c00471
   
   for ddCOSMO and CPCM-X implicit solvation:
   * M. Stahn, S. Ehlert, S. Grimme, J. Phys. Chem. A,
     2023, XX, XXXX-XXXX. DOI: 10.1021/acs.jpca.3c04382
   
   for DFT-D4:
   * E. Caldeweyher, C. Bannwarth and S. Grimme, J. Chem. Phys., 2017,
     147, 034112. DOI: 10.1063/1.4993215
   * E. Caldeweyher, S. Ehlert, A. Hansen, H. Neugebauer, S. Spicher,
     C. Bannwarth and S. Grimme, J. Chem. Phys., 2019, 150, 154122.
     DOI: 10.1063/1.5090222
   * E. Caldeweyher, J.-M. Mewes, S. Ehlert and S. Grimme, Phys. Chem. Chem. Phys.
     2020, 22, 8499-8512. DOI: 10.1039/D0CP00502A
   
   for sTDA-xTB:
   * S. Grimme and C. Bannwarth, J. Chem. Phys., 2016, 145, 054103.
     DOI: 10.1063/1.4959605
   
   in the mass-spec context:
   * V. Asgeirsson, C. Bauer and S. Grimme, Chem. Sci., 2017, 8, 4879.
     DOI: 10.1039/c7sc00601b
   * J. Koopman and S. Grimme, ACS Omega 2019, 4, 12, 15120-15133.
     DOI: 10.1021/acsomega.9b02011
   
   for metadynamics refer to:
   * S. Grimme, J. Chem. Theory Comput., 2019, 155, 2847-2862
     DOI: 10.1021/acs.jctc.9b00143
   
   for SPH calculations refer to:
   * S. Spicher and S. Grimme, J. Chem. Theory Comput., 2021, 17, 1701-1714
     DOI: 10.1021/acs.jctc.0c01306
   
   for ONIOM refer to:
   * C. Plett, A. Katbashev, S. Ehlert, S. Grimme, M. Bursch,
     Phys. Chem. Chem. Phys., 2023, 25, 17860-17868. DOI: 10.1039/D3CP02178E
   
   for DIPRO refer to:
   * J. Kohn, N. Gildemeister, S. Grimme, D. Fazzi, A. Hansen,
     J. Chem. Phys., 2023, just accepted.
   
   for PTB refer to:
   * S. Grimme, M. Mueller, A. Hansen, J. Chem. Phys., 2023, 158, 124111.
     DOI: 10.1063/5.0137838
   
   with help from (in alphabetical order)
   P. Atkinson, C. Bannwarth, F. Bohle, G. Brandenburg, E. Caldeweyher
   M. Checinski, S. Dohm, S. Ehlert, S. Ehrlich, I. Gerasimov, C. Hölzer
   A. Katbashev, J. Kohn, J. Koopman, C. Lavigne, S. Lehtola, F. März, M. Müller,
   F. Musil, H. Neugebauer, J. Pisarek, C. Plett, P. Pracht, F. Pultar,
   J. Seibert, P. Shushkov, S. Spicher, M. Stahn, M. Steiner, T. Strunk,
   J. Stückrath, T. Rose, and J. Unsleber
   
 * started run on 2025/04/09 at 05:20:46.143     
   ID    Z sym.   atoms
    1    6 C      1, 2, 7, 8, 10, 15, 16, 18, 19
    2    8 O      3, 6, 14, 17
    3   15 P      4, 12
    4   16 S      5, 9, 11, 13
    5    1 H      20-41

           -------------------------------------------------
          |                Calculation Setup                |
           -------------------------------------------------

          program call               : /srv/scratch/z5358697/.xtb/bin/xtb solv.coord --gfn2 --sp --chrg 0 --norestart --parallel 1 --alpb water reference -I xtb_sp-xcontrol-inp
          hostname                   : k163
          coordinate file            : solv.coord
          omp threads                :                     1


           -------------------------------------------------
          |                 G F N 2 - x T B                 |
           -------------------------------------------------

        Reference                      10.1021/acs.jctc.8b01176
      * Hamiltonian:
        H0-scaling (s, p, d)           1.850000    2.230000    2.230000
        zeta-weighting                 0.500000
      * Dispersion:
        s8                             2.700000
        a1                             0.520000
        a2                             5.000000
        s9                             5.000000
      * Repulsion:
        kExp                           1.500000    1.000000
        rExp                           1.000000
      * Coulomb:
        alpha                          2.000000
        third order                    shell-resolved
        anisotropic                    true
        a3                             3.000000
        a5                             4.000000
        cn-shift                       1.200000
        cn-exp                         4.000000
        max-rad                        5.000000

      * Solvation model:               ALPB
        Solvent                        water
        Parameter file                 internal GFN2-xTB/ALPB
        Dielectric constant                8.0200E+01
        Reference state                gsolv=reference [X=1]
        Free energy shift                  2.8945E-03 Eh       1.8164E+00 kcal/mol
        Temperature                        2.9815E+02 K
        Density                            1.0000E+00 kg/L
        Solvent mass                       1.8000E+01 g/mol
        Interaction kernel             P16
        Born radius scaling (c1)           1.4744E+00
        Born radii integrator          GBOBC
        Born offset                        0.0000E+00 a0       0.0000E+00 AA
        H-bond correction              true
        Ion screening                  false
        Surface tension                    1.0000E-05 Eh       1.5569E+01 dyn/cm
        Grid points                               974 per atom

          ...................................................
          :                      SETUP                      :
          :.................................................:
          :  # basis functions                 134          :
          :  # atomic orbitals                 128          :
          :  # shells                           66          :
          :  # electrons                       116          :
          :  max. iterations                   250          :
          :  Hamiltonian                  GFN2-xTB          :
          :  restarted?                      false          :
          :  GBSA solvation                   true          :
          :  PC potential                    false          :
          :  electronic temp.          300.0000000     K    :
          :  accuracy                    1.0000000          :
          :  -> integral cutoff          0.2500000E+02      :
          :  -> integral neglect         0.1000000E-07      :
          :  -> SCF convergence          0.1000000E-05 Eh   :
          :  -> wf. convergence          0.1000000E-03 e    :
          :  Broyden damping             0.4000000          :
          :  net charge                          0          :
          :  unpaired electrons                  0          :
          ...................................................

 iter      E             dE          RMSdq      gap      omega  full diag
   1    -65.4453491 -0.654453E+02  0.649E+00    4.27       0.0  T
   2    -65.5666212 -0.121272E+00  0.375E+00    3.57       1.0  T
   3    -65.5864126 -0.197914E-01  0.113E+00    3.11       1.0  T
   4    -65.5893489 -0.293634E-02  0.512E-01    3.09       1.0  T
   5    -65.5900741 -0.725142E-03  0.280E-01    3.15       1.0  T
   6    -65.5902910 -0.216935E-03  0.126E-01    3.16       1.0  T
   7    -65.5903468 -0.557538E-04  0.457E-02    3.17       1.0  T
   8    -65.5903518 -0.502374E-05  0.178E-02    3.18       1.0  T
   9    -65.5903526 -0.827684E-06  0.522E-03    3.18       3.0  T
  10    -65.5903526 -0.703898E-08  0.216E-03    3.18       7.2  T
  11    -65.5903527 -0.272569E-07  0.548E-04    3.18      28.5  T
  12    -65.5903527 -0.464212E-09  0.286E-04    3.18      54.6  T

   *** convergence criteria satisfied after 12 iterations ***

         #    Occupation            Energy/Eh            Energy/eV
      -------------------------------------------------------------
         1        2.0000           -0.7693162             -20.9342
       ...           ...                  ...                  ...
        52        2.0000           -0.4447901             -12.1034
        53        2.0000           -0.4224869             -11.4965
        54        2.0000           -0.4131634             -11.2427
        55        2.0000           -0.4009307             -10.9099
        56        2.0000           -0.3980410             -10.8312
        57        2.0000           -0.3947674             -10.7422
        58        2.0000           -0.3900465             -10.6137 (HOMO)
        59                         -0.2733404              -7.4380 (LUMO)
        60                         -0.2625763              -7.1451
        61                         -0.2194314              -5.9710
        62                         -0.1886087              -5.1323
        63                         -0.1808721              -4.9218
       ...                                ...                  ...
       128                          1.2954841              35.2519
      -------------------------------------------------------------
                  HL-Gap            0.1167060 Eh            3.1757 eV
             Fermi-level           -0.3316934 Eh           -9.0258 eV

 SCC (total)                   0 d,  0 h,  0 min,  0.059 sec
 SCC setup                      ...        0 min,  0.003 sec (  4.340%)
 Dispersion                     ...        0 min,  0.000 sec (  0.511%)
 classical contributions        ...        0 min,  0.000 sec (  0.097%)
 integral evaluation            ...        0 min,  0.008 sec ( 14.405%)
 iterations                     ...        0 min,  0.025 sec ( 42.895%)
 molecular gradient             ...        0 min,  0.022 sec ( 37.398%)
 printout                       ...        0 min,  0.000 sec (  0.325%)

         :::::::::::::::::::::::::::::::::::::::::::::::::::::
         ::                     SUMMARY                     ::
         :::::::::::::::::::::::::::::::::::::::::::::::::::::
         :: total energy             -65.027964665061 Eh    ::
         :: total w/o Gsasa/hb       -65.030343047135 Eh    ::
         :: gradient norm              0.000063688956 Eh/a0 ::
         :: HOMO-LUMO gap              3.175732750470 eV    ::
         ::.................................................::
         :: SCC energy               -65.589472287939 Eh    ::
         :: -> isotropic ES            0.129532096206 Eh    ::
         :: -> anisotropic ES         -0.021260107711 Eh    ::
         :: -> anisotropic XC          0.029708049457 Eh    ::
         :: -> dispersion             -0.054066316613 Eh    ::
         :: -> Gsolv                  -0.024834172280 Eh    ::
         ::    -> Gelec               -0.027212554354 Eh    ::
         ::    -> Gsasa                0.003637058138 Eh    ::
         ::    -> Ghb                 -0.004153225224 Eh    ::
         ::    -> Gshift               0.002894549160 Eh    ::
         :: repulsion energy           0.561507622878 Eh    ::
         :: add. restraining           0.000000000000 Eh    ::
         :: total charge              -0.000000000000 e     ::
         :::::::::::::::::::::::::::::::::::::::::::::::::::::

           -------------------------------------------------
          |                Property Printout                |
           -------------------------------------------------

    * Orbital Energies and Occupations

         #    Occupation            Energy/Eh            Energy/eV
      -------------------------------------------------------------
         1        2.0000           -0.7693162             -20.9342
       ...           ...                  ...                  ...
        46        2.0000           -0.4701124             -12.7924
        47        2.0000           -0.4648849             -12.6502
        48        2.0000           -0.4586700             -12.4810
        49        2.0000           -0.4575009             -12.4492
        50        2.0000           -0.4525978             -12.3158
        51        2.0000           -0.4475661             -12.1789
        52        2.0000           -0.4447901             -12.1034
        53        2.0000           -0.4224869             -11.4965
        54        2.0000           -0.4131634             -11.2427
        55        2.0000           -0.4009307             -10.9099
        56        2.0000           -0.3980410             -10.8312
        57        2.0000           -0.3947674             -10.7422
        58        2.0000           -0.3900465             -10.6137 (HOMO)
        59                         -0.2733404              -7.4380 (LUMO)
        60                         -0.2625763              -7.1451
        61                         -0.2194314              -5.9710
        62                         -0.1886087              -5.1323
        63                         -0.1808721              -4.9218
        64                         -0.1787304              -4.8635
        65                         -0.1652336              -4.4962
        66                         -0.1625909              -4.4243
        67                         -0.1338054              -3.6410
        68                         -0.1266256              -3.4457
        69                         -0.0557905              -1.5181
       ...                                ...                  ...
       128                          1.2954841              35.2519
      -------------------------------------------------------------
                  HL-Gap            0.1167060 Eh            3.1757 eV
             Fermi-level           -0.3316934 Eh           -9.0258 eV

     #   Z          covCN         q      C6AA      α(0)
     1   6 C        3.752    -0.135    23.153     6.862
     2   6 C        3.884     0.082    19.176     6.226
     3   8 O        1.655    -0.255    18.244     5.766
     4  15 P        3.839     0.378   144.531    21.596
     5  16 S        0.928    -0.490   160.943    21.458
     6   8 O        1.653    -0.260    18.333     5.780
     7   6 C        3.816     0.074    19.336     6.258
     8   6 C        3.751    -0.132    23.103     6.855
     9  16 S        2.014    -0.116   145.901    20.330
    10   6 C        3.809     0.035    19.974     6.362
    11  16 S        2.017    -0.127   146.400    20.365
    12  15 P        3.877     0.356   145.378    21.659
    13  16 S        0.926    -0.471   160.004    21.395
    14   8 O        1.655    -0.258    18.297     5.774
    15   6 C        3.874     0.092    19.014     6.200
    16   6 C        3.751    -0.123    22.924     6.828
    17   8 O        1.655    -0.261    18.337     5.781
    18   6 C        3.876     0.084    19.142     6.221
    19   6 C        3.752    -0.133    23.114     6.856
    20   1 H        0.925     0.080     1.979     2.200
    21   1 H        0.925     0.086     1.921     2.168
    22   1 H        0.925     0.070     2.088     2.260
    23   1 H        0.924     0.070     2.080     2.256
    24   1 H        0.924     0.057     2.240     2.341
    25   1 H        0.924     0.078     1.999     2.211
    26   1 H        0.924     0.092     1.863     2.134
    27   1 H        0.925     0.070     2.090     2.261
    28   1 H        0.925     0.090     1.881     2.145
    29   1 H        0.925     0.068     2.109     2.271
    30   1 H        0.925     0.128     1.553     1.949
    31   1 H        0.924     0.075     2.032     2.229
    32   1 H        0.924     0.080     1.977     2.199
    33   1 H        0.924     0.054     2.275     2.359
    34   1 H        0.925     0.075     2.036     2.231
    35   1 H        0.925     0.083     1.944     2.181
    36   1 H        0.925     0.055     2.262     2.352
    37   1 H        0.924     0.057     2.229     2.335
    38   1 H        0.924     0.064     2.158     2.297
    39   1 H        0.925     0.069     2.100     2.266
    40   1 H        0.925     0.085     1.927     2.171
    41   1 H        0.925     0.077     2.013     2.218

 Mol. C6AA /au·bohr⁶  :      26401.541333
 Mol. C8AA /au·bohr⁸  :     862719.235736
 Mol. α(0) /au        :        257.603479


Wiberg/Mayer (AO) data.
largest (>0.10) Wiberg bond orders for each atom

 ---------------------------------------------------------------------------
     #   Z sym  total        # sym  WBO       # sym  WBO       # sym  WBO
 ---------------------------------------------------------------------------
     1   6 C    3.981 --     2 C    1.018    22 H    0.983    20 H    0.982
                            21 H    0.975
     2   6 C    3.889 --     1 C    1.018    23 H    0.970    24 H    0.969
                             3 O    0.882
     3   8 O    2.406 --     4 P    1.333     2 C    0.882
     4  15 P    5.311 --     5 S    1.515     6 O    1.362     3 O    1.333
                             9 S    0.965
     5  16 S    1.834 --     4 P    1.515     9 S    0.134
     6   8 O    2.411 --     4 P    1.362     7 C    0.854
     7   6 C    3.875 --     8 C    1.024    25 H    0.970    26 H    0.965
                             6 O    0.854
     8   6 C    3.984 --     7 C    1.024    29 H    0.981    27 H    0.976
                            28 H    0.973
     9  16 S    2.280 --    10 C    0.994     4 P    0.965     5 S    0.134
    10   6 C    3.950 --     9 S    0.994    11 S    0.976    30 H    0.957
                            31 H    0.948
    11  16 S    2.304 --    12 P    1.020    10 C    0.976    13 S    0.134
    12  15 P    5.329 --    13 S    1.514    14 O    1.323    17 O    1.319
                            11 S    1.020
    13  16 S    1.850 --    12 P    1.514    11 S    0.134
    14   8 O    2.400 --    12 P    1.323    15 C    0.877
    15   6 C    3.891 --    16 C    1.022    33 H    0.967    32 H    0.966
                            14 O    0.877
    16   6 C    3.987 --    15 C    1.022    34 H    0.981    35 H    0.976
                            36 H    0.975
    17   8 O    2.399 --    12 P    1.319    18 C    0.885
    18   6 C    3.891 --    19 C    1.018    38 H    0.971    37 H    0.967
                            17 O    0.885
    19   6 C    3.981 --    18 C    1.018    39 H    0.984    41 H    0.982
                            40 H    0.976
    20   1 H    0.993 --     1 C    0.982
    21   1 H    0.991 --     1 C    0.975
    22   1 H    0.995 --     1 C    0.983
    23   1 H    0.995 --     2 C    0.970
    24   1 H    0.997 --     2 C    0.969
    25   1 H    0.994 --     7 C    0.970
    26   1 H    0.991 --     7 C    0.965
    27   1 H    0.995 --     8 C    0.976
    28   1 H    0.991 --     8 C    0.973
    29   1 H    0.995 --     8 C    0.981
    30   1 H    0.983 --    10 C    0.957
    31   1 H    0.994 --    10 C    0.948
    32   1 H    0.993 --    15 C    0.966
    33   1 H    0.997 --    15 C    0.967
    34   1 H    0.994 --    16 C    0.981
    35   1 H    0.992 --    16 C    0.976
    36   1 H    0.997 --    16 C    0.975
    37   1 H    0.997 --    18 C    0.967
    38   1 H    0.996 --    18 C    0.971
    39   1 H    0.995 --    19 C    0.984
    40   1 H    0.991 --    19 C    0.976
    41   1 H    0.994 --    19 C    0.982
 ---------------------------------------------------------------------------

Topologies differ in total number of bonds
Writing topology from bond orders to xtbtopo.mol

molecular dipole:
                 x           y           z       tot (Debye)
 q only:        1.200      -1.758       2.538
   full:        1.019      -1.143       2.738       7.973
molecular quadrupole (traceless):
                xx          xy          yy          xz          yz          zz
 q only:       33.856       3.531     -13.592      -8.424       9.682     -20.264
  q+dip:       29.274       5.183     -13.530      -7.107      11.260     -15.744
   full:       30.636       5.513     -13.499      -7.494      11.572     -17.136


           -------------------------------------------------
          | TOTAL ENERGY              -65.027964665061 Eh   |
          | GRADIENT NORM               0.000063688956 Eh/α |
          | HOMO-LUMO GAP               3.175732750470 eV   |
           -------------------------------------------------

------------------------------------------------------------------------
 * finished run on 2025/04/09 at 05:20:46.249     
------------------------------------------------------------------------
 total:
 * wall-time:     0 d,  0 h,  0 min,  0.105 sec
 *  cpu-time:     0 d,  0 h,  0 min,  0.072 sec
 * ratio c/w:     0.680 speedup
 SCF:
 * wall-time:     0 d,  0 h,  0 min,  0.059 sec
 *  cpu-time:     0 d,  0 h,  0 min,  0.059 sec
 * ratio c/w:     0.990 speedup

