      -----------------------------------------------------------      
     |                   =====================                   |     
     |                           x T B                           |     
     |                   =====================                   |     
     |                         S. Grimme                         |     
     |          Mulliken Center for Theoretical Chemistry        |     
     |                    University of Bonn                     |     
      -----------------------------------------------------------      

   * xtb version 6.7.1 (edcfbbe) compiled by 'albert@albert-system' on 2024-07-22

   xtb is free software: you can redistribute it and/or modify it under
   the terms of the GNU Lesser General Public License as published by
   the Free Software Foundation, either version 3 of the License, or
   (at your option) any later version.
   
   xtb is distributed in the hope that it will be useful,
   but WITHOUT ANY WARRANTY; without even the implied warranty of
   MERCHANTABILITY or FITNESS FOR A PARTICULAR PURPOSE.  See the
   GNU Lesser General Public License for more details.
   
   Cite this work as:
   * C. Bannwarth, E. Caldeweyher, S. Ehlert, A. Hansen, P. Pracht,
     J. Seibert, S. Spicher, S. Grimme, WIREs Comput. Mol. Sci., 2020, 11,
     e01493. DOI: 10.1002/wcms.1493
   
   for GFN2-xTB:
   * C. Bannwarth, S. Ehlert and S. Grimme., J. Chem. Theory Comput., 2019,
     15, 1652-1671. DOI: 10.1021/acs.jctc.8b01176
   for GFN1-xTB:
   * S. Grimme, C. Bannwarth, P. Shushkov, J. Chem. Theory Comput., 2017,
     13, 1989-2009. DOI: 10.1021/acs.jctc.7b00118
   for GFN0-xTB:
   * P. Pracht, E. Caldeweyher, S. Ehlert, S. Grimme, ChemRxiv, 2019, preprint.
     DOI: 10.26434/chemrxiv.8326202.v1
   for GFN-FF:
   * S. Spicher and S. Grimme, Angew. Chem. Int. Ed., 2020, 59, 15665-15673.
     DOI: 10.1002/anie.202004239
   
   for ALPB and GBSA implicit solvation:
   * S. Ehlert, M. Stahn, S. Spicher, S. Grimme, J. Chem. Theory Comput.,
     2021, 17, 4250-4261. DOI: 10.1021/acs.jctc.1c00471
   
   for ddCOSMO and CPCM-X implicit solvation:
   * M. Stahn, S. Ehlert, S. Grimme, J. Phys. Chem. A,
     2023, XX, XXXX-XXXX. DOI: 10.1021/acs.jpca.3c04382
   
   for DFT-D4:
   * E. Caldeweyher, C. Bannwarth and S. Grimme, J. Chem. Phys., 2017,
     147, 034112. DOI: 10.1063/1.4993215
   * E. Caldeweyher, S. Ehlert, A. Hansen, H. Neugebauer, S. Spicher,
     C. Bannwarth and S. Grimme, J. Chem. Phys., 2019, 150, 154122.
     DOI: 10.1063/1.5090222
   * E. Caldeweyher, J.-M. Mewes, S. Ehlert and S. Grimme, Phys. Chem. Chem. Phys.
     2020, 22, 8499-8512. DOI: 10.1039/D0CP00502A
   
   for sTDA-xTB:
   * S. Grimme and C. Bannwarth, J. Chem. Phys., 2016, 145, 054103.
     DOI: 10.1063/1.4959605
   
   in the mass-spec context:
   * V. Asgeirsson, C. Bauer and S. Grimme, Chem. Sci., 2017, 8, 4879.
     DOI: 10.1039/c7sc00601b
   * J. Koopman and S. Grimme, ACS Omega 2019, 4, 12, 15120-15133.
     DOI: 10.1021/acsomega.9b02011
   
   for metadynamics refer to:
   * S. Grimme, J. Chem. Theory Comput., 2019, 155, 2847-2862
     DOI: 10.1021/acs.jctc.9b00143
   
   for SPH calculations refer to:
   * S. Spicher and S. Grimme, J. Chem. Theory Comput., 2021, 17, 1701-1714
     DOI: 10.1021/acs.jctc.0c01306
   
   for ONIOM refer to:
   * C. Plett, A. Katbashev, S. Ehlert, S. Grimme, M. Bursch,
     Phys. Chem. Chem. Phys., 2023, 25, 17860-17868. DOI: 10.1039/D3CP02178E
   
   for DIPRO refer to:
   * J. Kohn, N. Gildemeister, S. Grimme, D. Fazzi, A. Hansen,
     J. Chem. Phys., 2023, just accepted.
   
   for PTB refer to:
   * S. Grimme, M. Mueller, A. Hansen, J. Chem. Phys., 2023, 158, 124111.
     DOI: 10.1063/5.0137838
   
   with help from (in alphabetical order)
   P. Atkinson, C. Bannwarth, F. Bohle, G. Brandenburg, E. Caldeweyher
   M. Checinski, S. Dohm, S. Ehlert, S. Ehrlich, I. Gerasimov, C. Hölzer
   A. Katbashev, J. Kohn, J. Koopman, C. Lavigne, S. Lehtola, F. März, M. Müller,
   F. Musil, H. Neugebauer, J. Pisarek, C. Plett, P. Pracht, F. Pultar,
   J. Seibert, P. Shushkov, S. Spicher, M. Stahn, M. Steiner, T. Strunk,
   J. Stückrath, T. Rose, and J. Unsleber
   
 * started run on 2025/04/03 at 20:01:04.129     
   ID    Z sym.   atoms
    1    6 C      1-6
    2    1 H      7-18

           -------------------------------------------------
          |                Calculation Setup                |
           -------------------------------------------------

          program call               : /srv/scratch/z5358697/.xtb/bin/xtb gas.coord --gfn2 --sp --chrg 0 --norestart --parallel 1
          hostname                   : k147
          coordinate file            : gas.coord
          omp threads                :                     1


           -------------------------------------------------
          |                 G F N 2 - x T B                 |
           -------------------------------------------------

        Reference                      10.1021/acs.jctc.8b01176
      * Hamiltonian:
        H0-scaling (s, p, d)           1.850000    2.230000    2.230000
        zeta-weighting                 0.500000
      * Dispersion:
        s8                             2.700000
        a1                             0.520000
        a2                             5.000000
        s9                             5.000000
      * Repulsion:
        kExp                           1.500000    1.000000
        rExp                           1.000000
      * Coulomb:
        alpha                          2.000000
        third order                    shell-resolved
        anisotropic                    true
        a3                             3.000000
        a5                             4.000000
        cn-shift                       1.200000
        cn-exp                         4.000000
        max-rad                        5.000000


          ...................................................
          :                      SETUP                      :
          :.................................................:
          :  # basis functions                  36          :
          :  # atomic orbitals                  36          :
          :  # shells                           24          :
          :  # electrons                        36          :
          :  max. iterations                   250          :
          :  Hamiltonian                  GFN2-xTB          :
          :  restarted?                      false          :
          :  GBSA solvation                  false          :
          :  PC potential                    false          :
          :  electronic temp.          300.0000000     K    :
          :  accuracy                    1.0000000          :
          :  -> integral cutoff          0.2500000E+02      :
          :  -> integral neglect         0.1000000E-07      :
          :  -> SCF convergence          0.1000000E-05 Eh   :
          :  -> wf. convergence          0.1000000E-03 e    :
          :  Broyden damping             0.4000000          :
          :  net charge                          0          :
          :  unpaired electrons                  0          :
          ...................................................

 iter      E             dE          RMSdq      gap      omega  full diag
   1    -19.2143700 -0.192144E+02  0.254E+00   13.68       0.0  T
   2    -19.2673188 -0.529489E-01  0.144E+00   13.76       1.0  T
   3    -19.2677031 -0.384294E-03  0.775E-01   13.72       1.0  T
   4    -19.2678398 -0.136703E-03  0.796E-02   13.67       1.0  T
   5    -19.2678407 -0.872497E-06  0.713E-03   13.67       3.3  T
   6    -19.2678408 -0.401509E-07  0.282E-03   13.67       8.4  T
   7    -19.2678408 -0.818049E-08  0.160E-04   13.67     147.7  T
   8    -19.2678408 -0.167653E-10  0.833E-05   13.67     283.0  T

   *** convergence criteria satisfied after 8 iterations ***

         #    Occupation            Energy/Eh            Energy/eV
      -------------------------------------------------------------
         1        2.0000           -0.6289969             -17.1159
       ...           ...                  ...                  ...
        12        2.0000           -0.4613648             -12.5544
        13        2.0000           -0.4613604             -12.5543
        14        2.0000           -0.4340504             -11.8111
        15        2.0000           -0.4340405             -11.8108
        16        2.0000           -0.4168122             -11.3420
        17        2.0000           -0.4091386             -11.1332
        18        2.0000           -0.4091269             -11.1329 (HOMO)
        19                          0.0931203               2.5339 (LUMO)
        20                          0.1021992               2.7810
        21                          0.1022592               2.7826
        22                          0.1162933               3.1645
        23                          0.1163166               3.1651
       ...                                ...                  ...
        36                          0.3093325               8.4174
      -------------------------------------------------------------
                  HL-Gap            0.5022472 Eh           13.6668 eV
             Fermi-level           -0.1580033 Eh           -4.2995 eV

 SCC (total)                   0 d,  0 h,  0 min,  0.020 sec
 SCC setup                      ...        0 min,  0.000 sec (  0.900%)
 Dispersion                     ...        0 min,  0.000 sec (  0.430%)
 classical contributions        ...        0 min,  0.000 sec (  0.112%)
 integral evaluation            ...        0 min,  0.001 sec (  7.086%)
 iterations                     ...        0 min,  0.015 sec ( 74.211%)
 molecular gradient             ...        0 min,  0.003 sec ( 16.537%)
 printout                       ...        0 min,  0.000 sec (  0.649%)

         :::::::::::::::::::::::::::::::::::::::::::::::::::::
         ::                     SUMMARY                     ::
         :::::::::::::::::::::::::::::::::::::::::::::::::::::
         :: total energy             -18.986714993714 Eh    ::
         :: gradient norm              0.001046749111 Eh/a0 ::
         :: HOMO-LUMO gap             13.666841061402 eV    ::
         ::.................................................::
         :: SCC energy               -19.267812556051 Eh    ::
         :: -> isotropic ES            0.002648620328 Eh    ::
         :: -> anisotropic ES          0.005154731697 Eh    ::
         :: -> anisotropic XC          0.010959733361 Eh    ::
         :: -> dispersion             -0.011271901415 Eh    ::
         :: repulsion energy           0.281097562337 Eh    ::
         :: add. restraining           0.000000000000 Eh    ::
         :: total charge               0.000000000000 e     ::
         :::::::::::::::::::::::::::::::::::::::::::::::::::::

           -------------------------------------------------
          |                Property Printout                |
           -------------------------------------------------

    * Orbital Energies and Occupations

         #    Occupation            Energy/Eh            Energy/eV
      -------------------------------------------------------------
         1        2.0000           -0.6289969             -17.1159
       ...           ...                  ...                  ...
         6        2.0000           -0.5453532             -14.8398
         7        2.0000           -0.5188079             -14.1175
         8        2.0000           -0.4949949             -13.4695
         9        2.0000           -0.4949885             -13.4693
        10        2.0000           -0.4910345             -13.3617
        11        2.0000           -0.4656143             -12.6700
        12        2.0000           -0.4613648             -12.5544
        13        2.0000           -0.4613604             -12.5543
        14        2.0000           -0.4340504             -11.8111
        15        2.0000           -0.4340405             -11.8108
        16        2.0000           -0.4168122             -11.3420
        17        2.0000           -0.4091386             -11.1332
        18        2.0000           -0.4091269             -11.1329 (HOMO)
        19                          0.0931203               2.5339 (LUMO)
        20                          0.1021992               2.7810
        21                          0.1022592               2.7826
        22                          0.1162933               3.1645
        23                          0.1163166               3.1651
        24                          0.1200039               3.2655
        25                          0.1419209               3.8619
        26                          0.1878238               5.1109
        27                          0.1879493               5.1144
        28                          0.1929177               5.2496
        29                          0.2011133               5.4726
       ...                                ...                  ...
        36                          0.3093325               8.4174
      -------------------------------------------------------------
                  HL-Gap            0.5022472 Eh           13.6668 eV
             Fermi-level           -0.1580033 Eh           -4.2995 eV

     #   Z          covCN         q      C6AA      α(0)
     1   6 C        3.805    -0.054    21.547     6.608
     2   6 C        3.805    -0.054    21.547     6.608
     3   6 C        3.805    -0.054    21.547     6.608
     4   6 C        3.805    -0.054    21.548     6.608
     5   6 C        3.805    -0.054    21.548     6.608
     6   6 C        3.805    -0.054    21.547     6.608
     7   1 H        0.924     0.024     2.669     2.555
     8   1 H        0.924     0.030     2.585     2.514
     9   1 H        0.924     0.030     2.585     2.514
    10   1 H        0.924     0.024     2.669     2.555
    11   1 H        0.924     0.024     2.669     2.555
    12   1 H        0.924     0.030     2.585     2.514
    13   1 H        0.924     0.030     2.585     2.514
    14   1 H        0.924     0.024     2.669     2.555
    15   1 H        0.924     0.024     2.669     2.555
    16   1 H        0.924     0.030     2.585     2.514
    17   1 H        0.924     0.030     2.585     2.514
    18   1 H        0.924     0.024     2.669     2.555

 Mol. C6AA /au·bohr⁶  :       2230.411958
 Mol. C8AA /au·bohr⁸  :      47134.798183
 Mol. α(0) /au        :         70.063763


Wiberg/Mayer (AO) data.
largest (>0.10) Wiberg bond orders for each atom

 ---------------------------------------------------------------------------
     #   Z sym  total        # sym  WBO       # sym  WBO       # sym  WBO
 ---------------------------------------------------------------------------
     1   6 C    3.998 --     6 C    1.009     2 C    1.009     7 H    0.978
                             8 H    0.978
     2   6 C    3.998 --     1 C    1.009     3 C    1.009    10 H    0.978
                             9 H    0.978
     3   6 C    3.998 --     4 C    1.009     2 C    1.009    11 H    0.978
                            12 H    0.978
     4   6 C    3.998 --     3 C    1.009     5 C    1.009    14 H    0.978
                            13 H    0.978
     5   6 C    3.998 --     6 C    1.009     4 C    1.009    15 H    0.978
                            16 H    0.978
     6   6 C    3.998 --     1 C    1.009     5 C    1.009    18 H    0.978
                            17 H    0.978
     7   1 H    0.999 --     1 C    0.978
     8   1 H    0.999 --     1 C    0.978
     9   1 H    0.999 --     2 C    0.978
    10   1 H    0.999 --     2 C    0.978
    11   1 H    0.999 --     3 C    0.978
    12   1 H    0.999 --     3 C    0.978
    13   1 H    0.999 --     4 C    0.978
    14   1 H    0.999 --     4 C    0.978
    15   1 H    0.999 --     5 C    0.978
    16   1 H    0.999 --     5 C    0.978
    17   1 H    0.999 --     6 C    0.978
    18   1 H    0.999 --     6 C    0.978
 ---------------------------------------------------------------------------

Topologies differ in total number of bonds
Writing topology from bond orders to xtbtopo.mol

molecular dipole:
                 x           y           z       tot (Debye)
 q only:        0.000      -0.000       0.000
   full:        0.000      -0.000       0.000       0.000
molecular quadrupole (traceless):
                xx          xy          yy          xz          yz          zz
 q only:       -0.002      -0.000      -0.003       0.000      -0.000       0.005
  q+dip:       -0.793       0.000      -0.793      -0.000       0.000       1.586
   full:       -0.413       0.000      -0.413      -0.000       0.000       0.826


           -------------------------------------------------
          | TOTAL ENERGY              -18.986714993714 Eh   |
          | GRADIENT NORM               0.001046749111 Eh/α |
          | HOMO-LUMO GAP              13.666841061402 eV   |
           -------------------------------------------------

------------------------------------------------------------------------
 * finished run on 2025/04/03 at 20:01:04.176     
------------------------------------------------------------------------
 total:
 * wall-time:     0 d,  0 h,  0 min,  0.047 sec
 *  cpu-time:     0 d,  0 h,  0 min,  0.017 sec
 * ratio c/w:     0.362 speedup
 SCF:
 * wall-time:     0 d,  0 h,  0 min,  0.021 sec
 *  cpu-time:     0 d,  0 h,  0 min,  0.009 sec
 * ratio c/w:     0.458 speedup

