
                                 *****************
                                 * O   R   C   A *
                                 *****************

                                            #,                                       
                                            ###                                      
                                            ####                                     
                                            #####                                    
                                            ######                                   
                                           ########,                                 
                                     ,,################,,,,,                         
                               ,,#################################,,                 
                          ,,##########################################,,             
                       ,#########################################, ''#####,          
                    ,#############################################,,   '####,        
                  ,##################################################,,,,####,       
                ,###########''''           ''''###############################       
              ,#####''   ,,,,##########,,,,          '''####'''          '####       
            ,##' ,,,,###########################,,,                        '##       
           ' ,,###''''                  '''############,,,                           
         ,,##''                                '''############,,,,        ,,,,,,###''
      ,#''                                            '''#######################'''  
     '                                                          ''''####''''         
             ,#######,   #######,   ,#######,      ##                                
            ,#'     '#,  ##    ##  ,#'     '#,    #''#        ,####,   ,####,        
            ##       ##  ##   ,#'  ##            #'  '#       #'       #'  '#        
            ##       ##  #######   ##           ,######,      #####,   #    #        
            '#,     ,#'  ##    ##  '#,     ,#' ,#      #,     #,   #   #,  ,#        
             '#######'   ##     ##  '#######'  #'      '#     '####' # '####'        



                #########################################################
                #                        -***-                          #
                #          Department of theory and spectroscopy        #
                #                                                       #
                #                      Frank Neese                      #
                #                                                       #
                #     Directorship, Architecture, Infrastructure        #
                #                    SHARK, DRIVERS                     #
                #        Core code/Algorithms in most modules           #
                #                                                       #
                #        Max Planck Institute fuer Kohlenforschung      #
                #                Kaiser Wilhelm Platz 1                 #
                #                 D-45470 Muelheim/Ruhr                 #
                #                      Germany                          #
                #                                                       #
                #                  All rights reserved                  #
                #                        -***-                          #
                #########################################################


                         Program Version 6.0.0  -   RELEASE  -


 With contributions from (in alphabetic order):
   Daniel Aravena         : Magnetic Suceptibility
   Michael Atanasov       : Ab Initio Ligand Field Theory (pilot matlab implementation)
   Alexander A. Auer      : GIAO ZORA, VPT2 properties, NMR spectrum
   Ute Becker             : All parallelization in ORCA, NUMFREQ, NUMCALC
   Giovanni Bistoni       : ED, misc. LED, open-shell LED, HFLD
   Martin Brehm           : Molecular dynamics
   Dmytro Bykov           : pre 5.0 version of the SCF Hessian
   Marcos Casanova-Páez   : Triplet and SCS-CIS(D). UHF-(DLPNO)-IP/EA/STEOM-CCSD. UHF-CVS-IP/STEOM-CCSD
   Vijay G. Chilkuri      : MRCI spin determinant printing, contributions to CSF-ICE
   Pauline Colinet        : FMM embedding
   Dipayan Datta          : RHF DLPNO-CCSD density
   Achintya Kumar Dutta   : EOM-CC, STEOM-CC
   Nicolas Foglia         : Exact transition moments, OPA infrastructure, MCD improvements
   Dmitry Ganyushin       : Spin-Orbit,Spin-Spin,Magnetic field MRCI
   Miquel Garcia          : C-PCM and meta-GGA Hessian, CCSD/C-PCM, Gaussian charge scheme
   Tiago L. C. Gouveia    : GS-ROHF, GS-ROCIS
   Yang Guo               : DLPNO-NEVPT2, F12-NEVPT2, CIM, IAO-localization
   Andreas Hansen         : Spin unrestricted coupled pair/coupled cluster methods
   Ingolf Harden          : AUTO-CI MPn and infrastructure 
   Benjamin Helmich-Paris : MC-RPA, TRAH-(SCF,CASSCF), AVAS, COSX integrals, SCF dyn. polar.
   Lee Huntington         : MR-EOM, pCC
   Robert Izsak           : Overlap fitted RIJCOSX, COSX-SCS-MP3, EOM
   Riya Kayal             : Wick's Theorem for AUTO-CI, AUTO-CI UHF-CCSDT
   Emily Kempfer          : AUTO-CI, RHF CISDT and CCSDT
   Christian Kollmar      : KDIIS, OOCD, Brueckner-CCSD(T), CCSD density, CASPT2, CASPT2-K, improved NEVPT2
   Axel Koslowski         : Symmetry handling
   Simone Kossmann        : Meta GGA functionals, TD-DFT gradient, OOMP2, (MP2 Hessian; deprecated post 5.0)
   Lucas Lang             : DCDCAS
   Marvin Lechner         : AUTO-CI (C++ implementation), FIC-MRCC
   Spencer Leger          : CASSCF response
   Dagmar Lenk            : GEPOL surface, SMD, ORCA-2-JSON
   Dimitrios Liakos       : Extrapolation schemes; Compound Job, initial MDCI parallelization
   Dimitrios Manganas     : Further ROCIS development; embedding schemes. LFT, Crystal Embedding
   Dimitrios Pantazis     : SARC Basis sets
   Anastasios Papadopoulos: AUTO-CI, single reference methods and gradients
   Taras Petrenko         : pre 6.0 DFT Hessian and TD-DFT gradient, (ASA, deprecated), ECA, 1-Electron XAS/XES, NRVS
   Peter Pinski           : DLPNO-MP2, DLPNO-MP2 Gradient
   Christoph Reimann      : Effective Core Potentials
   Marius Retegan         : Local ZFS, SOC
   Christoph Riplinger    : Optimizer, TS searches, QM/MM, DLPNO-CCSD(T), (RO)-DLPNO pert. Triples
   Michael Roemelt        : Original ROCIS implementation
   Masaaki Saitow         : Open-shell DLPNO-CCSD energy and density
   Barbara Sandhoefer     : DKH picture change effects
   Kantharuban Sivalingam : CASSCF convergence/infrastructure, NEVPT2 and variants, FIC-MRCI
   Bernardo de Souza      : ESD, SOC TD-DFT
   Georgi Stoychev        : AutoAux, RI-MP2 NMR, DLPNO-MP2 response, X2C
   Van Anh Tran           : RI-MP2 g-tensors
   Willem Van den Heuvel  : Paramagnetic NMR
   Zikuan Wang            : NOTCH, Electric field optimization 
   Frank Wennmohs         : Technical directorship and infrastructure
   Hang Xu                : AUTO-CI-Response properties 


 We gratefully acknowledge several colleagues who have allowed us to
 interface, adapt or use parts of their codes:
   Stefan Grimme, W. Hujo, H. Kruse, P. Pracht,  : VdW corrections, initial TS optimization,
                  C. Bannwarth, S. Ehlert,         DFT functionals, gCP, sTDA/sTD-DF
                  L. Wittmann, M. Mueller
   Ed Valeev, F. Pavosevic, A. Kumar             : LibInt (2-el integral package), F12 methods
   Garnet Chan, S. Sharma, J. Yang, R. Olivares  : DMRG
   Ulf Ekstrom                                   : XCFun DFT Library
   Mihaly Kallay                                 : mrcc  (arbitrary order and MRCC methods)
   Frank Weinhold                                : gennbo (NPA and NBO analysis)
   Simon Mueller                                 : openCOSMO-RS
   Christopher J. Cramer and Donald G. Truhlar   : smd solvation model
   Lars Goerigk                                  : TD-DFT with DH, B97 family of functionals
   V. Asgeirsson, H. Jonsson                     : NEB implementation
   FAccTs GmbH                                   : IRC, NEB, NEB-TS, DLPNO-Multilevel, CI-OPT
                                                   MM, QMMM, 2- and 3-layer-ONIOM, Crystal-QMMM,
                                                   LR-CPCM, SF, NACMEs, symmetry and pop. for TD-DFT,
                                                   nearIR, NL-DFT gradient (VV10), updates on ESD,
                                                   ML-optimized integration grids, MBIS, APM,
                                                   GOAT, DOCKER, SOLVATOR, interface openCOSMO-RS
   S Lehtola, MJT Oliveira, MAL Marques          : LibXC Library
   Liviu Ungur et al                             : ANISO software


 Your calculation uses the libint2 library for the computation of 2-el integrals
 For citations please refer to: http://libint.valeyev.net

 Your ORCA version has been built with support for libXC version: 6.2.2
 For citations please refer to: https://libxc.gitlab.io

 This ORCA versions uses:
   CBLAS   interface :  Fast vector & matrix operations
   LAPACKE interface :  Fast linear algebra routines
   SCALAPACK package :  Parallel linear algebra routines
   Shared memory     :  Shared parallel matrices
   BLAS/LAPACK       :  OpenBLAS 0.3.27  USE64BITINT DYNAMIC_ARCH NO_AFFINITY SapphireRapids SINGLE_THREADED
        Core in use  :  SapphireRapids
   Copyright (c) 2011-2014, The OpenBLAS Project


Your calculation utilizes the geometrical counterpoise correction gCP
Please cite in your paper:
H.Kruse, S. Grimme J.Chem.Phys., 136, (2012), 154101 
   

Your calculation utilizes the atom-pairwise dispersion correction
based on EEQ partial charges (D4)


================================================================================

----- Orbital basis set information -----
Your calculation utilizes the basis: def2-SV(P)
   F. Weigend and R. Ahlrichs, Phys. Chem. Chem. Phys. 7, 3297 (2005).

----- AuxJ basis set information -----
Your calculation utilizes the auxiliary basis: def2/J
   F. Weigend, Phys. Chem. Chem. Phys. 8, 1057 (2006).

================================================================================
                                        WARNINGS
                       Please study these warnings very carefully!
================================================================================


================================================================================
                                       INPUT FILE
================================================================================
NAME = sp.inp
|  1> ! pbe def2-sv(p) def2/J RI DEFGRID1 loosescf d4 GCP(DFT/SV(P)) printgap
|  2> %output
|  3>     printlevel normal
|  4> end
|  5> * xyz 0 1
|  6> C 2.728916582 1.4680903107 -2.0541243199
|  7> C 2.5188234387 -0.0221955383 -2.2113353028
|  8> O 1.6894817651 -0.5774649573 -1.164117829
|  9> P 1.9537744051 -0.4173009874 0.3836346046
| 10> S 1.2091437611 1.1508145182 1.3088375592
| 11> O 3.5281449712 -0.5945897534 0.4710779083
| 12> C 4.2459344138 -0.4678723472 1.7166493462
| 13> C 4.8482563814 0.9174322612 1.8478149113
| 14> S 1.2102269435 -2.2445047804 1.1375035588
| 15> C -0.4791631998 -1.7259236606 1.5313118411
| 16> S -1.6065115708 -1.783754746 0.1033233442
| 17> P -2.0212387233 0.2477850648 -0.3418262252
| 18> S -0.9369601404 1.2886339204 -1.6042692032
| 19> O -2.1635677523 0.8025125788 1.1328801048
| 20> C -2.1441394786 2.2135970997 1.430310149
| 21> C -3.3610079489 2.9231165615 0.8780247009
| 22> O -3.5419960995 0.1505304882 -0.8082372309
| 23> C -3.9112789374 -0.0307186275 -2.1824333794
| 24> C -3.5420786289 -1.4122058032 -2.6835673822
| 25> H 3.2463409306 1.6769069998 -1.1182402825
| 26> H 3.3240682247 1.8388157738 -2.8824738651
| 27> H 1.769287171 1.9818208891 -2.0435423811
| 28> H 3.4698282508 -0.5587777394 -2.2028877366
| 29> H 1.9610625177 -0.2508662703 -3.1207776684
| 30> H 3.5682818129 -0.680260892 2.5475822143
| 31> H 5.018284236 -1.2373607666 1.6697177774
| 32> H 5.4918387385 1.1293369656 0.9984026041
| 33> H 4.0600774986 1.6664933148 1.8906519357
| 34> H 5.4316995949 0.9676327082 2.7613366166
| 35> H -0.4596465332 -0.7139471166 1.9387628183
| 36> H -0.8583030527 -2.4405946407 2.2565063533
| 37> H -2.1095713289 2.2468289831 2.5201518984
| 38> H -1.2204354525 2.6408926537 1.0260764897
| 39> H -4.2681061531 2.4294372177 1.2167260726
| 40> H -3.3579313646 3.9540355506 1.2175827055
| 41> H -3.3358118869 2.908654523 -0.2109266196
| 42> H -4.9901350177 0.1289489431 -2.1911218285
| 43> H -3.4137666624 0.7407052048 -2.7804853402
| 44> H -3.8988624978 -1.5377675917 -3.7007042469
| 45> H -2.4578377164 -1.529634833 -2.6702775086
| 46> H -3.9800799321 -2.1759201049 -2.0461684757
| 47> *
| 48> 
| 49>                          ****END OF INPUT****
================================================================================

                       ****************************
                       * Single Point Calculation *
                       ****************************

---------------------------------
CARTESIAN COORDINATES (ANGSTROEM)
---------------------------------
  C      2.728917    1.468090   -2.054124
  C      2.518823   -0.022196   -2.211335
  O      1.689482   -0.577465   -1.164118
  P      1.953774   -0.417301    0.383635
  S      1.209144    1.150815    1.308838
  O      3.528145   -0.594590    0.471078
  C      4.245934   -0.467872    1.716649
  C      4.848256    0.917432    1.847815
  S      1.210227   -2.244505    1.137504
  C     -0.479163   -1.725924    1.531312
  S     -1.606512   -1.783755    0.103323
  P     -2.021239    0.247785   -0.341826
  S     -0.936960    1.288634   -1.604269
  O     -2.163568    0.802513    1.132880
  C     -2.144139    2.213597    1.430310
  C     -3.361008    2.923117    0.878025
  O     -3.541996    0.150530   -0.808237
  C     -3.911279   -0.030719   -2.182433
  C     -3.542079   -1.412206   -2.683567
  H      3.246341    1.676907   -1.118240
  H      3.324068    1.838816   -2.882474
  H      1.769287    1.981821   -2.043542
  H      3.469828   -0.558778   -2.202888
  H      1.961063   -0.250866   -3.120778
  H      3.568282   -0.680261    2.547582
  H      5.018284   -1.237361    1.669718
  H      5.491839    1.129337    0.998403
  H      4.060077    1.666493    1.890652
  H      5.431700    0.967633    2.761337
  H     -0.459647   -0.713947    1.938763
  H     -0.858303   -2.440595    2.256506
  H     -2.109571    2.246829    2.520152
  H     -1.220435    2.640893    1.026076
  H     -4.268106    2.429437    1.216726
  H     -3.357931    3.954036    1.217583
  H     -3.335812    2.908655   -0.210927
  H     -4.990135    0.128949   -2.191122
  H     -3.413767    0.740705   -2.780485
  H     -3.898862   -1.537768   -3.700704
  H     -2.457838   -1.529635   -2.670278
  H     -3.980080   -2.175920   -2.046168

----------------------------
CARTESIAN COORDINATES (A.U.)
----------------------------
  NO LB      ZA    FRAG     MASS         X           Y           Z
   0 C     6.0000    0    12.011    5.156905    2.774289   -3.881732
   1 C     6.0000    0    12.011    4.759886   -0.041943   -4.178818
   2 O     8.0000    0    15.999    3.192658   -1.091251   -2.199864
   3 P    15.0000    0    30.974    3.692099   -0.788585    0.724964
   4 S    16.0000    0    32.060    2.284951    2.174724    2.473345
   5 O     8.0000    0    15.999    6.667228   -1.123612    0.890208
   6 C     6.0000    0    12.011    8.023653   -0.884151    3.243997
   7 C     6.0000    0    12.011    9.161877    1.733696    3.491864
   8 S    16.0000    0    32.060    2.286997   -4.241499    2.149570
   9 C     6.0000    0    12.011   -0.905487   -3.261523    2.893760
  10 S    16.0000    0    32.060   -3.035867   -3.370808    0.195253
  11 P    15.0000    0    30.974   -3.819588    0.468246   -0.645958
  12 S    16.0000    0    32.060   -1.770598    2.435165   -3.031629
  13 O     8.0000    0    15.999   -4.088551    1.516529    2.140833
  14 C     6.0000    0    12.011   -4.051836    4.183092    2.702894
  15 C     6.0000    0    12.011   -6.351385    5.523890    1.659226
  16 O     8.0000    0    15.999   -6.693403    0.284461   -1.527347
  17 C     6.0000    0    12.011   -7.391246   -0.058050   -4.124201
  18 C     6.0000    0    12.011   -6.693559   -2.668682   -5.071207
  19 H     1.0000    0     1.008    6.134695    3.168895   -2.113168
  20 H     1.0000    0     1.008    6.281579    3.474858   -5.447086
  21 H     1.0000    0     1.008    3.343468    3.745099   -3.861735
  22 H     1.0000    0     1.008    6.557025   -1.055937   -4.162855
  23 H     1.0000    0     1.008    3.705871   -0.474069   -5.897415
  24 H     1.0000    0     1.008    6.743075   -1.285507    4.814233
  25 H     1.0000    0     1.008    9.483183   -2.338273    3.155309
  26 H     1.0000    0     1.008   10.378071    2.134138    1.886707
  27 H     1.0000    0     1.008    7.672435    3.149216    3.572814
  28 H     1.0000    0     1.008   10.264425    1.828561    5.218170
  29 H     1.0000    0     1.008   -0.868606   -1.349165    3.663731
  30 H     1.0000    0     1.008   -1.621958   -4.612055    4.264179
  31 H     1.0000    0     1.008   -3.986512    4.245891    4.762397
  32 H     1.0000    0     1.008   -2.306289    4.990564    1.939004
  33 H     1.0000    0     1.008   -8.065552    4.590971    2.299279
  34 H     1.0000    0     1.008   -6.345571    7.472044    2.300898
  35 H     1.0000    0     1.008   -6.303771    5.496560   -0.398594
  36 H     1.0000    0     1.008   -9.429989    0.243678   -4.140620
  37 H     1.0000    0     1.008   -6.451084    1.399730   -5.254356
  38 H     1.0000    0     1.008   -7.367782   -2.905960   -6.993318
  39 H     1.0000    0     1.008   -4.644640   -2.890591   -5.046093
  40 H     1.0000    0     1.008   -7.521261   -4.111893   -3.866698

--------------------------------
INTERNAL COORDINATES (ANGSTROEM)
--------------------------------
 C      0   0   0     0.000000000000     0.00000000     0.00000000
 C      1   0   0     1.513210604554     0.00000000     0.00000000
 O      2   1   0     1.446649984163   112.48266567     0.00000000
 P      3   2   1     1.578303105404   125.09473550   306.05177989
 S      4   3   2     1.967094695760   118.60334807    88.10645555
 O      4   3   2     1.586732591621   102.05514137   319.24366976
 C      6   4   3     1.443165684131   122.08991962   177.31224969
 C      7   6   4     1.516266802438   110.63777343   262.05513481
 S      4   3   2     2.111836861339   101.73023155   212.52469957
 C      9   4   3     1.810538703618    99.11124503   266.80261051
 S     10   9   4     1.820277432512   113.46279172    83.81748257
 P     11  10   9     2.120686387240   104.79451914   249.57363793
 S     12  11  10     1.962852174322   122.34121245    90.63064836
 O     12  11  10     1.582004717764    99.08103885   319.59468563
 C     14  12  11     1.442221069786   122.28352958   165.18278650
 C     15  14  12     1.513012213059   111.88268358    67.31617305
 O     12  11  10     1.593643836048   100.92891958   215.36728223
 C     17  12  11     1.434446273257   122.25937186   267.98467314
 C     18  17  12     1.515239576167   111.67318667    69.34517846
 H      1   2   3     1.089592262101   110.11535750    61.98835723
 H      1   2   3     1.085267624060   109.46699169   182.11247484
 H      1   2   3     1.088540165115   110.08460910   302.21335570
 H      2   1   3     1.091971598783   111.23685881   238.99944396
 H      2   1   3     1.091087973088   111.34456826   115.39331654
 H      7   6   4     1.093055978785   109.31106517    24.56009588
 H      7   6   4     1.091255812169   104.65435690   141.81513972
 H      8   7   6     1.086555622939   110.23339474   303.51881761
 H      8   7   6     1.088188138132   110.15644380    63.84255108
 H      8   7   6     1.085102748274   109.18894295   183.42713025
 H     10   9   4     1.091097486342   109.28019748   321.33853195
 H     10   9   4     1.086466160715   106.40294746   200.78380117
 H     15  14  12     1.090896124195   103.66610414   188.28131982
 H     15  14  12     1.095086968972   108.48192147   304.35520224
 H     16  15  14     1.086860186845   110.15043016    53.36848847
 H     16  15  14     1.085404563260   109.20389953   173.84236027
 H     16  15  14     1.089338776743   109.88088114   293.32926262
 H     18  17  12     1.090641858838   104.11039879   190.17577237
 H     18  17  12     1.095572608563   108.48620242   307.28066780
 H     19  18  17     1.085185649265   109.59521715   175.97629774
 H     19  18  17     1.090662438208   109.65508432   295.60504578
 H     19  18  17     1.086913999465   110.39456203    55.13175311

---------------------------
INTERNAL COORDINATES (A.U.)
---------------------------
 C      0   0   0     0.000000000000     0.00000000     0.00000000
 C      1   0   0     2.859553625553     0.00000000     0.00000000
 O      2   1   0     2.733772281709   112.48266567     0.00000000
 P      3   2   1     2.982560625530   125.09473550   306.05177989
 S      4   3   2     3.717270254476   118.60334807    88.10645555
 O      4   3   2     2.998490045932   102.05514137   319.24366976
 C      6   4   3     2.727187908881   122.08991962   177.31224969
 C      7   6   4     2.865329002564   110.63777343   262.05513481
 S      4   3   2     3.990793307451   101.73023155   212.52469957
 C      9   4   3     3.421422304704    99.11124503   266.80261051
 S     10   9   4     3.439825835206   113.46279172    83.81748257
 P     11  10   9     4.007516487818   104.79451914   249.57363793
 S     12  11  10     3.709253050841   122.34121245    90.63064836
 O     12  11  10     2.989555659145    99.08103885   319.59468563
 C     14  12  11     2.725402846467   122.28352958   165.18278650
 C     15  14  12     2.859178719960   111.88268358    67.31617305
 O     12  11  10     3.011550405143   100.92891958   215.36728223
 C     17  12  11     2.710710610280   122.25937186   267.98467314
 C     18  17  12     2.863387826234   111.67318667    69.34517846
 H      1   2   3     2.059030973011   110.11535750    61.98835723
 H      1   2   3     2.050858591484   109.46699169   182.11247484
 H      1   2   3     2.057042797840   110.08460910   302.21335570
 H      2   1   3     2.063527267721   111.23685881   238.99944396
 H      2   1   3     2.061857457151   111.34456826   115.39331654
 H      7   6   4     2.065576448949   109.31106517    24.56009588
 H      7   6   4     2.062174627050   104.65435690   141.81513972
 H      8   7   6     2.053292556627   110.23339474   303.51881761
 H      8   7   6     2.056377563252   110.15644380    63.84255108
 H      8   7   6     2.050547021404   109.18894295   183.42713025
 H     10   9   4     2.061875434597   109.28019748   321.33853195
 H     10   9   4     2.053123497525   106.40294746   200.78380117
 H     15  14  12     2.061494915284   103.66610414   188.28131982
 H     15  14  12     2.069414464183   108.48192147   304.35520224
 H     16  15  14     2.053868099000   110.15043016    53.36848847
 H     16  15  14     2.051117369070   109.20389953   173.84236027
 H     16  15  14     2.058551955106   109.88088114   293.32926262
 H     18  17  12     2.061014423394   104.11039879   190.17577237
 H     18  17  12     2.070332190009   108.48620242   307.28066780
 H     19  18  17     2.050703681572   109.59521715   175.97629774
 H     19  18  17     2.061053312769   109.65508432   295.60504578
 H     19  18  17     2.053969790114   110.39456203    55.13175311

---------------------
BASIS SET INFORMATION
---------------------
There are 5 groups of distinct atoms

 Group   1 Type C   : 7s4p1d contracted to 3s2p1d pattern {511/31/1}
 Group   2 Type O   : 7s4p1d contracted to 3s2p1d pattern {511/31/1}
 Group   3 Type P   : 10s7p1d contracted to 4s3p1d pattern {5311/511/1}
 Group   4 Type S   : 10s7p1d contracted to 4s3p1d pattern {5311/511/1}
 Group   5 Type H   : 4s contracted to 2s pattern {31}

Atom   0C    basis set group =>   1
Atom   1C    basis set group =>   1
Atom   2O    basis set group =>   2
Atom   3P    basis set group =>   3
Atom   4S    basis set group =>   4
Atom   5O    basis set group =>   2
Atom   6C    basis set group =>   1
Atom   7C    basis set group =>   1
Atom   8S    basis set group =>   4
Atom   9C    basis set group =>   1
Atom  10S    basis set group =>   4
Atom  11P    basis set group =>   3
Atom  12S    basis set group =>   4
Atom  13O    basis set group =>   2
Atom  14C    basis set group =>   1
Atom  15C    basis set group =>   1
Atom  16O    basis set group =>   2
Atom  17C    basis set group =>   1
Atom  18C    basis set group =>   1
Atom  19H    basis set group =>   5
Atom  20H    basis set group =>   5
Atom  21H    basis set group =>   5
Atom  22H    basis set group =>   5
Atom  23H    basis set group =>   5
Atom  24H    basis set group =>   5
Atom  25H    basis set group =>   5
Atom  26H    basis set group =>   5
Atom  27H    basis set group =>   5
Atom  28H    basis set group =>   5
Atom  29H    basis set group =>   5
Atom  30H    basis set group =>   5
Atom  31H    basis set group =>   5
Atom  32H    basis set group =>   5
Atom  33H    basis set group =>   5
Atom  34H    basis set group =>   5
Atom  35H    basis set group =>   5
Atom  36H    basis set group =>   5
Atom  37H    basis set group =>   5
Atom  38H    basis set group =>   5
Atom  39H    basis set group =>   5
Atom  40H    basis set group =>   5
---------------------------------
AUXILIARY/J BASIS SET INFORMATION
---------------------------------
There are 5 groups of distinct atoms

 Group   1 Type C   : 12s5p4d2f1g contracted to 6s4p3d1f1g pattern {711111/2111/211/2/1}
 Group   2 Type O   : 12s5p4d2f1g contracted to 6s4p3d1f1g pattern {711111/2111/211/2/1}
 Group   3 Type P   : 14s5p5d2f1g contracted to 8s4p3d1f1g pattern {71111111/2111/311/2/1}
 Group   4 Type S   : 14s5p5d2f1g contracted to 8s4p3d1f1g pattern {71111111/2111/311/2/1}
 Group   5 Type H   : 5s2p1d contracted to 3s1p1d pattern {311/2/1}

Atom   0C    basis set group =>   1
Atom   1C    basis set group =>   1
Atom   2O    basis set group =>   2
Atom   3P    basis set group =>   3
Atom   4S    basis set group =>   4
Atom   5O    basis set group =>   2
Atom   6C    basis set group =>   1
Atom   7C    basis set group =>   1
Atom   8S    basis set group =>   4
Atom   9C    basis set group =>   1
Atom  10S    basis set group =>   4
Atom  11P    basis set group =>   3
Atom  12S    basis set group =>   4
Atom  13O    basis set group =>   2
Atom  14C    basis set group =>   1
Atom  15C    basis set group =>   1
Atom  16O    basis set group =>   2
Atom  17C    basis set group =>   1
Atom  18C    basis set group =>   1
Atom  19H    basis set group =>   5
Atom  20H    basis set group =>   5
Atom  21H    basis set group =>   5
Atom  22H    basis set group =>   5
Atom  23H    basis set group =>   5
Atom  24H    basis set group =>   5
Atom  25H    basis set group =>   5
Atom  26H    basis set group =>   5
Atom  27H    basis set group =>   5
Atom  28H    basis set group =>   5
Atom  29H    basis set group =>   5
Atom  30H    basis set group =>   5
Atom  31H    basis set group =>   5
Atom  32H    basis set group =>   5
Atom  33H    basis set group =>   5
Atom  34H    basis set group =>   5
Atom  35H    basis set group =>   5
Atom  36H    basis set group =>   5
Atom  37H    basis set group =>   5
Atom  38H    basis set group =>   5
Atom  39H    basis set group =>   5
Atom  40H    basis set group =>   5
------------------------------------------------------------------------------
                             ORCA STARTUP CALCULATIONS
                           -- RI-GTO INTEGRALS CHOSEN --
------------------------------------------------------------------------------
------------------------------------------------------------------------------
                   ___                                                        
                  /   \      - P O W E R E D   B Y -                         
                 /     \                                                     
                 |  |  |   _    _      __       _____    __    __             
                 |  |  |  | |  | |    /  \     |  _  \  |  |  /  |          
                  \  \/   | |  | |   /    \    | | | |  |  | /  /          
                 / \  \   | |__| |  /  /\  \   | |_| |  |  |/  /          
                |  |  |   |  __  | /  /__\  \  |    /   |      \           
                |  |  |   | |  | | |   __   |  |    \   |  |\   \          
                \     /   | |  | | |  |  |  |  | |\  \  |  | \   \       
                 \___/    |_|  |_| |__|  |__|  |_| \__\ |__|  \__/        
                                                                              
                      - O R C A' S   B I G   F R I E N D -                    
                                      &                                       
                       - I N T E G R A L  F E E D E R -                       
                                                                              
 v1 FN, 2020, v2 2021, v3 2022-2024                                           
------------------------------------------------------------------------------


----------------------
SHARK INTEGRAL PACKAGE
----------------------

Number of atoms                             ...     41
Number of basis functions                   ...    334
Number of shells                            ...    170
Maximum angular momentum                    ...      2
Integral batch strategy                     ... SHARK/LIBINT Hybrid
RI-J (if used) integral strategy            ... SPLIT-RIJ (Revised 2003 algorithm where possible)
Printlevel                                  ...      1
Contraction scheme used                     ... SEGMENTED contraction
Prescreening option                         ... SCHWARTZ
   Thresh                                   ... 1.000e-09
   Tcut                                     ... 1.000e-10
   Tpresel                                  ... 1.000e-10 
Coulomb Range Separation                    ... NOT USED
Exchange Range Separation                   ... NOT USED
Multipole approximations                    ... NOT USED
Finite Nucleus Model                        ... NOT USED
CABS basis                                  ... NOT available
Auxiliary Coulomb fitting basis             ... AVAILABLE
   # of basis functions in Aux-J            ...   1185
   # of shells in Aux-J                     ...    407
   Maximum angular momentum in Aux-J        ...      4
Auxiliary J/K fitting basis                 ... NOT available
Auxiliary Correlation fitting basis         ... NOT available
Auxiliary 'external' fitting basis          ... NOT available

Checking pre-screening integrals            ... done (  0.0 sec) Dimension = 170
Check shell pair data                       ... done (  0.0 sec)
Shell pair information
Shell pair cut-off parameter TPreSel        ...   1.0e-10
Total number of shell pairs                 ...     14535
Shell pairs after pre-screening             ...     10395
Total number of primitive shell pairs       ...     62501
Primitive shell pairs kept                  ...     25853
          la=0 lb=0:   4020 shell pairs
          la=1 lb=0:   3532 shell pairs
          la=1 lb=1:    821 shell pairs
          la=2 lb=0:   1304 shell pairs
          la=2 lb=1:    604 shell pairs
          la=2 lb=2:    114 shell pairs

Calculating one electron integrals          ... done (  0.1 sec)
Calculating RI/J V-Matrix + Cholesky decomp.... done (  0.1 sec)
Calculating Nuclear repulsion               ... done (  0.0 sec) ENN=   2811.373352110807 Eh

Diagonalization of the overlap matrix:
Smallest eigenvalue                        ... 3.284e-03
Time for diagonalization                   ...    0.010 sec
Threshold for overlap eigenvalues          ... 1.000e-07
Number of eigenvalues below threshold      ... 0
Time for construction of square roots      ...    0.024 sec
Total time needed                          ...    0.043 sec

-------------------
DFT GRID GENERATION
-------------------

General Integration Accuracy     IntAcc      ... 4.159
Radial Grid Type                 RadialGrid  ... OptM3 with GC (2021)
Angular Grid (max. ang.)         AngularGrid ... 3 (Lebedev-194)
Angular grid pruning method      GridPruning ... 4 (adaptive)
Weight generation scheme         WeightScheme... mBecke (2022)
Basis function cutoff            BFCut       ... 1.0000e-10
Integration weight cutoff        WCut        ... 1.0000e-14
Partially contracted basis set               ... off
Rotationally invariant grid construction     ... off
Angular grids for H and He will be reduced by one unit

Total number of grid points                  ...    97395
Total number of batches                      ...     1540
Average number of points per batch           ...       63
Average number of grid points per atom       ...     2375
Initializing property integral containers    ... done (  0.0 sec)

SHARK setup successfully completed in   1.6 seconds

Maximum memory used throughout the entire STARTUP-calculation: 51.9 MB
-------------------------------------------------------------------------------
                                 ORCA GUESS
                   Start orbitals & Density for SCF / CASSCF
-------------------------------------------------------------------------------

------------
SCF SETTINGS
------------
Hamiltonian:
 Density Functional     Method          .... DFT(GTOs)
 Exchange Functional    Exchange        .... PBE
   PBE kappa parameter   XKappa         ....  0.804000
   PBE mue parameter    XMuePBE         ....  0.219520
 Correlation Functional Correlation     .... PBE
   PBE beta parameter  CBetaPBE         ....  0.066725
 LDA part of GGA corr.  LDAOpt          .... PW91-LDA
 Gradients option       PostSCFGGA      .... off
   NL short-range parameter             ....  6.400000
 RI-approximation to the Coulomb term is turned on
   Number of AuxJ basis functions       .... 1185


General Settings:
 Integral files         IntName         .... sp
 Hartree-Fock type      HFTyp           .... RHF
 Total Charge           Charge          ....    0
 Multiplicity           Mult            ....    1
 Number of Electrons    NEL             ....  202
 Basis Dimension        Dim             ....  334
 Nuclear Repulsion      ENuc            ....   2811.3733521108 Eh

Convergence Acceleration:
 AO-DIIS                CNVDIIS         .... on
   Start iteration      DIISMaxIt       ....    12
   Startup error        DIISStart       ....  0.200000
   # of expansion vecs  DIISMaxEq       ....     5
   Bias factor          DIISBfac        ....   1.050
   Max. coefficient     DIISMaxC        ....  10.000
 MO-DIIS                CNVKDIIS        .... off
 Trust-Rad. Augm. Hess. CNVTRAH         .... auto
   Auto Start mean grad. ratio tolernc. ....  1.125000
   Auto Start start iteration           ....    50
   Auto Start num. interpolation iter.  ....    10
   Max. Number of Micro iterations      ....    24
   Max. Number of Macro iterations      .... Maxiter - #DIIS iter
   Number of Davidson start vectors     ....     2
   Converg. threshold    (grad. norm)   ....   1.000e-04
   Grad. Scal. Fac. for Micro threshold ....   0.100
   Minimum threshold for Micro iter.    ....   1.000e-02
   NR start threshold (gradient norm)   ....   1.000e-04
   Initial trust radius                 ....   0.400
   Minimum AH scaling param. (alpha)    ....   1.000
   Maximum AH scaling param. (alpha)    .... 1000.000
   Quad. conv. algorithm                .... NR
   White noise on init. David. guess    .... on
   Maximum white noise                  ....   0.010
   Pseudo random numbers                .... off
   Inactive MOs                         .... canonical
   Orbital update algorithm             .... Taylor
   Preconditioner                       .... Diag
   Full preconditioner red. dimension   ....   250
 SOSCF                  CNVSOSCF        .... on
   Start iteration      SOSCFMaxIt      ....   150
   Startup grad/error   SOSCFStart      ....  0.003300
   Hessian update       SOSCFHessUp     .... L-BFGS
 Level Shifting         CNVShift        .... on
   Level shift para.    LevelShift      ....    0.2500
   Turn off err/grad.   ShiftErr        ....    0.0010
 Zerner damping         CNVZerner       .... off
 Static damping         CNVDamp         .... on
   Fraction old density DampFac         ....    0.7000
   Max. Damping (<1)    DampMax         ....    0.9800
   Min. Damping (>=0)   DampMin         ....    0.0000
   Turn off err/grad.   DampErr         ....    0.1000

SCF Procedure:
 Maximum # iterations   MaxIter         ....   125
 SCF integral mode      SCFMode         .... Direct
   Integral package                     .... SHARK and LIBINT hybrid scheme
 Reset frequency        DirectResetFreq ....    20
 Integral Threshold     Thresh          ....  1.000e-09 Eh
 Primitive CutOff       TCut            ....  1.000e-10 Eh

Convergence Tolerance:
 Convergence Check Mode ConvCheckMode   .... Total+1el-Energy
 Convergence forced     ConvForced      .... 0
 Energy Change          TolE            ....  1.000e-05 Eh
 1-El. energy change                    ....  1.000e-02 Eh
 Orbital Gradient       TolG            ....  1.000e-04
 Orbital Rotation angle TolX            ....  1.000e-04
 DIIS Error             TolErr          ....  5.000e-04

------------------------------
INITIAL GUESS: MODEL POTENTIAL
------------------------------
Loading Hartree-Fock densities                     ... done
Calculating cut-offs                               ... done
Initializing the effective Hamiltonian             ... done
Setting up the integral package (SHARK)            ... done
Starting the Coulomb interaction                   ... done (   0.6 sec)
Making the grid                                    ... done (   0.6 sec)
Mapping shells                                     ... done
Starting the XC term evaluation                    ... done (   0.4 sec)
  promolecular density results
     # of electrons  =    201.992950916
     EX              =   -229.999304692
     EC              =     -7.289241918
     EX+EC           =   -237.288546610
Transforming the Hamiltonian                       ... done (   0.0 sec)
Diagonalizing the Hamiltonian                      ... done (   0.0 sec)
Back transforming the eigenvectors                 ... done (   0.0 sec)
Now organizing SCF variables                       ... done
                      ------------------
                      INITIAL GUESS DONE (   1.7 sec)
                      ------------------
             **** ENERGY FILE WAS UPDATED (sp.en.tmp) ****
Finished Guess after   1.9 sec
Maximum memory used throughout the entire GUESS-calculation: 39.5 MB

-------------------------------------------------------------------------------------------
                                      ORCA LEAN-SCF
                              memory conserving SCF solver
-------------------------------------------------------------------------------------------

----------------------------------------D-I-I-S--------------------------------------------
Iteration    Energy (Eh)           Delta-E    RMSDP     MaxDP     DIISErr   Damp  Time(sec)
-------------------------------------------------------------------------------------------
               ***  Starting incremental Fock matrix formation  ***
    1    -2929.1898535866780549     0.00e+00  2.65e-03  1.38e-01  1.82e-01  0.700   2.3
    2    -2929.4117637189178822    -2.22e-01  1.72e-03  7.08e-02  7.67e-02  0.700   2.1
                               ***Turning on AO-DIIS***
    3    -2929.4829254824230702    -7.12e-02  6.78e-04  1.70e-02  2.28e-02  0.700   2.0
    4    -2929.5275653801950284    -4.46e-02  1.03e-03  3.16e-02  1.02e-02  0.000   1.9
    5    -2929.6312929805740168    -1.04e-01  3.05e-04  1.15e-02  8.44e-03  0.000   2.0
                              *** Initializing SOSCF ***
---------------------------------------S-O-S-C-F--------------------------------------
Iteration    Energy (Eh)           Delta-E    RMSDP     MaxDP     MaxGrad    Time(sec)
--------------------------------------------------------------------------------------
    6    -2929.6323365272669434    -1.04e-03  1.09e-04  2.96e-03  2.76e-03     1.9
               *** Restarting incremental Fock matrix formation ***
    7    -2929.6324702581928250    -1.34e-04  7.33e-05  1.63e-03  2.18e-04     2.2
    8    -2929.6324742949968822    -4.04e-06  3.05e-05  8.97e-04  2.06e-04     1.8
                 **** Energy Check signals convergence ****

               *****************************************************
               *                     SUCCESS                       *
               *           SCF CONVERGED AFTER   8 CYCLES          *
               *****************************************************

             **** ENERGY FILE WAS UPDATED (sp.en.tmp) ****

----------------
TOTAL SCF ENERGY
----------------

Total Energy       :      -2929.63247429499688 Eh          -79719.35248 eV

Components:
Nuclear Repulsion  :       2811.37335211080654 Eh           76501.35816 eV
Electronic Energy  :      -5741.00582640580342 Eh         -156220.71064 eV
One Electron Energy:      -9642.33113787281582 Eh         -262381.16946 eV
Two Electron Energy:       3901.32531146701240 Eh          106160.45882 eV

Virial components:
Potential Energy   :      -5848.94139437626291 Eh         -159157.78677 eV
Kinetic Energy     :       2919.30892008126557 Eh           79438.43429 eV
Virial Ratio       :          2.00353630071238

DFT components:
N(Alpha)           :      101.000008117524 electrons
N(Beta)            :      101.000008117524 electrons
N(Total)           :      202.000016235049 electrons
E(X)               :     -231.807574152459 Eh       
E(C)               :       -7.296652928565 Eh       
E(XC)              :     -239.104227081024 Eh       

---------------
SCF CONVERGENCE
---------------

  Last Energy change         ...    4.0368e-06  Tolerance :   1.0000e-05
  Last MAX-Density change    ...    8.9679e-04  Tolerance :   1.0000e-03
  Last RMS-Density change    ...    3.0497e-05  Tolerance :   1.0000e-04
  Last DIIS Error            ...    2.7602e-03  Tolerance :   5.0000e-04
  Last Orbital Gradient      ...    2.0560e-04  Tolerance :   1.0000e-04
  Last Orbital Rotation      ...    3.8731e-04  Tolerance :   1.0000e-04


----------------
ORBITAL ENERGIES
----------------

  NO   OCC          E(Eh)            E(eV) 
   0   2.0000     -88.037918     -2395.6335 
   1   2.0000     -88.033513     -2395.5137 
   2   2.0000     -87.984295     -2394.1744 
   3   2.0000     -87.977070     -2393.9778 
   4   2.0000     -76.425316     -2079.6386 
   5   2.0000     -76.419446     -2079.4788 
   6   2.0000     -18.796600      -511.4815 
   7   2.0000     -18.786190      -511.1982 
   8   2.0000     -18.783563      -511.1267 
   9   2.0000     -18.782943      -511.1098 
  10   2.0000      -9.957043      -270.9449 
  11   2.0000      -9.952261      -270.8148 
  12   2.0000      -9.948742      -270.7190 
  13   2.0000      -9.945564      -270.6326 
  14   2.0000      -9.943622      -270.5797 
  15   2.0000      -9.884201      -268.9628 
  16   2.0000      -9.880946      -268.8742 
  17   2.0000      -9.877365      -268.7768 
  18   2.0000      -9.875664      -268.7305 
  19   2.0000      -7.683671      -209.0833 
  20   2.0000      -7.679062      -208.9579 
  21   2.0000      -7.629089      -207.5981 
  22   2.0000      -7.621991      -207.4049 
  23   2.0000      -6.422646      -174.7691 
  24   2.0000      -6.416940      -174.6138 
  25   2.0000      -5.711534      -155.4187 
  26   2.0000      -5.708082      -155.3248 
  27   2.0000      -5.707308      -155.3037 
  28   2.0000      -5.703420      -155.1979 
  29   2.0000      -5.700647      -155.1225 
  30   2.0000      -5.695732      -154.9888 
  31   2.0000      -5.657777      -153.9559 
  32   2.0000      -5.650810      -153.7663 
  33   2.0000      -5.649882      -153.7411 
  34   2.0000      -5.649288      -153.7250 
  35   2.0000      -5.642811      -153.5487 
  36   2.0000      -5.642025      -153.5273 
  37   2.0000      -4.645702      -126.4160 
  38   2.0000      -4.644140      -126.3735 
  39   2.0000      -4.642964      -126.3415 
  40   2.0000      -4.639519      -126.2477 
  41   2.0000      -4.638798      -126.2281 
  42   2.0000      -4.637333      -126.1882 
  43   2.0000      -0.987175       -26.8624 
  44   2.0000      -0.980320       -26.6759 
  45   2.0000      -0.941436       -25.6178 
  46   2.0000      -0.940134       -25.5824 
  47   2.0000      -0.757358       -20.6088 
  48   2.0000      -0.717120       -19.5138 
  49   2.0000      -0.703814       -19.1518 
  50   2.0000      -0.686941       -18.6926 
  51   2.0000      -0.681753       -18.5514 
  52   2.0000      -0.668060       -18.1789 
  53   2.0000      -0.650782       -17.7087 
  54   2.0000      -0.631040       -17.1715 
  55   2.0000      -0.595872       -16.2145 
  56   2.0000      -0.588111       -16.0033 
  57   2.0000      -0.573837       -15.6149 
  58   2.0000      -0.567350       -15.4384 
  59   2.0000      -0.557817       -15.1790 
  60   2.0000      -0.501037       -13.6339 
  61   2.0000      -0.486475       -13.2377 
  62   2.0000      -0.469837       -12.7849 
  63   2.0000      -0.467140       -12.7115 
  64   2.0000      -0.450296       -12.2532 
  65   2.0000      -0.445427       -12.1207 
  66   2.0000      -0.434067       -11.8116 
  67   2.0000      -0.432117       -11.7585 
  68   2.0000      -0.421622       -11.4729 
  69   2.0000      -0.413427       -11.2499 
  70   2.0000      -0.410806       -11.1786 
  71   2.0000      -0.397458       -10.8154 
  72   2.0000      -0.389360       -10.5950 
  73   2.0000      -0.386546       -10.5185 
  74   2.0000      -0.381956       -10.3935 
  75   2.0000      -0.373590       -10.1659 
  76   2.0000      -0.362581        -9.8663 
  77   2.0000      -0.352120        -9.5817 
  78   2.0000      -0.350355        -9.5336 
  79   2.0000      -0.344163        -9.3652 
  80   2.0000      -0.343117        -9.3367 
  81   2.0000      -0.338785        -9.2188 
  82   2.0000      -0.333738        -9.0815 
  83   2.0000      -0.333053        -9.0628 
  84   2.0000      -0.325893        -8.8680 
  85   2.0000      -0.316757        -8.6194 
  86   2.0000      -0.305011        -8.2998 
  87   2.0000      -0.299836        -8.1590 
  88   2.0000      -0.290022        -7.8919 
  89   2.0000      -0.284802        -7.7498 
  90   2.0000      -0.277364        -7.5475 
  91   2.0000      -0.275273        -7.4906 
  92   2.0000      -0.267654        -7.2832 
  93   2.0000      -0.257110        -6.9963 
  94   2.0000      -0.254375        -6.9219 
  95   2.0000      -0.235272        -6.4021 
  96   2.0000      -0.218998        -5.9592 
  97   2.0000      -0.207981        -5.6595 
  98   2.0000      -0.200935        -5.4677 
  99   2.0000      -0.190362        -5.1800 
 100   2.0000      -0.179761        -4.8916 
 101   0.0000      -0.038346        -1.0434 
 102   0.0000      -0.027246        -0.7414 
 103   0.0000      -0.017518        -0.4767 
 104   0.0000       0.005601         0.1524 
 105   0.0000       0.020815         0.5664 
 106   0.0000       0.028349         0.7714 
 107   0.0000       0.038503         1.0477 
 108   0.0000       0.046133         1.2553 
 109   0.0000       0.048021         1.3067 
 110   0.0000       0.053782         1.4635 
 111   0.0000       0.057361         1.5609 
*Only the first 10 virtual orbitals were printed.

                    ********************************
                    * MULLIKEN POPULATION ANALYSIS *
                    ********************************

-----------------------
MULLIKEN ATOMIC CHARGES
-----------------------
   0 C :   -0.334204
   1 C :    0.016428
   2 O :   -0.357355
   3 P :    0.629217
   4 S :   -0.330303
   5 O :   -0.385010
   6 C :   -0.008014
   7 C :   -0.294349
   8 S :   -0.085493
   9 C :   -0.363488
  10 S :   -0.092031
  11 P :    0.620327
  12 S :   -0.327570
  13 O :   -0.371050
  14 C :   -0.009108
  15 C :   -0.301660
  16 O :   -0.372374
  17 C :   -0.003640
  18 C :   -0.324693
  19 H :    0.124688
  20 H :    0.106200
  21 H :    0.144237
  22 H :    0.104526
  23 H :    0.108211
  24 H :    0.102233
  25 H :    0.107818
  26 H :    0.114355
  27 H :    0.130725
  28 H :    0.109770
  29 H :    0.209470
  30 H :    0.182340
  31 H :    0.101869
  32 H :    0.126369
  33 H :    0.114820
  34 H :    0.109711
  35 H :    0.122013
  36 H :    0.102664
  37 H :    0.107366
  38 H :    0.113395
  39 H :    0.129779
  40 H :    0.121812
Sum of atomic charges:    0.0000000

--------------------------------
MULLIKEN REDUCED ORBITAL CHARGES
--------------------------------
  0 C s       :     3.113337  s :     3.113337
      pz      :     1.069396  p :     3.192939
      px      :     1.107992
      py      :     1.015551
      dz2     :     0.005693  d :     0.027927
      dxz     :     0.006531
      dyz     :     0.003679
      dx2y2   :     0.005233
      dxy     :     0.006791

  1 C s       :     3.068799  s :     3.068799
      pz      :     0.888803  p :     2.854557
      px      :     0.953420
      py      :     1.012335
      dz2     :     0.012126  d :     0.060216
      dxz     :     0.014083
      dyz     :     0.011219
      dx2y2   :     0.009681
      dxy     :     0.013107

  2 O s       :     3.749111  s :     3.749111
      pz      :     1.234525  p :     4.595149
      px      :     1.640353
      py      :     1.720271
      dz2     :     0.003612  d :     0.013095
      dxz     :     0.003422
      dyz     :     0.002612
      dx2y2   :     0.001530
      dxy     :     0.001919

  3 P s       :     5.196110  s :     5.196110
      pz      :     2.849305  p :     8.579621
      px      :     2.810148
      py      :     2.920168
      dz2     :     0.151562  d :     0.595052
      dxz     :     0.098047
      dyz     :     0.114113
      dx2y2   :     0.122488
      dxy     :     0.108841

  4 S s       :     5.917882  s :     5.917882
      pz      :     3.554428  p :    10.369210
      px      :     3.582907
      py      :     3.231875
      dz2     :     0.005086  d :     0.043211
      dxz     :     0.004869
      dyz     :     0.013009
      dx2y2   :     0.009540
      dxy     :     0.010707

  5 O s       :     3.763813  s :     3.763813
      pz      :     1.492350  p :     4.608213
      px      :     1.344067
      py      :     1.771796
      dz2     :     0.003928  d :     0.012983
      dxz     :     0.002653
      dyz     :     0.001452
      dx2y2   :     0.002591
      dxy     :     0.002359

  6 C s       :     3.075760  s :     3.075760
      pz      :     0.812663  p :     2.872435
      px      :     0.971489
      py      :     1.088283
      dz2     :     0.014657  d :     0.059819
      dxz     :     0.016870
      dyz     :     0.009201
      dx2y2   :     0.006404
      dxy     :     0.012687

  7 C s       :     3.095889  s :     3.095889
      pz      :     1.059260  p :     3.170719
      px      :     1.073264
      py      :     1.038196
      dz2     :     0.005504  d :     0.027741
      dxz     :     0.007939
      dyz     :     0.002117
      dx2y2   :     0.004100
      dxy     :     0.008081

  8 S s       :     5.873406  s :     5.873406
      pz      :     3.713021  p :    10.137829
      px      :     3.092218
      py      :     3.332590
      dz2     :     0.008765  d :     0.074258
      dxz     :     0.010197
      dyz     :     0.010836
      dx2y2   :     0.023334
      dxy     :     0.021126

  9 C s       :     3.223764  s :     3.223764
      pz      :     1.027714  p :     3.099968
      px      :     0.904979
      py      :     1.167275
      dz2     :     0.006408  d :     0.039755
      dxz     :     0.010281
      dyz     :     0.007444
      dx2y2   :     0.010450
      dxy     :     0.005172

 10 S s       :     5.868991  s :     5.868991
      pz      :     3.372540  p :    10.151451
      px      :     3.519442
      py      :     3.259470
      dz2     :     0.014061  d :     0.071589
      dxz     :     0.017259
      dyz     :     0.012234
      dx2y2   :     0.018914
      dxy     :     0.009120

 11 P s       :     5.207897  s :     5.207897
      pz      :     2.821234  p :     8.588244
      px      :     2.838822
      py      :     2.928188
      dz2     :     0.137248  d :     0.583532
      dxz     :     0.123295
      dyz     :     0.100016
      dx2y2   :     0.124099
      dxy     :     0.098874

 12 S s       :     5.914365  s :     5.914365
      pz      :     3.404136  p :    10.370237
      px      :     3.520118
      py      :     3.445984
      dz2     :     0.006900  d :     0.042968
      dxz     :     0.011456
      dyz     :     0.010254
      dx2y2   :     0.005907
      dxy     :     0.008451

 13 O s       :     3.754461  s :     3.754461
      pz      :     1.460484  p :     4.603397
      px      :     1.769894
      py      :     1.373019
      dz2     :     0.004500  d :     0.013191
      dxz     :     0.001878
      dyz     :     0.002706
      dx2y2   :     0.002481
      dxy     :     0.001625

 14 C s       :     3.086657  s :     3.086657
      pz      :     1.064988  p :     2.862321
      px      :     1.078812
      py      :     0.718521
      dz2     :     0.014826  d :     0.060130
      dxz     :     0.004824
      dyz     :     0.009065
      dx2y2   :     0.017333
      dxy     :     0.014082

 15 C s       :     3.095172  s :     3.095172
      pz      :     1.091527  p :     3.178494
      px      :     1.038727
      py      :     1.048240
      dz2     :     0.009241  d :     0.027994
      dxz     :     0.003744
      dyz     :     0.002935
      dx2y2   :     0.007163
      dxy     :     0.004911

 16 O s       :     3.759299  s :     3.759299
      pz      :     1.399205  p :     4.599971
      px      :     1.432968
      py      :     1.767797
      dz2     :     0.004129  d :     0.013105
      dxz     :     0.002468
      dyz     :     0.001727
      dx2y2   :     0.002911
      dxy     :     0.001870

 17 C s       :     3.071907  s :     3.071907
      pz      :     0.751445  p :     2.870801
      px      :     1.057068
      py      :     1.062288
      dz2     :     0.018988  d :     0.060932
      dxz     :     0.009768
      dyz     :     0.015796
      dx2y2   :     0.010127
      dxy     :     0.006253

 18 C s       :     3.111017  s :     3.111017
      pz      :     1.063827  p :     3.185642
      px      :     1.093369
      py      :     1.028446
      dz2     :     0.006572  d :     0.028035
      dxz     :     0.003020
      dyz     :     0.005539
      dx2y2   :     0.008331
      dxy     :     0.004573

 19 H s       :     0.875312  s :     0.875312

 20 H s       :     0.893800  s :     0.893800

 21 H s       :     0.855763  s :     0.855763

 22 H s       :     0.895474  s :     0.895474

 23 H s       :     0.891789  s :     0.891789

 24 H s       :     0.897767  s :     0.897767

 25 H s       :     0.892182  s :     0.892182

 26 H s       :     0.885645  s :     0.885645

 27 H s       :     0.869275  s :     0.869275

 28 H s       :     0.890230  s :     0.890230

 29 H s       :     0.790530  s :     0.790530

 30 H s       :     0.817660  s :     0.817660

 31 H s       :     0.898131  s :     0.898131

 32 H s       :     0.873631  s :     0.873631

 33 H s       :     0.885180  s :     0.885180

 34 H s       :     0.890289  s :     0.890289

 35 H s       :     0.877987  s :     0.877987

 36 H s       :     0.897336  s :     0.897336

 37 H s       :     0.892634  s :     0.892634

 38 H s       :     0.886605  s :     0.886605

 39 H s       :     0.870221  s :     0.870221

 40 H s       :     0.878188  s :     0.878188


------------------------
MULLIKEN OVERLAP CHARGES
------------------------
B(  0-C ,  1-C ) :   0.9159 B(  0-C ,  2-O ) :  -0.0903 B(  0-C , 19-H ) :   0.7348 
B(  0-C , 20-H ) :   0.6847 B(  0-C , 21-H ) :   0.7467 B(  0-C , 22-H ) :  -0.0731 
B(  1-C ,  2-O ) :   0.5533 B(  1-C ,  3-P ) :  -0.0907 B(  1-C , 22-H ) :   0.7469 
B(  1-C , 23-H ) :   0.7264 B(  2-O ,  3-P ) :   0.6798 B(  2-O ,  4-S ) :  -0.0619 
B(  2-O ,  5-O ) :  -0.0657 B(  2-O ,  8-S ) :  -0.0704 B(  2-O , 22-H ) :  -0.0588 
B(  2-O , 23-H ) :  -0.0565 B(  3-P ,  4-S ) :   0.9352 B(  3-P ,  5-O ) :   0.6196 
B(  3-P ,  6-C ) :  -0.0813 B(  3-P ,  8-S ) :   0.5166 B(  3-P ,  9-C ) :  -0.0632 
B(  4-S ,  5-O ) :  -0.0751 B(  4-S ,  8-S ) :  -0.1061 B(  4-S , 27-H ) :   0.0511 
B(  4-S , 29-H ) :   0.0963 B(  5-O ,  6-C ) :   0.5498 B(  5-O ,  7-C ) :  -0.1030 
B(  5-O ,  8-S ) :  -0.0567 B(  5-O , 24-H ) :  -0.0625 B(  5-O , 25-H ) :  -0.0570 
B(  6-C ,  7-C ) :   0.8973 B(  6-C , 24-H ) :   0.6882 B(  6-C , 25-H ) :   0.7370 
B(  7-C , 24-H ) :  -0.0567 B(  7-C , 25-H ) :  -0.0580 B(  7-C , 26-H ) :   0.7320 
B(  7-C , 27-H ) :   0.7196 B(  7-C , 28-H ) :   0.6927 B(  8-S ,  9-C ) :   0.4937 
B(  8-S , 10-S ) :  -0.1603 B(  8-S , 29-H ) :  -0.0539 B(  8-S , 30-H ) :  -0.0670 
B(  9-C , 10-S ) :   0.4530 B(  9-C , 29-H ) :   0.6223 B(  9-C , 30-H ) :   0.7234 
B( 10-S , 11-P ) :   0.5183 B( 10-S , 12-S ) :  -0.0678 B( 10-S , 13-O ) :  -0.0825 
B( 10-S , 16-O ) :  -0.0746 B( 10-S , 30-H ) :  -0.0647 B( 11-P , 12-S ) :   0.9341 
B( 11-P , 13-O ) :   0.6451 B( 11-P , 14-C ) :  -0.0844 B( 11-P , 16-O ) :   0.6123 
B( 11-P , 17-C ) :  -0.0724 B( 12-S , 13-O ) :  -0.0659 B( 12-S , 16-O ) :  -0.0880 
B( 12-S , 37-H ) :   0.0767 B( 13-O , 14-C ) :   0.5446 B( 13-O , 15-C ) :  -0.0882 
B( 13-O , 16-O ) :  -0.0526 B( 13-O , 31-H ) :  -0.0594 B( 13-O , 32-H ) :  -0.0639 
B( 14-C , 15-C ) :   0.9050 B( 14-C , 31-H ) :   0.7320 B( 14-C , 32-H ) :   0.7281 
B( 15-C , 31-H ) :  -0.0529 B( 15-C , 32-H ) :  -0.0747 B( 15-C , 33-H ) :   0.7244 
B( 15-C , 34-H ) :   0.7031 B( 15-C , 35-H ) :   0.7224 B( 16-O , 17-C ) :   0.5673 
B( 16-O , 18-C ) :  -0.0939 B( 16-O , 36-H ) :  -0.0579 B( 16-O , 37-H ) :  -0.0704 
B( 17-C , 18-C ) :   0.9322 B( 17-C , 36-H ) :   0.7190 B( 17-C , 37-H ) :   0.7080 
B( 18-C , 37-H ) :  -0.0720 B( 18-C , 38-H ) :   0.6894 B( 18-C , 39-H ) :   0.7222 
B( 18-C , 40-H ) :   0.7282 B( 22-H , 23-H ) :  -0.0720 B( 24-H , 25-H ) :  -0.0658 
B( 31-H , 32-H ) :  -0.0650 B( 33-H , 35-H ) :  -0.0525 B( 36-H , 37-H ) :  -0.0635 
B( 39-H , 40-H ) :  -0.0574 


                     *******************************
                     * LOEWDIN POPULATION ANALYSIS *
                     *******************************

----------------------
LOEWDIN ATOMIC CHARGES
----------------------
   0 C :   -0.370976
   1 C :   -0.105051
   2 O :   -0.233982
   3 P :    0.572534
   4 S :   -0.303548
   5 O :   -0.247293
   6 C :   -0.114973
   7 C :   -0.362943
   8 S :    0.075206
   9 C :   -0.480575
  10 S :    0.078446
  11 P :    0.570400
  12 S :   -0.310053
  13 O :   -0.236759
  14 C :   -0.118852
  15 C :   -0.365182
  16 O :   -0.244810
  17 C :   -0.124147
  18 C :   -0.370974
  19 H :    0.120096
  20 H :    0.127991
  21 H :    0.128200
  22 H :    0.111328
  23 H :    0.122738
  24 H :    0.108993
  25 H :    0.118916
  26 H :    0.124657
  27 H :    0.125702
  28 H :    0.129876
  29 H :    0.128486
  30 H :    0.138704
  31 H :    0.117710
  32 H :    0.110414
  33 H :    0.125557
  34 H :    0.129577
  35 H :    0.122294
  36 H :    0.117627
  37 H :    0.106553
  38 H :    0.131279
  39 H :    0.121416
  40 H :    0.125419

-------------------------------
LOEWDIN REDUCED ORBITAL CHARGES
-------------------------------
  0 C s       :     2.952560  s :     2.952560
      pz      :     1.129104  p :     3.349320
      px      :     1.143787
      py      :     1.076429
      dz2     :     0.014792  d :     0.069096
      dxz     :     0.015552
      dyz     :     0.008640
      dx2y2   :     0.014718
      dxy     :     0.015393

  1 C s       :     2.925769  s :     2.925769
      pz      :     0.946304  p :     3.045726
      px      :     1.030104
      py      :     1.069317
      dz2     :     0.027666  d :     0.133556
      dxz     :     0.031170
      dyz     :     0.022281
      dx2y2   :     0.024602
      dxy     :     0.027838

  2 O s       :     3.494086  s :     3.494086
      pz      :     1.334329  p :     4.716228
      px      :     1.660354
      py      :     1.721545
      dz2     :     0.008191  d :     0.023668
      dxz     :     0.006340
      dyz     :     0.004790
      dx2y2   :     0.001851
      dxy     :     0.002496

  3 P s       :     5.052468  s :     5.052468
      pz      :     2.823495  p :     8.549123
      px      :     2.791925
      py      :     2.933703
      dz2     :     0.220895  d :     0.825875
      dxz     :     0.124461
      dyz     :     0.153338
      dx2y2   :     0.180201
      dxy     :     0.146981

  4 S s       :     5.765090  s :     5.765090
      pz      :     3.577465  p :    10.480750
      px      :     3.586899
      py      :     3.316386
      dz2     :     0.005973  d :     0.057708
      dxz     :     0.006311
      dyz     :     0.018234
      dx2y2   :     0.012804
      dxy     :     0.014386

  5 O s       :     3.499520  s :     3.499520
      pz      :     1.530863  p :     4.724117
      px      :     1.427348
      py      :     1.765907
      dz2     :     0.007359  d :     0.023656
      dxz     :     0.004979
      dyz     :     0.002222
      dx2y2   :     0.005497
      dxy     :     0.003599

  6 C s       :     2.928781  s :     2.928781
      pz      :     0.894911  p :     3.052575
      px      :     1.041861
      py      :     1.115803
      dz2     :     0.034001  d :     0.133617
      dxz     :     0.037575
      dyz     :     0.017964
      dx2y2   :     0.013601
      dxy     :     0.030475

  7 C s       :     2.953515  s :     2.953515
      pz      :     1.123210  p :     3.340726
      px      :     1.127946
      py      :     1.089570
      dz2     :     0.014220  d :     0.068701
      dxz     :     0.019395
      dyz     :     0.004583
      dx2y2   :     0.010152
      dxy     :     0.020352

  8 S s       :     5.640415  s :     5.640415
      pz      :     3.694841  p :    10.190376
      px      :     3.129808
      py      :     3.365727
      dz2     :     0.011640  d :     0.094003
      dxz     :     0.012312
      dyz     :     0.012788
      dx2y2   :     0.030724
      dxy     :     0.026537

  9 C s       :     3.061846  s :     3.061846
      pz      :     1.096662  p :     3.331209
      px      :     1.033476
      py      :     1.201072
      dz2     :     0.013432  d :     0.087520
      dxz     :     0.023180
      dyz     :     0.016720
      dx2y2   :     0.023448
      dxy     :     0.010741

 10 S s       :     5.639677  s :     5.639677
      pz      :     3.382344  p :    10.191974
      px      :     3.531629
      py      :     3.278001
      dz2     :     0.016993  d :     0.089902
      dxz     :     0.023880
      dyz     :     0.014902
      dx2y2   :     0.023560
      dxy     :     0.010567

 11 P s       :     5.060993  s :     5.060993
      pz      :     2.813617  p :     8.558282
      px      :     2.837195
      py      :     2.907470
      dz2     :     0.197087  d :     0.810325
      dxz     :     0.166012
      dyz     :     0.138212
      dx2y2   :     0.178556
      dxy     :     0.130458

 12 S s       :     5.763763  s :     5.763763
      pz      :     3.452885  p :    10.488521
      px      :     3.537961
      py      :     3.497674
      dz2     :     0.007726  d :     0.057770
      dxz     :     0.016461
      dyz     :     0.015144
      dx2y2   :     0.006496
      dxy     :     0.011944

 13 O s       :     3.496799  s :     3.496799
      pz      :     1.531029  p :     4.715831
      px      :     1.761593
      py      :     1.423208
      dz2     :     0.008938  d :     0.024129
      dxz     :     0.002456
      dyz     :     0.005175
      dx2y2   :     0.004750
      dxy     :     0.002810

 14 C s       :     2.928553  s :     2.928553
      pz      :     1.112234  p :     3.056455
      px      :     1.126753
      py      :     0.817468
      dz2     :     0.034189  d :     0.133845
      dxz     :     0.010664
      dyz     :     0.018289
      dx2y2   :     0.037587
      dxy     :     0.033115

 15 C s       :     2.952249  s :     2.952249
      pz      :     1.135323  p :     3.343512
      px      :     1.097080
      py      :     1.111109
      dz2     :     0.022411  d :     0.069421
      dxz     :     0.009184
      dyz     :     0.006909
      dx2y2   :     0.017424
      dxy     :     0.013493

 16 O s       :     3.502612  s :     3.502612
      pz      :     1.450538  p :     4.718167
      px      :     1.506958
      py      :     1.760671
      dz2     :     0.008326  d :     0.024031
      dxz     :     0.004502
      dyz     :     0.002942
      dx2y2   :     0.005709
      dxy     :     0.002553

 17 C s       :     2.926863  s :     2.926863
      pz      :     0.842791  p :     3.060859
      px      :     1.106847
      py      :     1.111221
      dz2     :     0.042348  d :     0.136424
      dxz     :     0.020144
      dyz     :     0.036043
      dx2y2   :     0.024917
      dxy     :     0.012972

 18 C s       :     2.955101  s :     2.955101
      pz      :     1.122874  p :     3.346669
      px      :     1.137156
      py      :     1.086639
      dz2     :     0.016090  d :     0.069204
      dxz     :     0.007066
      dyz     :     0.014339
      dx2y2   :     0.021249
      dxy     :     0.010460

 19 H s       :     0.879904  s :     0.879904

 20 H s       :     0.872009  s :     0.872009

 21 H s       :     0.871800  s :     0.871800

 22 H s       :     0.888672  s :     0.888672

 23 H s       :     0.877262  s :     0.877262

 24 H s       :     0.891007  s :     0.891007

 25 H s       :     0.881084  s :     0.881084

 26 H s       :     0.875343  s :     0.875343

 27 H s       :     0.874298  s :     0.874298

 28 H s       :     0.870124  s :     0.870124

 29 H s       :     0.871514  s :     0.871514

 30 H s       :     0.861296  s :     0.861296

 31 H s       :     0.882290  s :     0.882290

 32 H s       :     0.889586  s :     0.889586

 33 H s       :     0.874443  s :     0.874443

 34 H s       :     0.870423  s :     0.870423

 35 H s       :     0.877706  s :     0.877706

 36 H s       :     0.882373  s :     0.882373

 37 H s       :     0.893447  s :     0.893447

 38 H s       :     0.868721  s :     0.868721

 39 H s       :     0.878584  s :     0.878584

 40 H s       :     0.874581  s :     0.874581


---------------------------------
LOEWDIN BOND ORDERS (THRESH 0.050000)
---------------------------------
B(  0-C ,  1-C ) :   1.1588 B(  0-C ,  2-O ) :   0.0566 B(  0-C , 19-H ) :   0.9279 
B(  0-C , 20-H ) :   0.9240 B(  0-C , 21-H ) :   0.9265 B(  1-C ,  2-O ) :   1.0746 
B(  1-C ,  3-P ) :   0.0601 B(  1-C , 22-H ) :   0.9186 B(  1-C , 23-H ) :   0.9165 
B(  2-O ,  3-P ) :   1.3160 B(  2-O ,  4-S ) :   0.0852 B(  2-O ,  5-O ) :   0.0544 
B(  2-O ,  8-S ) :   0.0507 B(  3-P ,  4-S ) :   1.7110 B(  3-P ,  5-O ) :   1.2659 
B(  3-P ,  6-C ) :   0.0655 B(  3-P ,  8-S ) :   1.0662 B(  4-S ,  5-O ) :   0.0878 
B(  4-S ,  8-S ) :   0.1394 B(  4-S , 29-H ) :   0.0589 B(  5-O ,  6-C ) :   1.0815 
B(  5-O ,  7-C ) :   0.0591 B(  5-O ,  8-S ) :   0.0556 B(  6-C ,  7-C ) :   1.1561 
B(  6-C , 24-H ) :   0.9098 B(  6-C , 25-H ) :   0.9187 B(  7-C , 26-H ) :   0.9365 
B(  7-C , 27-H ) :   0.9270 B(  7-C , 28-H ) :   0.9269 B(  8-S ,  9-C ) :   1.1777 
B(  8-S , 10-S ) :   0.0994 B(  9-C , 10-S ) :   1.1648 B(  9-C , 29-H ) :   0.8971 
B(  9-C , 30-H ) :   0.9231 B( 10-S , 11-P ) :   1.0654 B( 10-S , 12-S ) :   0.1199 
B( 10-S , 13-O ) :   0.0521 B( 10-S , 16-O ) :   0.0610 B( 11-P , 12-S ) :   1.7260 
B( 11-P , 13-O ) :   1.2864 B( 11-P , 14-C ) :   0.0648 B( 11-P , 16-O ) :   1.2520 
B( 11-P , 17-C ) :   0.0655 B( 12-S , 13-O ) :   0.0932 B( 12-S , 16-O ) :   0.0979 
B( 13-O , 14-C ) :   1.0790 B( 13-O , 15-C ) :   0.0576 B( 14-C , 15-C ) :   1.1579 
B( 14-C , 31-H ) :   0.9174 B( 14-C , 32-H ) :   0.9051 B( 15-C , 33-H ) :   0.9357 
B( 15-C , 34-H ) :   0.9259 B( 15-C , 35-H ) :   0.9284 B( 16-O , 17-C ) :   1.0994 
B( 16-O , 18-C ) :   0.0608 B( 17-C , 18-C ) :   1.1559 B( 17-C , 36-H ) :   0.9165 
B( 17-C , 37-H ) :   0.9042 B( 18-C , 38-H ) :   0.9260 B( 18-C , 39-H ) :   0.9254 
B( 18-C , 40-H ) :   0.9357 

------------------------------------------
LOEWDIN REDUCED ORBITAL POPULATIONS PER MO
-------------------------------------------
THRESHOLD FOR PRINTING IS 0.1%%
                      0         1         2         3         4         5   
                 -88.03792 -88.03351 -87.98429 -87.97707 -76.42532 -76.41945
                   2.00000   2.00000   2.00000   2.00000   2.00000   2.00000
                  --------  --------  --------  --------  --------  --------
 3 P  s               0.0       0.0       0.0       0.0     100.0       0.0
 4 S  s               0.0       0.0     100.0       0.0       0.0       0.0
 8 S  s             100.0       0.0       0.0       0.0       0.0       0.0
10 S  s               0.0     100.0       0.0       0.0       0.0       0.0
11 P  s               0.0       0.0       0.0       0.0       0.0     100.0
12 S  s               0.0       0.0       0.0     100.0       0.0       0.0

                      6         7         8         9        10        11   
                 -18.79660 -18.78619 -18.78356 -18.78294  -9.95704  -9.95226
                   2.00000   2.00000   2.00000   2.00000   2.00000   2.00000
                  --------  --------  --------  --------  --------  --------
 2 O  s               0.0       0.0       0.0      99.9       0.0       0.0
 5 O  s              99.9       0.0       0.0       0.0       0.0       0.0
 6 C  s               0.0       0.0       0.0       0.0      99.7       0.0
 9 C  s               0.0       0.0       0.0       0.0       0.0      99.8
13 O  s               0.0      99.9       0.0       0.0       0.0       0.0
16 O  s               0.0       0.0      99.9       0.0       0.0       0.0

                     12        13        14        15        16        17   
                  -9.94874  -9.94556  -9.94362  -9.88420  -9.88095  -9.87737
                   2.00000   2.00000   2.00000   2.00000   2.00000   2.00000
                  --------  --------  --------  --------  --------  --------
 0 C  py              0.1       0.0       0.0       0.0       0.0       0.0
 1 C  s              99.7       0.0       0.0       0.0       0.0       0.0
 7 C  s               0.0       0.0       0.0      99.7       0.0       0.0
14 C  s               0.0       0.0      99.7       0.0       0.0       0.0
15 C  s               0.0       0.0       0.0       0.0       0.0      99.7
17 C  s               0.0      99.7       0.0       0.0       0.0       0.0
18 C  s               0.0       0.0       0.0       0.0      99.7       0.0

                     18        19        20        21        22        23   
                  -9.87566  -7.68367  -7.67906  -7.62909  -7.62199  -6.42265
                   2.00000   2.00000   2.00000   2.00000   2.00000   2.00000
                  --------  --------  --------  --------  --------  --------
 0 C  s              99.7       0.0       0.0       0.0       0.0       0.0
 1 C  py              0.1       0.0       0.0       0.0       0.0       0.0
 2 O  pz              0.0       0.0       0.0       0.0       0.0       0.2
 3 P  s               0.0       0.0       0.0       0.0       0.0      99.3
 4 S  s               0.0       0.0       0.0      99.9       0.0       0.0
 5 O  px              0.0       0.0       0.0       0.0       0.0       0.2
 8 S  s               0.0      99.7       0.0       0.0       0.0       0.0
 9 C  px              0.0       0.1       0.1       0.0       0.0       0.0
10 S  s               0.0       0.0      99.8       0.0       0.0       0.0
12 S  s               0.0       0.0       0.0       0.0      99.9       0.0

                     24        25        26        27        28        29   
                  -6.41694  -5.71153  -5.70808  -5.70731  -5.70342  -5.70065
                   2.00000   2.00000   2.00000   2.00000   2.00000   2.00000
                  --------  --------  --------  --------  --------  --------
 8 S  pz              0.0      14.0       1.3       0.0       0.0      84.7
 8 S  px              0.0      69.1      23.1       0.0       0.0       7.7
 8 S  py              0.0      16.9      75.6       0.0       0.0       7.5
10 S  pz              0.0       0.0       0.0      40.4      20.6       0.0
10 S  px              0.0       0.0       0.0      22.6      16.5       0.0
10 S  py              0.0       0.0       0.0      37.0      62.8       0.0
11 P  s              99.3       0.0       0.0       0.0       0.0       0.0
13 O  pz              0.2       0.0       0.0       0.0       0.0       0.0
16 O  px              0.2       0.0       0.0       0.0       0.0       0.0

                     30        31        32        33        34        35   
                  -5.69573  -5.65778  -5.65081  -5.64988  -5.64929  -5.64281
                   2.00000   2.00000   2.00000   2.00000   2.00000   2.00000
                  --------  --------  --------  --------  --------  --------
 4 S  pz              0.0      21.6       0.0      12.3      66.1       0.0
 4 S  px              0.0      10.2       0.0      62.4      27.4       0.0
 4 S  py              0.0      68.1       0.0      25.3       6.5       0.0
10 S  pz             38.9       0.0       0.0       0.0       0.0       0.0
10 S  px             60.9       0.0       0.0       0.0       0.0       0.0
10 S  py              0.2       0.0       0.0       0.0       0.0       0.0
12 S  pz              0.0       0.0      41.7       0.0       0.0      39.3
12 S  px              0.0       0.0      24.3       0.0       0.0       0.9
12 S  py              0.0       0.0      34.0       0.0       0.0      59.8

                     36        37        38        39        40        41   
                  -5.64202  -4.64570  -4.64414  -4.64296  -4.63952  -4.63880
                   2.00000   2.00000   2.00000   2.00000   2.00000   2.00000
                  --------  --------  --------  --------  --------  --------
 3 P  pz              0.0      22.6      67.8       9.5       0.0       0.0
 3 P  px              0.0      76.6      16.8       6.5       0.0       0.0
 3 P  py              0.0       0.7      15.3      83.9       0.0       0.0
11 P  pz              0.0       0.0       0.0       0.0      69.9       2.9
11 P  px              0.0       0.0       0.0       0.0      13.5      77.3
11 P  py              0.0       0.0       0.0       0.0      16.5      19.7
12 S  pz             19.0       0.0       0.0       0.0       0.0       0.0
12 S  px             74.8       0.0       0.0       0.0       0.0       0.0
12 S  py              6.2       0.0       0.0       0.0       0.0       0.0

                     42        43        44        45        46        47   
                  -4.63733  -0.98718  -0.98032  -0.94144  -0.94013  -0.75736
                   2.00000   2.00000   2.00000   2.00000   2.00000   2.00000
                  --------  --------  --------  --------  --------  --------
 0 C  s               0.0       0.2       0.0       0.4       0.0       0.2
 0 C  py              0.0       0.3       0.0       0.6       0.0       0.1
 1 C  s               0.0       2.4       0.0       5.2       0.0       0.9
 1 C  pz              0.0       1.9       0.0       2.6       0.0       0.0
 1 C  px              0.0       0.6       0.0       1.6       0.0       0.0
 1 C  py              0.0       0.3       0.0       0.6       0.0       0.0
 1 C  dxz             0.0       0.1       0.0       0.2       0.0       0.0
 2 O  s               0.0      20.6       0.0      38.2       0.0       0.2
 2 O  pz              0.0       0.7       0.0       0.1       0.0       0.9
 2 O  px              0.0       0.7       0.0       0.7       0.0       0.1
 2 O  py              0.0       0.2       0.0       0.4       0.0       0.1
 3 P  s               0.0      13.9       0.0       0.3       0.0       3.6
 3 P  pz              0.0       1.7       0.0       6.2       0.0       0.7
 3 P  px              0.0       3.3       0.0       4.6       0.0       1.0
 3 P  py              0.0       0.2       0.0       0.0       0.0       0.9
 3 P  dz2             0.0       0.1       0.0       2.7       0.0       0.0
 3 P  dxz             0.0       0.1       0.0       0.0       0.0       0.0
 3 P  dx2y2           0.0       0.9       0.0       0.6       0.0       0.1
 4 S  s               0.0       0.3       0.0       0.0       0.0       0.9
 4 S  py              0.0       0.2       0.0       0.0       0.0       0.2
 5 O  s               0.0      36.4       0.0      22.9       0.0       0.2
 5 O  pz              0.0       0.5       0.0       1.1       0.0       0.1
 5 O  px              0.0       1.2       0.0       0.1       0.0       0.5
 6 C  s               0.0       4.2       0.0       3.8       0.0       0.5
 6 C  pz              0.0       3.2       0.0       2.3       0.0       0.1
 6 C  px              0.0       1.4       0.0       0.9       0.0       0.0
 6 C  dz2             0.0       0.1       0.0       0.1       0.0       0.0
 6 C  dxz             0.0       0.2       0.0       0.2       0.0       0.0
 7 C  s               0.0       0.2       0.0       0.3       0.0       0.2
 7 C  px              0.0       0.1       0.0       0.1       0.0       0.0
 7 C  py              0.0       0.3       0.0       0.3       0.0       0.1
 8 S  s               0.0       0.3       0.0       0.0       0.0      20.9
 8 S  px              0.0       0.1       0.0       0.0       0.0       1.8
 8 S  py              0.0       0.3       0.0       0.0       0.0       1.1
 8 S  dz2             0.0       0.0       0.0       0.0       0.0       0.1
 9 C  s               0.0       0.0       0.0       0.0       0.0      26.1
 9 C  pz              0.0       0.0       0.0       0.0       0.0       1.8
 9 C  px              0.0       0.0       0.0       0.0       0.0       0.4
 9 C  py              0.0       0.0       0.0       0.0       0.0       0.1
10 S  s               0.0       0.0       0.3       0.0       0.0      15.7
10 S  pz              0.0       0.0       0.0       0.0       0.0       1.3
10 S  px              0.0       0.0       0.0       0.0       0.0       1.0
10 S  py              0.0       0.0       0.4       0.0       0.0       0.3
10 S  dxz             0.0       0.0       0.0       0.0       0.0       0.2
11 P  s               0.0       0.0      14.1       0.0       0.0       1.6
11 P  pz             27.1       0.0       1.3       0.0       6.8       0.0
11 P  px              9.1       0.0       3.2       0.0       3.2       0.3
11 P  py             63.7       0.0       0.3       0.0       0.9       1.3
11 P  dz2             0.0       0.0       0.2       0.0       1.4       0.0
11 P  dxz             0.0       0.0       0.1       0.0       0.5       0.0
11 P  dyz             0.0       0.0       0.4       0.0       0.4       0.1
11 P  dx2y2           0.0       0.0       0.3       0.0       0.9       0.1
12 S  s               0.0       0.0       0.3       0.0       0.0       0.2
12 S  pz              0.0       0.0       0.2       0.0       0.0       0.0
12 S  px              0.0       0.0       0.1       0.0       0.0       0.0
12 S  py              0.0       0.0       0.1       0.0       0.0       0.0
[...]

                    330       331       332       333   
                   3.17399   3.19084   3.22910   3.24058
                   0.00000   0.00000   0.00000   0.00000
                  --------  --------  --------  --------
 0 C  dyz             0.1       0.0       0.0       0.0
 0 C  dxy             0.1       0.0       0.0       0.0
 1 C  s               1.5       0.0       0.2       0.1
 1 C  pz              1.3       0.0       0.2       0.2
 1 C  px              1.0       0.0       0.1       0.1
 1 C  py              0.6       0.0       0.1       0.0
 1 C  dz2             0.8       0.0       0.3       0.2
 1 C  dxz             5.4       0.1       0.5       0.3
 1 C  dyz             2.7       0.0       0.2       0.1
 1 C  dx2y2           0.5       0.0       0.0       0.0
 1 C  dxy             1.8       0.0       0.0       0.0
 2 O  s               3.8       0.0       0.1       0.3
 2 O  pz              1.5       0.0       1.4       1.5
 2 O  px              0.7       0.0       0.0       0.0
 2 O  py              0.4       0.0       0.0       0.0
 2 O  dz2             8.7       0.0       3.7       5.6
 2 O  dxz            28.5       0.4       6.9       5.1
 2 O  dyz            12.3       0.1       2.3       1.8
 2 O  dx2y2           1.3       0.0       0.0       0.0
 2 O  dxy             8.7       0.1       0.6       0.4
 3 P  s               0.5       0.0       0.0       0.0
 3 P  pz              0.1       0.0       0.8       0.9
 3 P  px              0.9       0.0       0.6       0.8
 3 P  dz2             0.0       0.0       0.7       0.9
 3 P  dxz             0.2       0.0       0.1       0.1
 3 P  dx2y2           0.1       0.0       0.2       0.2
 3 P  dxy             0.1       0.0       0.0       0.0
 5 O  s               0.2       0.1       0.2       0.0
 5 O  pz              0.5       0.0       0.8       0.8
 5 O  px              1.1       0.0       1.6       1.9
 5 O  dz2             6.9       0.1      12.6      13.2
 5 O  dxz             0.3       0.3       8.8       7.0
 5 O  dyz             0.2       0.0       0.4       0.4
 5 O  dx2y2           4.0       0.1       1.1       2.2
 5 O  dxy             0.1       0.0       0.7       0.8
 6 C  s               0.2       0.0       0.6       0.6
 6 C  pz              0.2       0.0       0.7       0.6
 6 C  px              0.1       0.0       0.3       0.3
 6 C  dz2             0.0       0.0       0.9       0.7
 6 C  dxz             0.7       0.0       2.1       1.9
 6 C  dx2y2           0.1       0.0       0.2       0.2
11 P  s               0.0       0.5       0.0       0.0
11 P  pz              0.0       0.1       0.8       1.1
11 P  px              0.0       0.2       0.3       0.3
11 P  py              0.0       0.1       0.1       0.2
11 P  dz2             0.0       0.0       0.2       0.2
11 P  dxz             0.0       0.2       0.4       0.4
11 P  dyz             0.0       0.5       0.1       0.2
11 P  dx2y2           0.0       0.0       0.1       0.1
13 O  s               0.0       2.2       0.1       0.1
13 O  pz              0.0       0.8       0.5       0.8
13 O  py              0.0       3.4       0.4       0.8
13 O  dz2             0.2      17.5       6.9      10.7
13 O  dxz             0.0       0.1       0.0       0.0
13 O  dyz             0.1       3.5       0.8       0.9
13 O  dx2y2           0.5      35.1       1.0       2.4
14 C  s               0.0       1.6       0.1       0.2
14 C  pz              0.0       0.1       0.0       0.0
14 C  py              0.0       2.9       0.2       0.4
14 C  dz2             0.0       1.8       0.1       0.1
14 C  dyz             0.0       1.5       0.3       0.4
14 C  dx2y2           0.1       7.0       0.2       0.6
15 C  dxy             0.0       0.2       0.0       0.0
16 O  s               0.0       0.2       0.3       0.1
16 O  pz              0.0       0.7       1.6       1.3
16 O  px              0.0       0.4       1.0       1.0
16 O  dz2             0.0      12.3      23.5      18.9
16 O  dxz             0.1       0.5       0.8       0.4
16 O  dyz             0.0       0.3       1.1       0.8
16 O  dx2y2           0.0       0.7       2.5       2.9
17 C  s               0.0       0.4       0.7       0.6
17 C  pz              0.0       0.6       1.2       0.9
17 C  px              0.0       0.1       0.1       0.1
17 C  dz2             0.0       1.5       2.8       2.0
17 C  dxz             0.0       0.6       1.1       0.9


                      *****************************
                      * MAYER POPULATION ANALYSIS *
                      *****************************

  NA   - Mulliken gross atomic population
  ZA   - Total nuclear charge
  QA   - Mulliken gross atomic charge
  VA   - Mayer's total valence
  BVA  - Mayer's bonded valence
  FA   - Mayer's free valence

  ATOM       NA         ZA         QA         VA         BVA        FA
  0 C      6.3342     6.0000    -0.3342     4.0036     4.0036     0.0000
  1 C      5.9836     6.0000     0.0164     4.0169     4.0169     0.0000
  2 O      8.3574     8.0000    -0.3574     2.1930     2.1930    -0.0000
  3 P     14.3708    15.0000     0.6292     4.9745     4.9745     0.0000
  4 S     16.3303    16.0000    -0.3303     2.0920     2.0920    -0.0000
  5 O      8.3850     8.0000    -0.3850     2.1695     2.1695     0.0000
  6 C      6.0080     6.0000    -0.0080     4.0099     4.0099     0.0000
  7 C      6.2943     6.0000    -0.2943     3.9826     3.9826    -0.0000
  8 S     16.0855    16.0000    -0.0855     2.2493     2.2493    -0.0000
  9 C      6.3635     6.0000    -0.3635     3.8356     3.8356    -0.0000
 10 S     16.0920    16.0000    -0.0920     2.2309     2.2309    -0.0000
 11 P     14.3797    15.0000     0.6203     4.9634     4.9634     0.0000
 12 S     16.3276    16.0000    -0.3276     2.0760     2.0760    -0.0000
 13 O      8.3710     8.0000    -0.3710     2.1893     2.1893     0.0000
 14 C      6.0091     6.0000    -0.0091     3.9920     3.9920     0.0000
 15 C      6.3017     6.0000    -0.3017     3.9943     3.9943     0.0000
 16 O      8.3724     8.0000    -0.3724     2.1727     2.1727    -0.0000
 17 C      6.0036     6.0000    -0.0036     4.0051     4.0051    -0.0000
 18 C      6.3247     6.0000    -0.3247     3.9858     3.9858    -0.0000
 19 H      0.8753     1.0000     0.1247     0.9785     0.9785    -0.0000
 20 H      0.8938     1.0000     0.1062     0.9529     0.9529    -0.0000
 21 H      0.8558     1.0000     0.1442     0.9741     0.9741    -0.0000
 22 H      0.8955     1.0000     0.1045     0.9556     0.9556     0.0000
 23 H      0.8918     1.0000     0.1082     0.9554     0.9554     0.0000
 24 H      0.8978     1.0000     0.1022     0.9850     0.9850     0.0000
 25 H      0.8922     1.0000     0.1078     0.9481     0.9481    -0.0000
 26 H      0.8856     1.0000     0.1144     0.9565     0.9565     0.0000
 27 H      0.8693     1.0000     0.1307     0.9908     0.9908     0.0000
 28 H      0.8902     1.0000     0.1098     0.9544     0.9544    -0.0000
 29 H      0.7905     1.0000     0.2095     0.9878     0.9878    -0.0000
 30 H      0.8177     1.0000     0.1823     0.9322     0.9322    -0.0000
 31 H      0.8981     1.0000     0.1019     0.9512     0.9512     0.0000
 32 H      0.8736     1.0000     0.1264     0.9773     0.9773     0.0000
 33 H      0.8852     1.0000     0.1148     0.9605     0.9605    -0.0000
 34 H      0.8903     1.0000     0.1097     0.9540     0.9540     0.0000
 35 H      0.8780     1.0000     0.1220     0.9842     0.9842    -0.0000
 36 H      0.8973     1.0000     0.1027     0.9495     0.9495    -0.0000
 37 H      0.8926     1.0000     0.1074     0.9904     0.9904    -0.0000
 38 H      0.8866     1.0000     0.1134     0.9558     0.9558    -0.0000
 39 H      0.8702     1.0000     0.1298     0.9780     0.9780    -0.0000
 40 H      0.8782     1.0000     0.1218     0.9591     0.9591    -0.0000

  Mayer bond orders larger than 0.100000
B(  0-C ,  1-C ) :   1.1697 B(  0-C , 19-H ) :   0.9334 B(  0-C , 20-H ) :   0.9350 
B(  0-C , 21-H ) :   0.9346 B(  1-C ,  2-O ) :   0.8955 B(  1-C , 22-H ) :   0.9328 
B(  1-C , 23-H ) :   0.9313 B(  2-O ,  3-P ) :   1.1573 B(  3-P ,  4-S ) :   1.6029 
B(  3-P ,  5-O ) :   1.0833 B(  3-P ,  8-S ) :   0.9585 B(  4-S ,  8-S ) :   0.1201 
B(  5-O ,  6-C ) :   0.9019 B(  6-C ,  7-C ) :   1.1700 B(  6-C , 24-H ) :   0.9131 
B(  6-C , 25-H ) :   0.9352 B(  7-C , 26-H ) :   0.9452 B(  7-C , 27-H ) :   0.9315 
B(  7-C , 28-H ) :   0.9396 B(  8-S ,  9-C ) :   1.0097 B(  9-C , 10-S ) :   0.9959 
B(  9-C , 29-H ) :   0.8540 B(  9-C , 30-H ) :   0.9102 B( 10-S , 11-P ) :   0.9614 
B( 10-S , 12-S ) :   0.1083 B( 11-P , 12-S ) :   1.6095 B( 11-P , 13-O ) :   1.1241 
B( 11-P , 16-O ) :   1.0850 B( 13-O , 14-C ) :   0.8955 B( 14-C , 15-C ) :   1.1641 
B( 14-C , 31-H ) :   0.9360 B( 14-C , 32-H ) :   0.9106 B( 15-C , 33-H ) :   0.9450 
B( 15-C , 34-H ) :   0.9391 B( 15-C , 35-H ) :   0.9356 B( 16-O , 17-C ) :   0.9169 
B( 17-C , 18-C ) :   1.1642 B( 17-C , 36-H ) :   0.9320 B( 17-C , 37-H ) :   0.9096 
B( 18-C , 38-H ) :   0.9388 B( 18-C , 39-H ) :   0.9319 B( 18-C , 40-H ) :   0.9435 


-------
TIMINGS
-------

Total SCF time: 0 days 0 hours 0 min 16 sec 

Total time                  ....      16.814 sec
Sum of individual times     ....      16.345 sec  ( 97.2%)

SCF preparation             ....       0.252 sec  (  1.5%)
Fock matrix formation       ....      14.960 sec  ( 89.0%)
  Startup                   ....       0.062 sec  (  0.4% of F)
  Split-RI-J                ....       8.908 sec  ( 59.5% of F)
  XC integration            ....       5.461 sec  ( 36.5% of F)
    XC Preparation          ....       0.000 sec  (  0.0% of XC)
    Basis function eval.    ....       2.105 sec  ( 38.6% of XC)
    Density eval.           ....       1.043 sec  ( 19.1% of XC)
    XC-Functional eval.     ....       0.409 sec  (  7.5% of XC)
    XC-Potential eval.      ....       1.234 sec  ( 22.6% of XC)
Diagonalization             ....       0.000 sec  (  0.0%)
Density matrix formation    ....       0.252 sec  (  1.5%)
Total Energy calculation    ....       0.029 sec  (  0.2%)
Population analysis         ....       0.203 sec  (  1.2%)
Orbital Transformation      ....       0.078 sec  (  0.5%)
Orbital Orthonormalization  ....       0.000 sec  (  0.0%)
DIIS solution               ....       0.423 sec  (  2.5%)
  MO trafo                  ....       0.000 sec  (  0.0 % of DIIS)
  Orb grad                  ....       0.000 sec  (  0.0 % of DIIS)
  Energy W gradient         ....       0.000 sec  (  0.0 % of DIIS)
  DIIS error                ....       0.021 sec  (  5.0 % of DIIS)
  DIIS work                 ....       0.347 sec  ( 82.0 % of DIIS)
  Form Q                    ....       0.000 sec  (  0.0 % of DIIS)
  Form QpQm                 ....       0.000 sec  (  0.0 % of DIIS)
  Exp/Cayley                ....       0.000 sec  (  0.0 % of DIIS)
  Orb update                ....       0.000 sec  (  0.0 % of DIIS)
  Wake-sleep                ....       0.015 sec  (  3.5 % of DIIS)
SOSCF solution              ....       0.148 sec  (  0.9%)
  MO trafo                  ....       0.072 sec  ( 48.5 % of SOSCF)
  Orb grad                  ....       0.001 sec  (  0.8 % of SOSCF)
  Rot update                ....       0.030 sec  ( 20.5 % of SOSCF)
  Step                      ....       0.045 sec  ( 30.1 % of SOSCF)
Finished LeanSCF after  16.9 sec

Maximum memory used throughout the entire LEANSCF-calculation: 34.8 MB


-------------------------------------------------------------------------------
                          DFT DISPERSION CORRECTION                            
                                                                               
                                DFTD4 V3.4.0                                   
-------------------------------------------------------------------------------
The PBE functional is recognized
Active option DFTDOPT                   ...         5   

-------------------------   ----------------
Dispersion correction           -0.067693089
-------------------------   ----------------

------------------   -----------------
gCP correction             0.185823635
------------------   -----------------

-------------------------   --------------------
FINAL SINGLE POINT ENERGY     -2929.514343748556
-------------------------   --------------------


------------------------------------------------------------------------------
                              ORCA PROPERTY CALCULATIONS
------------------------------------------------------------------------------

GBWName                                 ... sp.gbw
Number of atoms                         ...     41
Number of basis functions               ...    334
Max core memory                         ...   1024 MB

Electric properties:
Dipole moment                           ... YES
Quadrupole moment                       ...  NO
Static polarizability (Dipole/Dipole)   ...  NO
Static polarizability (Dipole/Quad.)    ...  NO
Static polarizability (Quad./Quad.)     ...  NO
Static polarizability (Velocity)        ...  NO

Atomic electric properties:
Dipole moment                           ...  NO
Quadrupole moment                       ...  NO
Static polarizability                   ...  NO

Choice of electric origin               ... Center of mass
Position of electric origin             ...     0.000002     0.000007    -0.000002

General magnetic properties:
Magnetizability                         ...  NO

EPR properties:
g-Tensor (aka g-matrix)                 ...  NO
Zero-Field splitting spin-orbit         ...  NO
Zero-field splitting spin-spin          ...  NO
Hyperfine couplings                     ...  NO (   0 nuclei)
Quadrupole couplings                    ...  NO (   0 nuclei)
Contact density                         ...  NO (   0 nuclei)

NMR properties:
Chemical shifts                         ...  NO (   0 nuclei)
Spin-rotation constants                 ...  NO (   0 nuclei)
Spin-spin couplings                     ...  NO (   0 nuclei,    0 pairs)

Choice of magnetic origin               ... GIAO
Position of magnetic origin             ...     0.000000     0.000000     0.000000

Properties with geometric perturbations:
SCF Hessian                             ...  NO
IR spectrum                             ...  NO
VCD spectrum                            ...  NO
X-ray spectroscopy properties:
SCF XES/XAS/RIXS spectra                ...  NO


-------------
DIPOLE MOMENT
-------------

Method             : SCF
Type of density    : Electron Density
Multiplicity       :   1
Irrep              :   0
Energy             : -2929.6324742949968822 Eh
Relativity type    : 
Basis              : AO
                                X                 Y                 Z
Electronic contribution:     -2.473744646     -12.631980609       4.819549410
Nuclear contribution   :      2.862043436      12.564362904      -4.689838417
                        -----------------------------------------
Total Dipole Moment    :      0.388298790      -0.067617706       0.129710993
                        -----------------------------------------
Magnitude (a.u.)       :      0.414937400
Magnitude (Debye)      :      1.054687054



--------------------
Rotational spectrum 
--------------------
 
Rotational constants in cm-1:             0.012448             0.005280             0.005157 
Rotational constants in MHz :           373.191628           158.299332           154.606303 

Dipole components along the rotational axes: 
x,y,z [a.u.] :     0.411809    -0.028770     0.041939 
x,y,z [Debye]:     1.046735    -0.073128     0.106602 

 

Dipole moment calculation done in   0.0 sec 

Maximum memory used throughout the entire PROP-calculation: 24.2 MB

--------------------------------
SUGGESTED CITATIONS FOR THIS RUN
--------------------------------

Below you find a list of papers that are relevant to this ORCA run
We neither can nor want to force you to cite these papers, but we appreciate if you do
You receive ORCA, which is the product of decades of hard work by many enthusiastic individuals, for free
The only thing we kindly ask in return is that you cite our papers,
We deeply appreciate it, if you show your appreciation for ORCA by not just citing the generic ORCA reference.

Please note that relegating all ORCA citations to the supporting information does *not* help us.
SI sections are not indexed - citations you put there will not count into any citation statistics
But we need these citations in order to attract the funding resources that allow us to do what we are doing

Therefore, if you are a happy ORCA user, please consider citing a few of the papers listed below in the main body of your paper

In addition to the list printed below, the program has created the file sp.bibtex that contains the list in bibtex format
You can import this file easily into all common literature databanks and citation aid programs


List of essential papers. We consider these as the minimum necessary citations

  1. Neese,F.
     Software update: the ORCA program system, version 5.0
     WIRES Comput. Molec. Sci., 2022 12(1)e1606
     doi.org/10.1002/wcms.1606

List of papers to cite with high priority. The work reported in these papers was absolutely
necessary for this run to complete.
Our perspective: the developers of density functionals and basis sets usually get cited in chemistry papers
Good! But without the algorithms to do something with them, the functionals or basis sets would not do anything.
Hence, in our opinion, the algorithm design and method developments papers are equally worthy of getting cited

  1. Neese,F.
     An improvement of the resolution of the identity approximation for the formation of the Coulomb matrix
     J. Comp. Chem., 2003 24(14)1740-1747
     doi.org/10.1002/jcc.10318
  2. Neese,F.
     The SHARK Integral Generation and Digestion System
     J. Comp. Chem., 2022  1-16
     doi.org/10.1002/jcc.26942
  3. Caldeweyher,E.; Bannwarth,C.; Grimme,S.
     Extension of the D3 dispersion coefficient model
     J. Chem. Phys., 2017 147 034112-XXXX
     doi.org/10.1063/1.4993215
  4. Caldeweyher,E.; Ehlert,S.; Hansen,A.; Neugebauer,H.; Spicher,S.; Bannwarth,C.; Grimme,S.
     A generally applicable atomic-charge dependent London dispersion correction
     J. Chem. Phys., 2019 150 154122-XXXX
     doi.org/10.1063/1.5090222
  5. Caldeweyher,E.; Mewes,J.; Ehlert,S.; Grimme,S.
     Extension and evaluation of the D4 London-dispersion model for periodic systems
     Phys. Chem. Chem. Phys., 2020 22(16)8499-8512
     doi.org/10.1039/D0CP00502A

List of suggested additional citations. These are papers that are important in the 'surrounding' of 
of this run, or papers that preceded the highly important papers. If you like your results we are grateful for a citation.

  1. Neese,F.
     The ORCA program system
     WIRES Comput. Molec. Sci., 2012 2(1)73-78
     doi.org/10.1002/wcms.81
  2. Neese,F.
     Software update: the ORCA program system, version 4.0
     WIRES Comput. Molec. Sci., 2018 8(1)1-6
     doi.org/10.1002/wcms.1327
  3. Neese,F.; Wennmohs,F.; Becker,U.; Riplinger,C.
     The ORCA quantum chemistry program package
     J. Chem. Phys., 2020 152 Art. No. L224108
     doi.org/10.1063/5.0004608

List of optional additional citations

  1. Neese,F.
     Approximate second-order SCF convergence for spin unrestricted wavefunctions
     Chem. Phys. Lett., 2000 325(1-3)93-98
     doi.org/10.1016/s0009-2614(00)00662-x

Timings for individual modules:

Sum of individual times          ...       20.602 sec (=   0.343 min)
Startup calculation              ...        1.621 sec (=   0.027 min)   7.9 %
SCF iterations                   ...       18.871 sec (=   0.315 min)  91.6 %
Property calculations            ...        0.110 sec (=   0.002 min)   0.5 %
                             ****ORCA TERMINATED NORMALLY****
TOTAL RUN TIME: 0 days 0 hours 0 minutes 21 seconds 367 msec
