
                                 *****************
                                 * O   R   C   A *
                                 *****************

                                            #,                                       
                                            ###                                      
                                            ####                                     
                                            #####                                    
                                            ######                                   
                                           ########,                                 
                                     ,,################,,,,,                         
                               ,,#################################,,                 
                          ,,##########################################,,             
                       ,#########################################, ''#####,          
                    ,#############################################,,   '####,        
                  ,##################################################,,,,####,       
                ,###########''''           ''''###############################       
              ,#####''   ,,,,##########,,,,          '''####'''          '####       
            ,##' ,,,,###########################,,,                        '##       
           ' ,,###''''                  '''############,,,                           
         ,,##''                                '''############,,,,        ,,,,,,###''
      ,#''                                            '''#######################'''  
     '                                                          ''''####''''         
             ,#######,   #######,   ,#######,      ##                                
            ,#'     '#,  ##    ##  ,#'     '#,    #''#        ,####,   ,####,        
            ##       ##  ##   ,#'  ##            #'  '#       #'       #'  '#        
            ##       ##  #######   ##           ,######,      #####,   #    #        
            '#,     ,#'  ##    ##  '#,     ,#' ,#      #,     #,   #   #,  ,#        
             '#######'   ##     ##  '#######'  #'      '#     '####' # '####'        



                #########################################################
                #                        -***-                          #
                #          Department of theory and spectroscopy        #
                #                                                       #
                #                      Frank Neese                      #
                #                                                       #
                #     Directorship, Architecture, Infrastructure        #
                #                    SHARK, DRIVERS                     #
                #        Core code/Algorithms in most modules           #
                #                                                       #
                #        Max Planck Institute fuer Kohlenforschung      #
                #                Kaiser Wilhelm Platz 1                 #
                #                 D-45470 Muelheim/Ruhr                 #
                #                      Germany                          #
                #                                                       #
                #                  All rights reserved                  #
                #                        -***-                          #
                #########################################################


                         Program Version 6.0.1  -  RELEASE   -


 With contributions from (in alphabetic order):
[Max-Planck-Institut fuer Kohlenforschung]                               
  Daniel Aravena         : Magnetic Suceptibility                        
  Michael Atanasov       : Ab Initio Ligand Field Theory (pilot matlab implementation)
  Alexander A. Auer      : GIAO ZORA, VPT2 properties, NMR spectrum      
  Ute Becker             : All parallelization in ORCA, NUMFREQ, NUMCALC 
  Giovanni Bistoni       : ED, misc. LED, open-shell LED, HFLD           
  Martin Brehm           : Molecular dynamics                            
  Dmytro Bykov           : pre 5.0 version of the SCF Hessian            
  Marcos Casanova-Páez   : Triplet and SCS-CIS(D). UHF-(DLPNO)-IP/EA/STEOM-CCSD. UHF-CVS-IP/STEOM-CCSD   
  Vijay G. Chilkuri      : MRCI spin determinant printing, contributions to CSF-ICE 
  Pauline Colinet        : FMM embedding                                 
  Dipayan Datta          : RHF DLPNO-CCSD density                        
  Achintya Kumar Dutta   : EOM-CC, STEOM-CC                              
  Nicolas Foglia         : Exact transition moments, OPA infrastructure, MCD improvements    
  Dmitry Ganyushin       : Spin-Orbit,Spin-Spin,Magnetic field MRCI      
  Miquel Garcia-Rates    : C-PCM and meta-GGA Hessian, CCSD/C-PCM, Gaussian charge scheme 
  Tiago L. C. Gouveia    : GS-ROHF, GS-ROCIS                             
  Yang Guo               : DLPNO-NEVPT2, F12-NEVPT2, CIM, IAO-localization        
  Andreas Hansen         : Spin unrestricted coupled pair/coupled cluster methods 
  Ingolf Harden          : AUTO-CI MPn and infrastructure                
  Benjamin Helmich-Paris : MC-RPA, TRAH-(SCF,CASSCF), AVAS, COSX integrals, SCF dyn. polar. 
  Lee Huntington         : MR-EOM, pCC                                   
  Robert Izsak           : Overlap fitted RIJCOSX, COSX-SCS-MP3, EOM     
  Riya Kayal             : Wick's Theorem for AUTO-CI, AUTO-CI UHF-CCSDT 
  Emily Kempfer          : AUTO-CI, RHF CISDT and CCSDT                  
  Christian Kollmar      : KDIIS, OOCD, Brueckner-CCSD(T), CCSD density, CASPT2, CASPT2-K, improved NEVPT2 
  Axel Koslowski         : Symmetry handling                             
  Simone Kossmann        : meta-GGA functionals, TD-DFT gradient, OOMP2, (MP2 Hessian; deprecated post 5.0) 
  Lucas Lang             : DCDCAS                                        
  Marvin Lechner         : AUTO-CI (C++ implementation), FIC-MRCC        
  Spencer Leger          : CASSCF response                               
  Dagmar Lenk            : GEPOL surface, SMD, ORCA-2-JSON               
  Dimitrios Liakos       : Extrapolation schemes; Compound Job, initial MDCI parallelization 
  Dimitrios Manganas     : Further ROCIS development; embedding schemes. LFT, Crystal Embedding 
  Dimitrios Pantazis     : SARC Basis sets                               
  Anastasios Papadopoulos: AUTO-CI, single reference methods and gradients 
  Taras Petrenko         : pre 6.0 DFT Hessian and TD-DFT gradient, (ASA, deprecated), ECA, 1-Electron XAS/XES, NRVS 
  Peter Pinski           : DLPNO-MP2, DLPNO-MP2 Gradient                 
  Christoph Reimann      : Effective Core Potentials                     
  Marius Retegan         : Local ZFS, SOC                                
  Christoph Riplinger    : Optimizer, TS searches, QM/MM, DLPNO-CCSD(T), (RO)-DLPNO pert. Triples 
  Michael Roemelt        : Original ROCIS implementation                 
  Masaaki Saitow         : Open-shell DLPNO-CCSD energy and density      
  Barbara Sandhoefer     : DKH picture change effects                    
  Kantharuban Sivalingam : CASSCF convergence/infrastructure, NEVPT2 and variants, FIC-MRCI 
  Bernardo de Souza      : ESD, SOC TD-DFT                               
  Georgi L. Stoychev     : AutoAux, RI-MP2 NMR, DLPNO-MP2 response, X2C  
  Van Anh Tran           : RI-MP2 g-tensors                              
  Willem Van den Heuvel  : Paramagnetic NMR                              
  Zikuan Wang            : NOTCH, Electric field optimization            
  Frank Wennmohs         : Technical directorship and infrastructure     
  Hang Xu                : AUTO-CI-Response properties                   
                                                                         
[FACCTs GmbH]                                                            
  Markus Bursch, Miquel Garcia-Rates, Christoph Riplinger, Bernardo de Souza, Georgi L. Stoychev 
                                                                 
  APM, Basis sets (HGBS, AHGBS, def-TZVP (Ac-Lr), def2-XVPD (La-Lu)), CI-OPT, improved COSX, DLPNO-Multilevel,           
  DOCKER, DRACO, updates on ESD, GOAT, IRC, LR-CPCM, MBIS, meta-GGA TD-DFT gradient, ML-optimized integration grids, 
  MM, NACMEs, nearIR, NEB, NEB-TS, NL-DFT gradient (VV10), 2- and 3-layer-ONIOM, interface openCOSMO-RS, QMMM,   
  Crystal-QMMM, SF, symmetry and pop. for TD-DFT, r2SCAN hybrids, SOLVATOR                                   
                                                                         
[Other institutions]                                                     
  V. Asgeirsson          : NEB                                           
  Christoph Bannwarth    : sTDA-DFT, sTD-DFT, PBEh-3c, B97-3c, D3        
  Sebastian Ehlert       : rSCAN, r2SCAN, r2SCAN-3c, D4, dhf basis sets  
  Marvin Friede          : D4 for Fr, Ra, Ac-Lr                          
  Lars Goerigk           : TD-DFT with DH, B97 family of functionals     
  Stefan Grimme          : VdW corrections, initial TS optimization, DFT functionals, gCP, sTDA/sTD-DF 
  Waldemar Hujo          : DFT-NL                                        
  H. Jonsson             : NEB                                           
  Holger Kruse           : gCP                                           
  Marcel Mueller         : wB97X-3c, vDZP basis set                      
  Hagen Neugebauer       : wr2SCAN                                       
  Tobias Risthaus        : range-separated hybrid DFT                    
  Lukas Wittmann         : regularized MP2, r2SCAN double-hybrids, wr2SCAN        
                                                                         
We gratefully acknowledge several colleagues who have allowed us to      
interface, adapt or use parts of their codes:                            
  Ed Valeev, F. Pavosevic, A. Kumar             : LibInt (2-el integral package), F12 methods 
  Garnet Chan, S. Sharma, J. Yang, R. Olivares  : DMRG                   
  Ulf Ekstrom                                   : XCFun DFT Library      
  Mihaly Kallay                                 : mrcc  (arbitrary order and MRCC methods)
  Frank Weinhold                                : gennbo (NPA and NBO analysis)           
  Simon Mueller                                 : openCOSMO-RS                            
  Christopher J. Cramer and Donald G. Truhlar   : smd solvation model                     
  S Lehtola, MJT Oliveira, MAL Marques          : LibXC Library                           
  Liviu Ungur et al                             : ANISO software                          


 Your calculation uses the libint2 library for the computation of 2-el integrals
 For citations please refer to: http://libint.valeyev.net

 Your ORCA version has been built with support for libXC version: 6.2.2
 For citations please refer to: https://libxc.gitlab.io

 This ORCA versions uses:
   CBLAS   interface :  Fast vector & matrix operations
   LAPACKE interface :  Fast linear algebra routines
   SCALAPACK package :  Parallel linear algebra routines
   Shared memory     :  Shared parallel matrices
   BLAS/LAPACK       :  OpenBLAS 0.3.27  USE64BITINT DYNAMIC_ARCH NO_AFFINITY Zen SINGLE_THREADED
        Core in use  :  Zen
   Copyright (c) 2011-2014, The OpenBLAS Project


Your calculation utilizes the geometrical counterpoise correction gCP
Please cite in your paper:
H.Kruse, S. Grimme J.Chem.Phys., 136, (2012), 154101 
   

Your calculation utilizes the atom-pairwise dispersion correction
based on EEQ partial charges (D4)


================================================================================

----- Orbital basis set information -----
Your calculation utilizes the basis: def2-mTZVPP
   Stefan Grimme, Andreas Hansen, Sebastian Ehlert, and Jan-Michael Mewes 
   J. Chem. Phys. 154, 064103 (2021). DOI: 10.1063/5.0040021

----- AuxJ basis set information -----
Your calculation utilizes the auxiliary basis: def2/J
   F. Weigend, Phys. Chem. Chem. Phys. 8, 1057 (2006).

================================================================================
                                        WARNINGS
                       Please study these warnings very carefully!
================================================================================

WARNING: Old DensityContainer found on disk!
         Will remove this file - 
         If you want to keep old densities, please start your calculation with a different basename. 



WARNING: SCAN, rSCAN, or r2SCAN functional requested.
  ===> : libXC variant has now been activated.



================================================================================
                                       INPUT FILE
================================================================================
NAME = sp_gas.inp
|  1> ! r2scan-3c def2/J RI DEFGRID2 scfconv6 printgap
|  2> %output
|  3>     printlevel normal
|  4> end
|  5> * xyz 0 1
|  6> C 5.5358034144 -1.9041979671 -1.4612057649
|  7> C 4.6965653637 -0.80078986 -0.8375104558
|  8> O 3.4013267356 -1.2905093524 -0.4385538147
|  9> C 2.4581637741 -1.3772226557 -1.3573033216
| 10> O 2.5979486711 -1.0899755342 -2.5234569333
| 11> C 1.1525650457 -1.874982567 -0.7578748216
| 12> C 0.1589955868 -0.7080940099 -0.7446067875
| 13> H -0.0208333218 -0.3610427 -1.7660187205
| 14> C 0.7846953131 0.4272108351 0.0437719532
| 15> O 1.677879513 1.1010617276 -0.4168754561
| 16> O 0.314574839 0.522599392 1.2688035895
| 17> C 0.9237623404 1.4814783089 2.1566383694
| 18> C 2.0807976033 0.8407871647 2.9039818304
| 19> S -1.4126807803 -1.2675545084 -0.0151541866
| 20> P -2.3314183942 0.6289969758 0.2473668411
| 21> S -1.6211707429 2.0947876924 -0.8455874202
| 22> O -3.8745572027 0.2954586232 -0.0115157234
| 23> C -4.3579925406 -0.0415951268 -1.3166014029
| 24> O -2.3716800009 0.9658974794 1.7877298931
| 25> C -2.8998305063 0.0337326739 2.7566157108
| 26> H 5.0750422723 -2.2463815312 -2.3847882054
| 27> H 6.5245800255 -1.5169809718 -1.6833186846
| 28> H 5.6229750747 -2.7414201623 -0.7742580792
| 29> H 4.5483953103 0.0257829226 -1.5384543084
| 30> H 5.1437058484 -0.434401525 0.0867802908
| 31> H 1.3282632579 -2.2357445964 0.2551666141
| 32> H 0.7529485135 -2.6758582633 -1.3800786224
| 33> H 1.2576716064 2.335695293 1.5606912892
| 34> H 0.120029524 1.7848631941 2.8279914607
| 35> H 2.8456794983 0.5216859534 2.1989714174
| 36> H 2.509317498 1.5671234657 3.5862707468
| 37> H 1.7337190616 -0.0212985775 3.4663631183
| 38> H -5.4420513862 -0.0102800527 -1.2437435818
| 39> H -4.019245598 -1.0406678399 -1.5903423204
| 40> H -4.0045897683 0.6865391995 -2.0483720302
| 41> H -2.711330788 0.4919850819 3.7237931933
| 42> H -2.3822064923 -0.9215046521 2.6709527624
| 43> H -3.9668339645 -0.1021046047 2.593839112
| 44> *
| 45> 
| 46>                          ****END OF INPUT****
================================================================================

                       ****************************
                       * Single Point Calculation *
                       ****************************

---------------------------------
CARTESIAN COORDINATES (ANGSTROEM)
---------------------------------
  C      5.535803   -1.904198   -1.461206
  C      4.696565   -0.800790   -0.837510
  O      3.401327   -1.290509   -0.438554
  C      2.458164   -1.377223   -1.357303
  O      2.597949   -1.089976   -2.523457
  C      1.152565   -1.874983   -0.757875
  C      0.158996   -0.708094   -0.744607
  H     -0.020833   -0.361043   -1.766019
  C      0.784695    0.427211    0.043772
  O      1.677880    1.101062   -0.416875
  O      0.314575    0.522599    1.268804
  C      0.923762    1.481478    2.156638
  C      2.080798    0.840787    2.903982
  S     -1.412681   -1.267555   -0.015154
  P     -2.331418    0.628997    0.247367
  S     -1.621171    2.094788   -0.845587
  O     -3.874557    0.295459   -0.011516
  C     -4.357993   -0.041595   -1.316601
  O     -2.371680    0.965897    1.787730
  C     -2.899831    0.033733    2.756616
  H      5.075042   -2.246382   -2.384788
  H      6.524580   -1.516981   -1.683319
  H      5.622975   -2.741420   -0.774258
  H      4.548395    0.025783   -1.538454
  H      5.143706   -0.434402    0.086780
  H      1.328263   -2.235745    0.255167
  H      0.752949   -2.675858   -1.380079
  H      1.257672    2.335695    1.560691
  H      0.120030    1.784863    2.827991
  H      2.845679    0.521686    2.198971
  H      2.509317    1.567123    3.586271
  H      1.733719   -0.021299    3.466363
  H     -5.442051   -0.010280   -1.243744
  H     -4.019246   -1.040668   -1.590342
  H     -4.004590    0.686539   -2.048372
  H     -2.711331    0.491985    3.723793
  H     -2.382206   -0.921505    2.670953
  H     -3.966834   -0.102105    2.593839

----------------------------
CARTESIAN COORDINATES (A.U.)
----------------------------
  NO LB      ZA    FRAG     MASS         X           Y           Z
   0 C     6.0000    0    12.011   10.461152   -3.598413   -2.761279
   1 C     6.0000    0    12.011    8.875222   -1.513274   -1.582665
   2 O     8.0000    0    15.999    6.427576   -2.438709   -0.828747
   3 C     6.0000    0    12.011    4.645256   -2.602574   -2.564932
   4 O     8.0000    0    15.999    4.909411   -2.059755   -4.768643
   5 C     6.0000    0    12.011    2.178032   -3.543204   -1.432176
   6 C     6.0000    0    12.011    0.300458   -1.338104   -1.407103
   7 H     1.0000    0     1.008   -0.039369   -0.682272   -3.337292
   8 C     6.0000    0    12.011    1.482859    0.807311    0.082717
   9 O     8.0000    0    15.999    3.170733    2.080705   -0.787780
  10 O     8.0000    0    15.999    0.594460    0.987570    2.397691
  11 C     6.0000    0    12.011    1.745658    2.799588    4.075456
  12 C     6.0000    0    12.011    3.932138    1.588857    5.487730
  13 S    16.0000    0    32.060   -2.669580   -2.395331   -0.028637
  14 P    15.0000    0    30.974   -4.405742    1.188632    0.467456
  15 S    16.0000    0    32.060   -3.063569    3.958575   -1.597929
  16 O     8.0000    0    15.999   -7.321852    0.558336   -0.021762
  17 C     6.0000    0    12.011   -8.235412   -0.078603   -2.488016
  18 O     8.0000    0    15.999   -4.481826    1.825282    3.378320
  19 C     6.0000    0    12.011   -5.479885    0.063746    5.209249
  20 H     1.0000    0     1.008    9.590440   -4.245046   -4.506597
  21 H     1.0000    0     1.008   12.329669   -2.866679   -3.181011
  22 H     1.0000    0     1.008   10.625883   -5.180533   -1.463136
  23 H     1.0000    0     1.008    8.595221    0.048723   -2.907257
  24 H     1.0000    0     1.008    9.720195   -0.820900    0.163991
  25 H     1.0000    0     1.008    2.510054   -4.224945    0.482195
  26 H     1.0000    0     1.008    1.422866   -5.056639   -2.607971
  27 H     1.0000    0     1.008    2.376655    4.413824    2.949279
  28 H     1.0000    0     1.008    0.226823    3.372903    5.344129
  29 H     1.0000    0     1.008    5.377555    0.985844    4.155454
  30 H     1.0000    0     1.008    4.741923    2.961434    6.777070
  31 H     1.0000    0     1.008    3.276254   -0.040248    6.550477
  32 H     1.0000    0     1.008  -10.283987   -0.019426   -2.350335
  33 H     1.0000    0     1.008   -7.595273   -1.966577   -3.005311
  34 H     1.0000    0     1.008   -7.567578    1.297371   -3.870862
  35 H     1.0000    0     1.008   -5.123673    0.929717    7.036949
  36 H     1.0000    0     1.008   -4.501718   -1.741391    5.047369
  37 H     1.0000    0     1.008   -7.496230   -0.192950    4.901646

--------------------------------
INTERNAL COORDINATES (ANGSTROEM)
--------------------------------
 C      0   0   0     0.000000000000     0.00000000     0.00000000
 C      1   0   0     1.520140057741     0.00000000     0.00000000
 O      2   1   0     1.441053325327   111.29273703     0.00000000
 C      3   2   1     1.319536367571   118.16510736   277.70753367
 O      4   3   2     1.209117435289   124.97932929     0.87883105
 C      4   3   2     1.520416882144   111.14862451   181.50674775
 C      6   4   3     1.532639949590   108.10961409   109.44904178
 H      7   6   4     1.093647742624   109.88390357    60.75777811
 C      7   6   4     1.517220576370   107.87011523   302.76938585
 O      9   7   6     1.209978956829   121.55569905    74.37661163
 O      9   7   6     1.315604327635   113.00019324   258.47643427
 C     11   9   7     1.441807471730   118.07474050   174.15804401
 C     12  11   9     1.519124086620   110.13652911   270.46168373
 S      7   6   4     1.820786574325   109.21481391   180.58449613
 P     14   7   6     2.123653367525    98.54302638   167.75700468
 S     15  14   7     1.961515528448   116.22093159    20.48849324
 O     15  14   7     1.599857930304   102.18653681   145.90375240
 C     17  15  14     1.431978905974   121.47851199   290.14131820
 O     15  14   7     1.577289218332   108.81536867   251.32419058
 C     19  15  14     1.444511650596   121.77131993   308.87174095
 H      1   2   3     1.087379853597   110.05773661    64.47087433
 H      1   2   3     1.084873419900   109.15357184   183.98581986
 H      1   2   3     1.086479187736   110.13402439   304.04864504
 H      2   1   3     1.093846065110   111.12287301   239.33167927
 H      2   1   3     1.090178154859   111.43015469   116.04473929
 H      6   4   3     1.089620142101   109.66214951   349.03221556
 H      6   4   3     1.090060926491   109.28677413   228.04056879
 H     12  11   9     1.093770988939   108.23239881    32.46677121
 H     12  11   9     1.090295281987   104.64083210   149.82494037
 H     13  12  11     1.088076090533   109.89759174    62.02074090
 H     13  12  11     1.084763516969   109.14196325   181.54934652
 H     13  12  11     1.086244932781   110.24625009   301.72068626
 H     18  17  15     1.086955600144   105.59460231   191.57092851
 H     18  17  15     1.089876078779   109.86138717    72.18141801
 H     18  17  15     1.091128483537   110.17016926   310.79737950
 H     20  19  15     1.086719695180   105.15395330   174.75737341
 H     20  19  15     1.089839946773   109.83044845    55.34869584
 H     20  19  15     1.087862292381   109.80567186   294.06514787

---------------------------
INTERNAL COORDINATES (A.U.)
---------------------------
 C      0   0   0     0.000000000000     0.00000000     0.00000000
 C      1   0   0     2.872648394335     0.00000000     0.00000000
 O      2   1   0     2.723196129245   111.29273703     0.00000000
 C      3   2   1     2.493562358459   118.16510736   277.70753367
 O      4   3   2     2.284900816446   124.97932929     0.87883105
 C      4   3   2     2.873171516643   111.14862451   181.50674775
 C      6   4   3     2.896269766632   108.10961409   109.44904178
 H      7   6   4     2.066694720540   109.88390357    60.75777811
 C      7   6   4     2.867131374089   107.87011523   302.76938585
 O      9   7   6     2.286528856214   121.55569905    74.37661163
 O      9   7   6     2.486131879831   113.00019324   258.47643427
 C     11   9   7     2.724621259412   118.07474050   174.15804401
 C     12  11   9     2.870728487156   110.13652911   270.46168373
 S      7   6   4     3.440787973795   109.21481391   180.58449613
 P     14   7   6     4.013123268002    98.54302638   167.75700468
 S     15  14   7     3.706727156200   116.22093159    20.48849324
 O     15  14   7     3.023293341456   102.18653681   145.90375240
 C     17  15  14     2.706047961844   121.47851199   290.14131820
 O     15  14   7     2.980644656634   108.81536867   251.32419058
 C     19  15  14     2.729731416885   121.77131993   308.87174095
 H      1   2   3     2.054850126842   110.05773661    64.47087433
 H      1   2   3     2.050113653581   109.15357184   183.98581986
 H      1   2   3     2.053148115026   110.13402439   304.04864504
 H      2   1   3     2.067069495726   111.12287301   239.33167927
 H      2   1   3     2.060138149867   111.43015469   116.04473929
 H      6   4   3     2.059083658575   109.66214951   349.03221556
 H      6   4   3     2.059916620356   109.28677413   228.04056879
 H     12  11   9     2.066927622323   108.23239881    32.46677121
 H     12  11   9     2.060359488063   104.64083210   149.82494037
 H     13  12  11     2.056165823976   109.89759174    62.02074090
 H     13  12  11     2.049905967140   109.14196325   181.54934652
 H     13  12  11     2.052705437316   110.24625009   301.72068626
 H     18  17  15     2.054048404005   105.59460231   191.57092851
 H     18  17  15     2.059567308805   109.86138717    72.18141801
 H     18  17  15     2.061934010805   110.17016926   310.79737950
 H     20  19  15     2.053602608228   105.15395330   174.75737341
 H     20  19  15     2.059499029208   109.83044845    55.34869584
 H     20  19  15     2.055761804020   109.80567186   294.06514787

---------------------
BASIS SET INFORMATION
---------------------
There are 5 groups of distinct atoms

 Group   1 Type C   : 11s6p1d contracted to 5s3p1d pattern {62111/411/1}
 Group   2 Type O   : 11s6p2d contracted to 5s3p2d pattern {62111/411/11}
 Group   3 Type H   : 4s1p contracted to 2s1p pattern {31/1}
 Group   4 Type S   : 14s9p2d contracted to 5s4p2d pattern {73211/6111/11}
 Group   5 Type P   : 14s9p2d contracted to 5s4p2d pattern {73211/6111/11}

Atom   0C    basis set group =>   1
Atom   1C    basis set group =>   1
Atom   2O    basis set group =>   2
Atom   3C    basis set group =>   1
Atom   4O    basis set group =>   2
Atom   5C    basis set group =>   1
Atom   6C    basis set group =>   1
Atom   7H    basis set group =>   3
Atom   8C    basis set group =>   1
Atom   9O    basis set group =>   2
Atom  10O    basis set group =>   2
Atom  11C    basis set group =>   1
Atom  12C    basis set group =>   1
Atom  13S    basis set group =>   4
Atom  14P    basis set group =>   5
Atom  15S    basis set group =>   4
Atom  16O    basis set group =>   2
Atom  17C    basis set group =>   1
Atom  18O    basis set group =>   2
Atom  19C    basis set group =>   1
Atom  20H    basis set group =>   3
Atom  21H    basis set group =>   3
Atom  22H    basis set group =>   3
Atom  23H    basis set group =>   3
Atom  24H    basis set group =>   3
Atom  25H    basis set group =>   3
Atom  26H    basis set group =>   3
Atom  27H    basis set group =>   3
Atom  28H    basis set group =>   3
Atom  29H    basis set group =>   3
Atom  30H    basis set group =>   3
Atom  31H    basis set group =>   3
Atom  32H    basis set group =>   3
Atom  33H    basis set group =>   3
Atom  34H    basis set group =>   3
Atom  35H    basis set group =>   3
Atom  36H    basis set group =>   3
Atom  37H    basis set group =>   3
---------------------------------
AUXILIARY/J BASIS SET INFORMATION
---------------------------------
There are 5 groups of distinct atoms

 Group   1 Type C   : 12s5p4d2f1g contracted to 6s4p3d1f1g pattern {711111/2111/211/2/1}
 Group   2 Type O   : 12s5p4d2f1g contracted to 6s4p3d1f1g pattern {711111/2111/211/2/1}
 Group   3 Type H   : 5s2p1d contracted to 3s1p1d pattern {311/2/1}
 Group   4 Type S   : 14s5p5d2f1g contracted to 8s4p3d1f1g pattern {71111111/2111/311/2/1}
 Group   5 Type P   : 14s5p5d2f1g contracted to 8s4p3d1f1g pattern {71111111/2111/311/2/1}

Atom   0C    basis set group =>   1
Atom   1C    basis set group =>   1
Atom   2O    basis set group =>   2
Atom   3C    basis set group =>   1
Atom   4O    basis set group =>   2
Atom   5C    basis set group =>   1
Atom   6C    basis set group =>   1
Atom   7H    basis set group =>   3
Atom   8C    basis set group =>   1
Atom   9O    basis set group =>   2
Atom  10O    basis set group =>   2
Atom  11C    basis set group =>   1
Atom  12C    basis set group =>   1
Atom  13S    basis set group =>   4
Atom  14P    basis set group =>   5
Atom  15S    basis set group =>   4
Atom  16O    basis set group =>   2
Atom  17C    basis set group =>   1
Atom  18O    basis set group =>   2
Atom  19C    basis set group =>   1
Atom  20H    basis set group =>   3
Atom  21H    basis set group =>   3
Atom  22H    basis set group =>   3
Atom  23H    basis set group =>   3
Atom  24H    basis set group =>   3
Atom  25H    basis set group =>   3
Atom  26H    basis set group =>   3
Atom  27H    basis set group =>   3
Atom  28H    basis set group =>   3
Atom  29H    basis set group =>   3
Atom  30H    basis set group =>   3
Atom  31H    basis set group =>   3
Atom  32H    basis set group =>   3
Atom  33H    basis set group =>   3
Atom  34H    basis set group =>   3
Atom  35H    basis set group =>   3
Atom  36H    basis set group =>   3
Atom  37H    basis set group =>   3

Checking for AutoStart:
The File: sp_gas.gbw exists
Trying to determine its content:
     ... Fine, the file contains calculation information
     ... Fine, the calculation information was read
     ... Fine, the file contains a basis set
     ... Fine, the basis set was read
     ... Fine, the file contains a geometry
     ... Fine, the geometry was read
     ... Fine, the file contains a set of orbitals
     ... Fine, the orbitals can be read
     => possible old guess file was deleted
     => GBW file was renamed to GES file
     => GES file is set as startup file
     => Guess is set to MORead
     ... now leaving AutoStart

------------------------------------------------------------------------------
                             ORCA STARTUP CALCULATIONS
                           -- RI-GTO INTEGRALS CHOSEN --
------------------------------------------------------------------------------
------------------------------------------------------------------------------
                   ___                                                        
                  /   \      - P O W E R E D   B Y -                         
                 /     \                                                     
                 |  |  |   _    _      __       _____    __    __             
                 |  |  |  | |  | |    /  \     |  _  \  |  |  /  |          
                  \  \/   | |  | |   /    \    | | | |  |  | /  /          
                 / \  \   | |__| |  /  /\  \   | |_| |  |  |/  /          
                |  |  |   |  __  | /  /__\  \  |    /   |      \           
                |  |  |   | |  | | |   __   |  |    \   |  |\   \          
                \     /   | |  | | |  |  |  |  | |\  \  |  | \   \       
                 \___/    |_|  |_| |__|  |__|  |_| \__\ |__|  \__/        
                                                                              
                      - O R C A' S   B I G   F R I E N D -                    
                                      &                                       
                       - I N T E G R A L  F E E D E R -                       
                                                                              
 v1 FN, 2020, v2 2021, v3 2022-2024                                           
------------------------------------------------------------------------------


----------------------
SHARK INTEGRAL PACKAGE
----------------------

Number of atoms                             ...     38
Number of basis functions                   ...    510
Number of shells                            ...    240
Maximum angular momentum                    ...      2
Integral batch strategy                     ... SHARK/LIBINT Hybrid
RI-J (if used) integral strategy            ... SPLIT-RIJ (Revised 2003 algorithm where possible)
Printlevel                                  ...      1
Contraction scheme used                     ... SEGMENTED contraction
Prescreening option                         ... SCHWARTZ
   Thresh                                   ... 1.000e-10
   Tcut                                     ... 1.000e-11
   Tpresel                                  ... 1.000e-11 
Coulomb Range Separation                    ... NOT USED
Exchange Range Separation                   ... NOT USED
Multipole approximations                    ... NOT USED
Finite Nucleus Model                        ... NOT USED
CABS basis                                  ... NOT available
Auxiliary Coulomb fitting basis             ... AVAILABLE
   # of basis functions in Aux-J            ...   1146
   # of shells in Aux-J                     ...    386
   Maximum angular momentum in Aux-J        ...      4
Auxiliary J/K fitting basis                 ... NOT available
Auxiliary Correlation fitting basis         ... NOT available
Auxiliary 'external' fitting basis          ... NOT available

Checking pre-screening integrals            ... done (  0.0 sec) Dimension = 240
Check shell pair data                       ... done (  0.0 sec)
Shell pair information
Shell pair cut-off parameter TPreSel        ...   1.0e-11
Total number of shell pairs                 ...     28920
Shell pairs after pre-screening             ...     19879
Total number of primitive shell pairs       ...    108409
Primitive shell pairs kept                  ...     46030
          la=0 lb=0:   5725 shell pairs
          la=1 lb=0:   7197 shell pairs
          la=1 lb=1:   2306 shell pairs
          la=2 lb=0:   2659 shell pairs
          la=2 lb=1:   1668 shell pairs
          la=2 lb=2:    324 shell pairs

Calculating one electron integrals          ... done (  0.1 sec)
Calculating RI/J V-Matrix + Cholesky decomp.... done (  0.1 sec)
Calculating Nuclear repulsion               ... done (  0.0 sec) ENN=   2162.462852163238 Eh

Diagonalization of the overlap matrix:
Smallest eigenvalue                        ... 5.567e-05
Time for diagonalization                   ...    0.035 sec
Threshold for overlap eigenvalues          ... 1.000e-07
Number of eigenvalues below threshold      ... 0
Time for construction of square roots      ...    0.018 sec
Total time needed                          ...    0.054 sec

-------------------
DFT GRID GENERATION
-------------------

General Integration Accuracy     IntAcc      ... 4.388
Radial Grid Type                 RadialGrid  ... OptM3 with GC (2021)
Angular Grid (max. ang.)         AngularGrid ... 4 (Lebedev-302)
Angular grid pruning method      GridPruning ... 4 (adaptive)
Weight generation scheme         WeightScheme... mBecke (2022)
Basis function cutoff            BFCut       ... 1.0000e-10
Integration weight cutoff        WCut        ... 1.0000e-14
Partially contracted basis set               ... off
Rotationally invariant grid construction     ... off
Angular grids for H and He will be reduced by one unit
Diffuse basis detected: some atoms will have their outermost
                        angular grid increased by 1.

Total number of grid points                  ...   180158
Total number of batches                      ...     2832
Average number of points per batch           ...       63
Average number of grid points per atom       ...     4741
Initializing property integral containers    ... done (  0.0 sec)

SHARK setup successfully completed in   2.7 seconds

Maximum memory used throughout the entire STARTUP-calculation: 98.1 MB
-------------------------------------------------------------------------------
                                 ORCA GUESS
                   Start orbitals & Density for SCF / CASSCF
-------------------------------------------------------------------------------

------------
SCF SETTINGS
------------
Hamiltonian:
 Density Functional     Method          .... DFT(GTOs)
  Functional kind                       .... Exchange
  Functional name                       .... Re-regularized SCAN exchange by Furness et al
  Functional family                     .... MGGA
  Functional refs                              
    [ 0] J. W. Furness, A. D. Kaplan, J. Ning, J. P. Perdew, and J. Sun.,  J. Phys. Chem. Lett. 11, 8208-8215 (2020), doi: 10.1021/acs.jpclett.0c02405
    [ 1] J. W. Furness, A. D. Kaplan, J. Ning, J. P. Perdew, and J. Sun.,  J. Phys. Chem. Lett. 11, 9248-9248 (2020), doi: 10.1021/acs.jpclett.0c03077
  Functional external parameters        .... 6
    Parameter  0 _c1        =  6.670000e-01 : c1 parameter        
    Parameter  1 _c2        =  8.000000e-01 : c2 parameter        
    Parameter  2 _d         =  1.240000e+00 : d parameter         
    Parameter  3 _k1        =  6.500000e-02 : k1 parameter        
    Parameter  4 _eta       =  1.000000e-03 : eta parameter       
    Parameter  5 _dp2       =  3.610000e-01 : dp2 parameter       
  Functional kind                       .... Correlation
  Functional name                       .... Re-regularized SCAN correlation by Furness et al
  Functional family                     .... MGGA
  Functional refs                              
    [ 0] J. W. Furness, A. D. Kaplan, J. Ning, J. P. Perdew, and J. Sun.,  J. Phys. Chem. Lett. 11, 8208-8215 (2020), doi: 10.1021/acs.jpclett.0c02405
    [ 1] J. W. Furness, A. D. Kaplan, J. Ning, J. P. Perdew, and J. Sun.,  J. Phys. Chem. Lett. 11, 9248-9248 (2020), doi: 10.1021/acs.jpclett.0c03077
  Functional external parameters        .... 1
    Parameter  0 _eta       =  1.000000e-03 : Regularization parameter
 Gradients option       PostSCFGGA      .... off
 RI-approximation to the Coulomb term is turned on
   Number of AuxJ basis functions       .... 1146


General Settings:
 Integral files         IntName         .... sp_gas
 Hartree-Fock type      HFTyp           .... RHF
 Total Charge           Charge          ....    0
 Multiplicity           Mult            ....    1
 Number of Electrons    NEL             ....  174
 Basis Dimension        Dim             ....  510
 Nuclear Repulsion      ENuc            ....   2162.4628521632 Eh

Convergence Acceleration:
 AO-DIIS                CNVDIIS         .... on
   Start iteration      DIISMaxIt       ....    12
   Startup error        DIISStart       ....  0.200000
   # of expansion vecs  DIISMaxEq       ....     5
   Bias factor          DIISBfac        ....   1.050
   Max. coefficient     DIISMaxC        ....  10.000
 MO-DIIS                CNVKDIIS        .... off
 Trust-Rad. Augm. Hess. CNVTRAH         .... auto
   Auto Start mean grad. ratio tolernc. ....  1.125000
   Auto Start start iteration           ....     1
   Auto Start num. interpolation iter.  ....    10
   Max. Number of Micro iterations      ....    24
   Max. Number of Macro iterations      .... Maxiter - #DIIS iter
   Number of Davidson start vectors     ....     2
   Converg. threshold    (grad. norm)   ....   3.330e-04
   Grad. Scal. Fac. for Micro threshold ....   0.100
   Minimum threshold for Micro iter.    ....   1.000e-02
   NR start threshold (gradient norm)   ....   1.000e-04
   Initial trust radius                 ....   0.400
   Minimum AH scaling param. (alpha)    ....   1.000
   Maximum AH scaling param. (alpha)    .... 1000.000
   Quad. conv. algorithm                .... NR
   White noise on init. David. guess    .... on
   Maximum white noise                  ....   0.010
   Pseudo random numbers                .... off
   Inactive MOs                         .... canonical
   Orbital update algorithm             .... Taylor
   Preconditioner                       .... Diag
   Full preconditioner red. dimension   ....   250
   COSX micro iterations for RIJONX calc.... off
 SOSCF                  CNVSOSCF        .... on
   Start iteration      SOSCFMaxIt      ....   150
   Startup grad/error   SOSCFStart      ....  0.003300
   Hessian update       SOSCFHessUp     .... L-BFGS
 Level Shifting         CNVShift        .... on
   Level shift para.    LevelShift      ....    0.2500
   Turn off err/grad.   ShiftErr        ....    0.0010
 Zerner damping         CNVZerner       .... off
 Static damping         CNVDamp         .... on
   Fraction old density DampFac         ....    0.7000
   Max. Damping (<1)    DampMax         ....    0.9800
   Min. Damping (>=0)   DampMin         ....    0.0000
   Turn off err/grad.   DampErr         ....    0.1000

SCF Procedure:
 Maximum # iterations   MaxIter         ....   125
 SCF integral mode      SCFMode         .... Direct
   Integral package                     .... SHARK and LIBINT hybrid scheme
 Reset frequency        DirectResetFreq ....    20
 Integral Threshold     Thresh          ....  1.000e-10 Eh
 Primitive CutOff       TCut            ....  1.000e-11 Eh

Convergence Tolerance:
 Convergence Check Mode ConvCheckMode   .... Total+1el-Energy
 Convergence forced     ConvForced      .... 0
 Energy Change          TolE            ....  1.000e-06 Eh
 1-El. energy change                    ....  1.000e-03 Eh
 Orbital Gradient       TolG            ....  3.330e-04
 Orbital Rotation angle TolX            ....  3.330e-04
 DIIS Error             TolErr          ....  1.000e-06

---------------------
INITIAL GUESS: MOREAD
---------------------
Guess MOs are being read from file: sp_gas.ges
Input Geometry matches current geometry (good)
Atom 0: N(Shells)= 9 and 6 - projection required
Input basis set needs projection
NBasis(read)= 316
NBasis(calc)= 510
Basis set overlap was calculated
Using GuessMode=FMatrix for the initial guess
C*T matrix was formed
Effective Fockian was calculated
Effective Fockian was diagonalized
Initial density was built
                      ------------------
                      INITIAL GUESS DONE (   0.1 sec)
                      ------------------
             **** ENERGY FILE WAS UPDATED (sp_gas.en.tmp) ****
Finished Guess after   0.2 sec
Maximum memory used throughout the entire GUESS-calculation: 57.1 MB

-------------------------------------------------------------------------------------------
                                      ORCA LEAN-SCF
                              memory conserving SCF solver
-------------------------------------------------------------------------------------------

----------------------------------------D-I-I-S--------------------------------------------
Iteration    Energy (Eh)           Delta-E    RMSDP     MaxDP     DIISErr   Damp  Time(sec)
-------------------------------------------------------------------------------------------
               ***  Starting incremental Fock matrix formation  ***
    1    -1980.9758270854817965     0.00e+00  4.02e-03  5.59e-01  6.34e-01  0.700   8.4
    2    -1981.1229294647500865    -1.47e-01  3.03e-03  3.67e-01  4.45e-01  0.700   7.1
    3    -1981.2268156047521188    -1.04e-01  2.16e-03  2.48e-01  3.12e-01  0.700   7.0
    4    -1981.2997123281083987    -7.29e-02  1.53e-03  1.70e-01  2.19e-01  0.700   6.9
                               ***Turning on AO-DIIS***
    5    -1981.3508238361000622    -5.11e-02  1.08e-03  1.17e-01  1.53e-01  0.700   6.8
    6    -1981.3866391726587608    -3.58e-02  7.63e-04  8.12e-02  1.07e-01  0.700   6.6
    7    -1981.4117411840124987    -2.51e-02  5.36e-04  5.67e-02  7.50e-02  0.700   6.6
    8    -1981.4293254423791950    -1.76e-02  1.25e-03  1.31e-01  5.25e-02  0.000   6.4
                              *** Initializing SOSCF ***
---------------------------------------S-O-S-C-F--------------------------------------
Iteration    Energy (Eh)           Delta-E    RMSDP     MaxDP     MaxGrad    Time(sec)
--------------------------------------------------------------------------------------
    9    -1981.4703987149714521    -4.11e-02  5.27e-06  2.57e-04  1.29e-04     6.8
               *** Restarting incremental Fock matrix formation ***
   10    -1981.4703990905054525    -3.76e-07  4.64e-06  2.58e-04  2.37e-05     8.4
                  *** Gradient check signals convergence ***

               *****************************************************
               *                     SUCCESS                       *
               *           SCF CONVERGED AFTER  10 CYCLES          *
               *****************************************************

             **** ENERGY FILE WAS UPDATED (sp_gas.en.tmp) ****

----------------
TOTAL SCF ENERGY
----------------

Total Energy       :      -1981.47039909050545 Eh          -53918.55073 eV

Components:
Nuclear Repulsion  :       2162.46285216323849 Eh           58843.60576 eV
Electronic Energy  :      -4143.93325125374395 Eh         -112762.15648 eV
One Electron Energy:      -7030.73778237288207 Eh         -191316.10138 eV
Two Electron Energy:       2886.80453111913766 Eh           78553.94490 eV

Virial components:
Potential Energy   :      -3956.60594968777150 Eh         -107664.72146 eV
Kinetic Energy     :       1975.13555059726605 Eh           53746.17073 eV
Virial Ratio       :          2.00320729809725

DFT components:
N(Alpha)           :       86.999991301044 electrons
N(Beta)            :       86.999991301044 electrons
N(Total)           :      173.999982602088 electrons
E(X)               :     -181.410294476083 Eh       
E(C)               :       -5.971122812866 Eh       
E(XC)              :     -187.381417288949 Eh       

---------------
SCF CONVERGENCE
---------------

  Last Energy change         ...    3.7553e-07  Tolerance :   1.0000e-06
  Last MAX-Density change    ...    2.5801e-04  Tolerance :   1.0000e-05
  Last RMS-Density change    ...    4.6431e-06  Tolerance :   1.0000e-06
  Last DIIS Error            ...    1.2904e-04  Tolerance :   1.0000e-06
  Last Orbital Gradient      ...    2.3749e-05  Tolerance :   3.3300e-04
  Last Orbital Rotation      ...    8.0063e-05  Tolerance :   3.3300e-04


----------------
ORBITAL ENERGIES
----------------

  NO   OCC          E(Eh)            E(eV) 
   0   2.0000     -88.577669     -2410.3209 
   1   2.0000     -88.519813     -2408.7466 
   2   2.0000     -76.916461     -2093.0033 
   3   2.0000     -19.003638      -517.1153 
   4   2.0000     -18.999148      -516.9931 
   5   2.0000     -18.998473      -516.9747 
   6   2.0000     -18.994681      -516.8716 
   7   2.0000     -18.933938      -515.2187 
   8   2.0000     -18.929235      -515.0907 
   9   2.0000     -10.162666      -276.5402 
  10   2.0000     -10.157955      -276.4120 
  11   2.0000     -10.102648      -274.9070 
  12   2.0000     -10.097923      -274.7784 
  13   2.0000     -10.094000      -274.6717 
  14   2.0000     -10.092774      -274.6383 
  15   2.0000     -10.089945      -274.5614 
  16   2.0000     -10.064945      -273.8811 
  17   2.0000     -10.032375      -272.9948 
  18   2.0000     -10.027184      -272.8535 
  19   2.0000      -7.872120      -214.2113 
  20   2.0000      -7.814286      -212.6375 
  21   2.0000      -6.594778      -179.4530 
  22   2.0000      -5.818920      -158.3409 
  23   2.0000      -5.815941      -158.2598 
  24   2.0000      -5.809325      -158.0798 
  25   2.0000      -5.762204      -156.7976 
  26   2.0000      -5.754401      -156.5852 
  27   2.0000      -5.754247      -156.5810 
  28   2.0000      -4.740494      -128.9954 
  29   2.0000      -4.739874      -128.9785 
  30   2.0000      -4.738194      -128.9328 
  31   2.0000      -1.082978       -29.4693 
  32   2.0000      -1.074478       -29.2380 
  33   2.0000      -1.054855       -28.7041 
  34   2.0000      -1.012655       -27.5558 
  35   2.0000      -0.985344       -26.8126 
  36   2.0000      -0.979260       -26.6470 
  37   2.0000      -0.814624       -22.1671 
  38   2.0000      -0.754488       -20.5307 
  39   2.0000      -0.742884       -20.2149 
  40   2.0000      -0.734112       -19.9762 
  41   2.0000      -0.699986       -19.0476 
  42   2.0000      -0.680092       -18.5063 
  43   2.0000      -0.659462       -17.9449 
  44   2.0000      -0.650495       -17.7009 
  45   2.0000      -0.630113       -17.1462 
  46   2.0000      -0.600514       -16.3408 
  47   2.0000      -0.545386       -14.8407 
  48   2.0000      -0.528615       -14.3844 
  49   2.0000      -0.524928       -14.2840 
  50   2.0000      -0.499327       -13.5874 
  51   2.0000      -0.495605       -13.4861 
  52   2.0000      -0.483822       -13.1655 
  53   2.0000      -0.469179       -12.7670 
  54   2.0000      -0.458567       -12.4783 
  55   2.0000      -0.455078       -12.3833 
  56   2.0000      -0.445634       -12.1263 
  57   2.0000      -0.443358       -12.0644 
  58   2.0000      -0.436959       -11.8903 
  59   2.0000      -0.426448       -11.6042 
  60   2.0000      -0.422969       -11.5096 
  61   2.0000      -0.419685       -11.4202 
  62   2.0000      -0.414640       -11.2829 
  63   2.0000      -0.402632       -10.9562 
  64   2.0000      -0.396031       -10.7765 
  65   2.0000      -0.383834       -10.4447 
  66   2.0000      -0.374389       -10.1876 
  67   2.0000      -0.368643       -10.0313 
  68   2.0000      -0.361877        -9.8472 
  69   2.0000      -0.351128        -9.5547 
  70   2.0000      -0.347993        -9.4694 
  71   2.0000      -0.345834        -9.4106 
  72   2.0000      -0.338747        -9.2178 
  73   2.0000      -0.334360        -9.0984 
  74   2.0000      -0.326339        -8.8801 
  75   2.0000      -0.320456        -8.7201 
  76   2.0000      -0.312989        -8.5169 
  77   2.0000      -0.307643        -8.3714 
  78   2.0000      -0.292884        -7.9698 
  79   2.0000      -0.281574        -7.6620 
  80   2.0000      -0.277195        -7.5429 
  81   2.0000      -0.271059        -7.3759 
  82   2.0000      -0.253778        -6.9057 
  83   2.0000      -0.239302        -6.5117 
  84   2.0000      -0.229804        -6.2533 
  85   2.0000      -0.217538        -5.9195 
  86   2.0000      -0.216419        -5.8891 
  87   0.0000      -0.044566        -1.2127 
  88   0.0000      -0.028311        -0.7704 
  89   0.0000      -0.019726        -0.5368 
  90   0.0000       0.007784         0.2118 
  91   0.0000       0.016539         0.4500 
  92   0.0000       0.037342         1.0161 
  93   0.0000       0.057495         1.5645 
  94   0.0000       0.066328         1.8049 
  95   0.0000       0.075915         2.0657 
  96   0.0000       0.086656         2.3580 
  97   0.0000       0.088799         2.4163 
*Only the first 10 virtual orbitals were printed.

                    ********************************
                    * MULLIKEN POPULATION ANALYSIS *
                    ********************************

-----------------------
MULLIKEN ATOMIC CHARGES
-----------------------
   0 C :   -0.476306
   1 C :   -0.137019
   2 O :   -0.159056
   3 C :    0.312232
   4 O :   -0.390182
   5 C :   -0.357192
   6 C :   -0.054648
   7 H :    0.253817
   8 C :    0.282375
   9 O :   -0.374117
  10 O :   -0.137832
  11 C :   -0.154415
  12 C :   -0.468263
  13 S :   -0.210470
  14 P :    0.762134
  15 S :   -0.408940
  16 O :   -0.357656
  17 C :   -0.295343
  18 O :   -0.309101
  19 C :   -0.289593
  20 H :    0.178709
  21 H :    0.148327
  22 H :    0.149533
  23 H :    0.179743
  24 H :    0.147239
  25 H :    0.188886
  26 H :    0.178985
  27 H :    0.182534
  28 H :    0.160638
  29 H :    0.169517
  30 H :    0.150700
  31 H :    0.151290
  32 H :    0.152463
  33 H :    0.158792
  34 H :    0.175978
  35 H :    0.155896
  36 H :    0.170153
  37 H :    0.170191
Sum of atomic charges:   -0.0000000

--------------------------------
MULLIKEN REDUCED ORBITAL CHARGES
--------------------------------
  0 C s       :     3.328865  s :     3.328865
      pz      :     1.076440  p :     3.121788
      px      :     1.045383
      py      :     0.999964
      dz2     :     0.004215  d :     0.025654
      dxz     :     0.003695
      dyz     :     0.007683
      dx2y2   :     0.004459
      dxy     :     0.005602

  1 C s       :     3.256511  s :     3.256511
      pz      :     1.081768  p :     2.827426
      px      :     0.759959
      py      :     0.985699
      dz2     :     0.006973  d :     0.053082
      dxz     :     0.010735
      dyz     :     0.010046
      dx2y2   :     0.012604
      dxy     :     0.012724

  2 O s       :     3.699515  s :     3.699515
      pz      :     1.591004  p :     4.430726
      px      :     1.154433
      py      :     1.685289
      dz2     :     0.007789  d :     0.028815
      dxz     :     0.004224
      dyz     :     0.010014
      dx2y2   :    -0.000854
      dxy     :     0.007643

  3 C s       :     3.196233  s :     3.196233
      pz      :     0.749678  p :     2.364546
      px      :     0.841959
      py      :     0.772910
      dz2     :     0.030141  d :     0.126989
      dxz     :     0.050370
      dyz     :     0.026661
      dx2y2   :     0.008641
      dxy     :     0.011176

  4 O s       :     3.836645  s :     3.836645
      pz      :     1.309824  p :     4.532930
      px      :     1.770347
      py      :     1.452759
      dz2     :     0.010159  d :     0.020606
      dxz     :    -0.000317
      dyz     :     0.007926
      dx2y2   :     0.002107
      dxy     :     0.000731

  5 C s       :     3.268868  s :     3.268868
      pz      :     1.094763  p :     3.054040
      px      :     0.983291
      py      :     0.975986
      dz2     :     0.006348  d :     0.034284
      dxz     :     0.005976
      dyz     :     0.007002
      dx2y2   :     0.006402
      dxy     :     0.008557

  6 C s       :     3.075239  s :     3.075239
      pz      :     1.091136  p :     2.935013
      px      :     0.851257
      py      :     0.992620
      dz2     :     0.008401  d :     0.044396
      dxz     :     0.007644
      dyz     :     0.009097
      dx2y2   :     0.008380
      dxy     :     0.010874

  7 H s       :     0.728309  s :     0.728309
      pz      :     0.010748  p :     0.017874
      px      :     0.003138
      py      :     0.003988

  8 C s       :     3.237171  s :     3.237171
      pz      :     0.787917  p :     2.352387
      px      :     0.737889
      py      :     0.826581
      dz2     :     0.033821  d :     0.128067
      dxz     :     0.031367
      dyz     :     0.024407
      dx2y2   :     0.020372
      dxy     :     0.018100

  9 O s       :     3.847320  s :     3.847320
      pz      :     1.684420  p :     4.504678
      px      :     1.347948
      py      :     1.472311
      dz2     :     0.001499  d :     0.022119
      dxz     :     0.005599
      dyz     :     0.003437
      dx2y2   :     0.006770
      dxy     :     0.004813

 10 O s       :     3.691592  s :     3.691592
      pz      :     1.190046  p :     4.408113
      px      :     1.639367
      py      :     1.578700
      dz2     :    -0.002960  d :     0.038126
      dxz     :     0.008445
      dyz     :     0.006788
      dx2y2   :     0.012488
      dxy     :     0.013366

 11 C s       :     3.264054  s :     3.264054
      pz      :     0.944420  p :     2.837648
      px      :     0.981698
      py      :     0.911530
      dz2     :     0.005664  d :     0.052714
      dxz     :     0.013658
      dyz     :     0.013928
      dx2y2   :     0.009416
      dxy     :     0.010049

 12 C s       :     3.330759  s :     3.330759
      pz      :     1.053713  p :     3.111771
      px      :     0.997105
      py      :     1.060953
      dz2     :     0.001398  d :     0.025734
      dxz     :     0.007416
      dyz     :     0.007409
      dx2y2   :     0.004406
      dxy     :     0.005104

 13 S s       :     5.917842  s :     5.917842
      pz      :     3.714917  p :    10.194425
      px      :     3.154950
      py      :     3.324558
      dz2     :     0.015944  d :     0.098203
      dxz     :     0.014178
      dyz     :     0.012678
      dx2y2   :     0.025615
      dxy     :     0.029788

 14 P s       :     5.116216  s :     5.116216
      pz      :     2.787704  p :     8.401093
      px      :     2.779830
      py      :     2.833559
      dz2     :     0.176198  d :     0.720557
      dxz     :     0.122520
      dyz     :     0.122192
      dx2y2   :     0.160643
      dxy     :     0.139004

 15 S s       :     5.912910  s :     5.912910
      pz      :     3.508113  p :    10.432142
      px      :     3.609923
      py      :     3.314106
      dz2     :     0.008432  d :     0.063889
      dxz     :     0.007592
      dyz     :     0.021095
      dx2y2   :     0.014317
      dxy     :     0.012453

 16 O s       :     3.764493  s :     3.764493
      pz      :     1.410230  p :     4.570096
      px      :     1.386540
      py      :     1.773325
      dz2     :     0.009868  d :     0.023067
      dxz     :    -0.000935
      dyz     :     0.002435
      dx2y2   :     0.011575
      dxy     :     0.000125

 17 C s       :     3.330500  s :     3.330500
      pz      :     0.766580  p :     2.920594
      px      :     1.062289
      py      :     1.091725
      dz2     :     0.013098  d :     0.044249
      dxz     :     0.007806
      dyz     :     0.012494
      dx2y2   :     0.008177
      dxy     :     0.002675

 18 O s       :     3.747501  s :     3.747501
      pz      :     1.176115  p :     4.546952
      px      :     1.758868
      py      :     1.611970
      dz2     :     0.005508  d :     0.014648
      dxz     :    -0.001387
      dyz     :    -0.001324
      dx2y2   :     0.006046
      dxy     :     0.005805

 19 C s       :     3.327543  s :     3.327543
      pz      :     0.906216  p :     2.919072
      px      :     1.064803
      py      :     0.948052
      dz2     :     0.010473  d :     0.042978
      dxz     :     0.005272
      dyz     :     0.010189
      dx2y2   :     0.009500
      dxy     :     0.007545

 20 H s       :     0.803049  s :     0.803049
      pz      :     0.009097  p :     0.018242
      px      :     0.004950
      py      :     0.004195

 21 H s       :     0.833182  s :     0.833182
      pz      :     0.004118  p :     0.018491
      px      :     0.009959
      py      :     0.004414

 22 H s       :     0.832259  s :     0.832259
      pz      :     0.006422  p :     0.018208
      px      :     0.003624
      py      :     0.008162

 23 H s       :     0.802509  s :     0.802509
      pz      :     0.007134  p :     0.017749
      px      :     0.002527
      py      :     0.008089

 24 H s       :     0.835358  s :     0.835358
      pz      :     0.009014  p :     0.017403
      px      :     0.003901
      py      :     0.004489

 25 H s       :     0.793399  s :     0.793399
      pz      :     0.010296  p :     0.017715
      px      :     0.003338
      py      :     0.004082

 26 H s       :     0.803034  s :     0.803034
      pz      :     0.005832  p :     0.017981
      px      :     0.004348
      py      :     0.007801

 27 H s       :     0.799502  s :     0.799502
      pz      :     0.005781  p :     0.017964
      px      :     0.004052
      py      :     0.008131

 28 H s       :     0.821868  s :     0.821868
      pz      :     0.005993  p :     0.017494
      px      :     0.007787
      py      :     0.003714

 29 H s       :     0.812263  s :     0.812263
      pz      :     0.006732  p :     0.018220
      px      :     0.007294
      py      :     0.004194

 30 H s       :     0.830830  s :     0.830830
      pz      :     0.006713  p :     0.018471
      px      :     0.004966
      py      :     0.006792

 31 H s       :     0.830489  s :     0.830489
      pz      :     0.005584  p :     0.018221
      px      :     0.004202
      py      :     0.008436

 32 H s       :     0.829821  s :     0.829821
      pz      :     0.002388  p :     0.017716
      px      :     0.011680
      py      :     0.003648

 33 H s       :     0.823344  s :     0.823344
      pz      :     0.003074  p :     0.017863
      px      :     0.004254
      py      :     0.010535

 34 H s       :     0.805966  s :     0.805966
      pz      :     0.006444  p :     0.018055
      px      :     0.004363
      py      :     0.007248

 35 H s       :     0.826406  s :     0.826406
      pz      :     0.009708  p :     0.017698
      px      :     0.003683
      py      :     0.004307

 36 H s       :     0.811737  s :     0.811737
      pz      :     0.003057  p :     0.018110
      px      :     0.005265
      py      :     0.009788

 37 H s       :     0.812056  s :     0.812056
      pz      :     0.003030  p :     0.017753
      px      :     0.011545
      py      :     0.003178


------------------------
MULLIKEN OVERLAP CHARGES
------------------------
B(  0-C ,  1-C ) :   0.5074 B(  0-C ,  2-O ) :  -0.1146 B(  0-C , 20-H ) :   0.8497 
B(  0-C , 21-H ) :   0.7994 B(  0-C , 22-H ) :   0.8193 B(  0-C , 23-H ) :  -0.0903 
B(  0-C , 24-H ) :  -0.0519 B(  1-C ,  2-O ) :   0.3413 B(  1-C ,  3-C ) :  -0.2568 
B(  1-C , 20-H ) :  -0.0929 B(  1-C , 21-H ) :  -0.0682 B(  1-C , 22-H ) :  -0.0615 
B(  1-C , 23-H ) :   0.8810 B(  1-C , 24-H ) :   0.7892 B(  2-O ,  3-C ) :   0.2346 
B(  2-O ,  4-O ) :  -0.2040 B(  2-O , 23-H ) :  -0.0638 B(  2-O , 24-H ) :  -0.0899 
B(  3-C ,  4-O ) :   0.9071 B(  3-C ,  5-C ) :  -0.1894 B(  3-C ,  8-C ) :   0.1069 
B(  3-C ,  9-O ) :   0.1120 B(  3-C , 25-H ) :  -0.1725 B(  4-O ,  5-C ) :  -0.0986 
B(  4-O ,  6-C ) :   0.0774 B(  5-C ,  6-C ) :   0.2684 B(  5-C ,  8-C ) :  -0.1182 
B(  5-C ,  9-O ) :  -0.0563 B(  5-C , 13-S ) :  -0.0953 B(  5-C , 25-H ) :   0.9206 
B(  5-C , 26-H ) :   0.7509 B(  6-C ,  7-H ) :   0.9379 B(  6-C ,  8-C ) :   0.0993 
B(  6-C ,  9-O ) :  -0.1511 B(  6-C , 10-O ) :  -0.1089 B(  6-C , 13-S ) :   0.3548 
B(  6-C , 14-P ) :  -0.0826 B(  6-C , 26-H ) :  -0.0802 B(  7-H ,  8-C ) :  -0.1467 
B(  7-H , 13-S ) :  -0.0759 B(  8-C ,  9-O ) :   0.8673 B(  8-C , 10-O ) :   0.1556 
B(  8-C , 11-C ) :  -0.2361 B(  8-C , 13-S ) :  -0.1242 B(  8-C , 15-S ) :   0.0677 
B(  8-C , 27-H ) :  -0.0561 B(  9-O , 10-O ) :  -0.1728 B( 10-O , 11-C ) :   0.2749 
B( 10-O , 12-C ) :  -0.0989 B( 10-O , 28-H ) :  -0.0910 B( 11-C , 12-C ) :   0.4843 
B( 11-C , 27-H ) :   0.8553 B( 11-C , 28-H ) :   0.8003 B( 11-C , 29-H ) :  -0.0830 
B( 11-C , 30-H ) :  -0.0817 B( 11-C , 31-H ) :  -0.0650 B( 12-C , 27-H ) :  -0.0662 
B( 12-C , 28-H ) :  -0.0583 B( 12-C , 29-H ) :   0.8366 B( 12-C , 30-H ) :   0.8122 
B( 12-C , 31-H ) :   0.8328 B( 13-S , 14-P ) :   0.6206 B( 13-S , 15-S ) :  -0.1114 
B( 13-S , 16-O ) :  -0.0938 B( 13-S , 18-O ) :  -0.0834 B( 14-P , 15-S ) :   1.2649 
B( 14-P , 16-O ) :   0.4488 B( 14-P , 17-C ) :  -0.1654 B( 14-P , 18-O ) :   0.6555 
B( 14-P , 19-C ) :  -0.2040 B( 15-S , 16-O ) :  -0.0844 B( 15-S , 18-O ) :  -0.1021 
B( 16-O , 17-C ) :   0.3563 B( 16-O , 18-O ) :  -0.2199 B( 16-O , 32-H ) :  -0.0925 
B( 16-O , 33-H ) :  -0.0751 B( 16-O , 34-H ) :  -0.0843 B( 17-C , 32-H ) :   0.7981 
B( 17-C , 33-H ) :   0.8017 B( 17-C , 34-H ) :   0.8336 B( 18-O , 19-C ) :   0.3211 
B( 18-O , 35-H ) :  -0.0809 B( 18-O , 36-H ) :  -0.0847 B( 18-O , 37-H ) :  -0.0765 
B( 19-C , 35-H ) :   0.7847 B( 19-C , 36-H ) :   0.8210 B( 19-C , 37-H ) :   0.8173 
B( 33-H , 34-H ) :  -0.0600 B( 36-H , 37-H ) :  -0.0605 


                     *******************************
                     * LOEWDIN POPULATION ANALYSIS *
                     *******************************

----------------------
LOEWDIN ATOMIC CHARGES
----------------------
   0 C :   -0.390386
   1 C :    0.030203
   2 O :   -0.585470
   3 C :    0.351961
   4 O :   -0.411517
   5 C :   -0.201969
   6 C :   -0.193510
   7 H :    0.210067
   8 C :    0.327861
   9 O :   -0.405928
  10 O :   -0.623375
  11 C :    0.035505
  12 C :   -0.386869
  13 S :    0.188742
  14 P :    0.398261
  15 S :   -0.044934
  16 O :   -0.683268
  17 C :   -0.058270
  18 O :   -0.649688
  19 C :   -0.051409
  20 H :    0.167565
  21 H :    0.159712
  22 H :    0.156287
  23 H :    0.192683
  24 H :    0.178510
  25 H :    0.188268
  26 H :    0.187136
  27 H :    0.195793
  28 H :    0.183102
  29 H :    0.165777
  30 H :    0.159863
  31 H :    0.156654
  32 H :    0.177465
  33 H :    0.169404
  34 H :    0.177372
  35 H :    0.179406
  36 H :    0.173954
  37 H :    0.175042

-------------------------------
LOEWDIN REDUCED ORBITAL CHARGES
-------------------------------
  0 C s       :     2.973254  s :     2.973254
      pz      :     1.142641  p :     3.356676
      px      :     1.106485
      py      :     1.107550
      dz2     :     0.009589  d :     0.060456
      dxz     :     0.008463
      dyz     :     0.018497
      dx2y2   :     0.011092
      dxy     :     0.012815

  1 C s       :     2.870377  s :     2.870377
      pz      :     1.084796  p :     2.980456
      px      :     0.852239
      py      :     1.043421
      dz2     :     0.014068  d :     0.118963
      dxz     :     0.025604
      dyz     :     0.024341
      dx2y2   :     0.026344
      dxy     :     0.028605

  2 O s       :     3.458128  s :     3.458128
      pz      :     1.622877  p :     4.644826
      px      :     1.353695
      py      :     1.668254
      dz2     :     0.083294  d :     0.482517
      dxz     :     0.129778
      dyz     :     0.054029
      dx2y2   :     0.108086
      dxy     :     0.107329

  3 C s       :     2.732161  s :     2.732161
      pz      :     0.972523  p :     2.639006
      px      :     0.913640
      py      :     0.752843
      dz2     :     0.072899  d :     0.276872
      dxz     :     0.112993
      dyz     :     0.052122
      dx2y2   :     0.017835
      dxy     :     0.021023

  4 O s       :     3.543513  s :     3.543513
      pz      :     1.479393  p :     4.649598
      px      :     1.718258
      py      :     1.451946
      dz2     :     0.074042  d :     0.218406
      dxz     :     0.064916
      dyz     :     0.049639
      dx2y2   :     0.011523
      dxy     :     0.018286

  5 C s       :     2.921525  s :     2.921525
      pz      :     1.122248  p :     3.207037
      px      :     1.020121
      py      :     1.064668
      dz2     :     0.014749  d :     0.073407
      dxz     :     0.011854
      dyz     :     0.015808
      dx2y2   :     0.012031
      dxy     :     0.018965

  6 C s       :     2.920000  s :     2.920000
      pz      :     1.111351  p :     3.181705
      px      :     1.018954
      py      :     1.051400
      dz2     :     0.018805  d :     0.091806
      dxz     :     0.015249
      dyz     :     0.017461
      dx2y2   :     0.016213
      dxy     :     0.024077

  7 H s       :     0.743842  s :     0.743842
      pz      :     0.028617  p :     0.046091
      px      :     0.007133
      py      :     0.010341

  8 C s       :     2.732270  s :     2.732270
      pz      :     0.895374  p :     2.659760
      px      :     0.878506
      py      :     0.885880
      dz2     :     0.074710  d :     0.280110
      dxz     :     0.073542
      dyz     :     0.051142
      dx2y2   :     0.038682
      dxy     :     0.042034

  9 O s       :     3.539643  s :     3.539643
      pz      :     1.657231  p :     4.629282
      px      :     1.457532
      py      :     1.514519
      dz2     :     0.042007  d :     0.237004
      dxz     :     0.047093
      dyz     :     0.037737
      dx2y2   :     0.042513
      dxy     :     0.067654

 10 O s       :     3.450968  s :     3.450968
      pz      :     1.380798  p :     4.627503
      px      :     1.641284
      py      :     1.605422
      dz2     :     0.131182  d :     0.544904
      dxz     :     0.127081
      dyz     :     0.129859
      dx2y2   :     0.073842
      dxy     :     0.082938

 11 C s       :     2.867292  s :     2.867292
      pz      :     0.978367  p :     2.979090
      px      :     1.033368
      py      :     0.967355
      dz2     :     0.010444  d :     0.118113
      dxz     :     0.033048
      dyz     :     0.031755
      dx2y2   :     0.019624
      dxy     :     0.023242

 12 C s       :     2.972780  s :     2.972780
      pz      :     1.121501  p :     3.353346
      px      :     1.092440
      py      :     1.139404
      dz2     :     0.002442  d :     0.060743
      dxz     :     0.017436
      dyz     :     0.018574
      dx2y2   :     0.009890
      dxy     :     0.012401

 13 S s       :     5.409971  s :     5.409971
      pz      :     3.636948  p :    10.105023
      px      :     3.146311
      py      :     3.321764
      dz2     :     0.044543  d :     0.296264
      dxz     :     0.051277
      dyz     :     0.035047
      dx2y2   :     0.076806
      dxy     :     0.088591

 14 P s       :     4.653761  s :     4.653761
      pz      :     2.769831  p :     8.376485
      px      :     2.735643
      py      :     2.871011
      dz2     :     0.379907  d :     1.571493
      dxz     :     0.255514
      dyz     :     0.290249
      dx2y2   :     0.326655
      dxy     :     0.319168

 15 S s       :     5.557057  s :     5.557057
      pz      :     3.474741  p :    10.352302
      px      :     3.540863
      py      :     3.336699
      dz2     :     0.014708  d :     0.135574
      dxz     :     0.017493
      dyz     :     0.047131
      dx2y2   :     0.028580
      dxy     :     0.027663

 16 O s       :     3.470878  s :     3.470878
      pz      :     1.483192  p :     4.745940
      px      :     1.536159
      py      :     1.726590
      dz2     :     0.119093  d :     0.466450
      dxz     :     0.114858
      dyz     :     0.080583
      dx2y2   :     0.081990
      dxy     :     0.069927

 17 C s       :     2.915785  s :     2.915785
      pz      :     0.857059  p :     3.037100
      px      :     1.077669
      py      :     1.102373
      dz2     :     0.031719  d :     0.105384
      dxz     :     0.017660
      dyz     :     0.029633
      dx2y2   :     0.021012
      dxy     :     0.005360

 18 O s       :     3.471324  s :     3.471324
      pz      :     1.423916  p :     4.718178
      px      :     1.691715
      py      :     1.602547
      dz2     :     0.151169  d :     0.460185
      dxz     :     0.083629
      dyz     :     0.117049
      dx2y2   :     0.059637
      dxy     :     0.048701

 19 C s       :     2.915584  s :     2.915584
      pz      :     0.961910  p :     3.033345
      px      :     1.079487
      py      :     0.991949
      dz2     :     0.026689  d :     0.102480
      dxz     :     0.010747
      dyz     :     0.023615
      dx2y2   :     0.023634
      dxy     :     0.017795

 20 H s       :     0.788040  s :     0.788040
      pz      :     0.022905  p :     0.044394
      px      :     0.011771
      py      :     0.009719

 21 H s       :     0.796220  s :     0.796220
      pz      :     0.009287  p :     0.044068
      px      :     0.024442
      py      :     0.010340

 22 H s       :     0.800239  s :     0.800239
      pz      :     0.015806  p :     0.043475
      px      :     0.007860
      py      :     0.019809

 23 H s       :     0.764545  s :     0.764545
      pz      :     0.017024  p :     0.042772
      px      :     0.006525
      py      :     0.019223

 24 H s       :     0.781785  s :     0.781785
      pz      :     0.022316  p :     0.039705
      px      :     0.007638
      py      :     0.009751

 25 H s       :     0.767081  s :     0.767081
      pz      :     0.026787  p :     0.044651
      px      :     0.007977
      py      :     0.009887

 26 H s       :     0.768506  s :     0.768506
      pz      :     0.014756  p :     0.044357
      px      :     0.010668
      py      :     0.018933

 27 H s       :     0.760696  s :     0.760696
      pz      :     0.015227  p :     0.043511
      px      :     0.009371
      py      :     0.018913

 28 H s       :     0.776587  s :     0.776587
      pz      :     0.013200  p :     0.040310
      px      :     0.019242
      py      :     0.007869

 29 H s       :     0.790254  s :     0.790254
      pz      :     0.016701  p :     0.043969
      px      :     0.017701
      py      :     0.009567

 30 H s       :     0.796087  s :     0.796087
      pz      :     0.015970  p :     0.044050
      px      :     0.011470
      py      :     0.016611

 31 H s       :     0.799905  s :     0.799905
      pz      :     0.012997  p :     0.043441
      px      :     0.009818
      py      :     0.020626

 32 H s       :     0.782337  s :     0.782337
      pz      :     0.005169  p :     0.040198
      px      :     0.027230
      py      :     0.007799

 33 H s       :     0.788900  s :     0.788900
      pz      :     0.006610  p :     0.041696
      px      :     0.009685
      py      :     0.025401

 34 H s       :     0.780111  s :     0.780111
      pz      :     0.014678  p :     0.042517
      px      :     0.009923
      py      :     0.017915

 35 H s       :     0.780273  s :     0.780273
      pz      :     0.021583  p :     0.040320
      px      :     0.008125
      py      :     0.010612

 36 H s       :     0.783396  s :     0.783396
      pz      :     0.006757  p :     0.042650
      px      :     0.012792
      py      :     0.023100

 37 H s       :     0.782972  s :     0.782972
      pz      :     0.006879  p :     0.041986
      px      :     0.028015
      py      :     0.007092


---------------------------------
LOEWDIN BOND ORDERS (THRESH 0.050000)
---------------------------------
B(  0-C ,  1-C ) :   1.0843 B(  0-C ,  2-O ) :   0.1545 B(  0-C , 20-H ) :   0.9174 
B(  0-C , 21-H ) :   0.9180 B(  0-C , 22-H ) :   0.9249 B(  1-C ,  2-O ) :   1.2998 
B(  1-C ,  3-C ) :   0.0829 B(  1-C ,  4-O ) :   0.0591 B(  1-C , 21-H ) :   0.0502 
B(  1-C , 23-H ) :   0.8186 B(  1-C , 24-H ) :   0.8333 B(  2-O ,  3-C ) :   1.4622 
B(  2-O ,  4-O ) :   0.4556 B(  2-O ,  5-C ) :   0.1826 B(  2-O , 23-H ) :   0.0913 
B(  2-O , 24-H ) :   0.0972 B(  3-C ,  4-O ) :   2.1735 B(  3-C ,  5-C ) :   0.8892 
B(  3-C ,  6-C ) :   0.0714 B(  4-O ,  5-C ) :   0.1812 B(  5-C ,  6-C ) :   1.0217 
B(  5-C ,  8-C ) :   0.0699 B(  5-C , 13-S ) :   0.1268 B(  5-C , 25-H ) :   0.8558 
B(  5-C , 26-H ) :   0.8607 B(  6-C ,  7-H ) :   0.8087 B(  6-C ,  8-C ) :   0.8523 
B(  6-C ,  9-O ) :   0.1783 B(  6-C , 10-O ) :   0.1673 B(  6-C , 13-S ) :   1.2469 
B(  6-C , 14-P ) :   0.0832 B(  7-H , 13-S ) :   0.0569 B(  8-C ,  9-O ) :   2.1385 
B(  8-C , 10-O ) :   1.4484 B(  8-C , 11-C ) :   0.0837 B(  8-C , 13-S ) :   0.1008 
B(  8-C , 15-S ) :   0.0801 B(  9-O , 10-O ) :   0.4436 B(  9-O , 11-C ) :   0.0624 
B( 10-O , 11-C ) :   1.2810 B( 10-O , 12-C ) :   0.1601 B( 10-O , 13-S ) :   0.1254 
B( 10-O , 14-P ) :   0.0668 B( 10-O , 15-S ) :   0.0552 B( 10-O , 18-O ) :   0.0723 
B( 10-O , 27-H ) :   0.0906 B( 10-O , 28-H ) :   0.0957 B( 11-C , 12-C ) :   1.0834 
B( 11-C , 27-H ) :   0.8139 B( 11-C , 28-H ) :   0.8291 B( 12-C , 29-H ) :   0.9170 
B( 12-C , 30-H ) :   0.9178 B( 12-C , 31-H ) :   0.9248 B( 13-S , 14-P ) :   1.1967 
B( 13-S , 15-S ) :   0.1501 B( 13-S , 16-O ) :   0.1560 B( 13-S , 18-O ) :   0.1387 
B( 14-P , 15-S ) :   2.0153 B( 14-P , 16-O ) :   1.5366 B( 14-P , 17-C ) :   0.0988 
B( 14-P , 18-O ) :   1.5702 B( 14-P , 19-C ) :   0.0981 B( 15-S , 16-O ) :   0.1808 
B( 15-S , 18-O ) :   0.1645 B( 16-O , 17-C ) :   1.3513 B( 16-O , 18-O ) :   0.2286 
B( 16-O , 32-H ) :   0.1020 B( 16-O , 33-H ) :   0.1032 B( 16-O , 34-H ) :   0.1018 
B( 17-C , 32-H ) :   0.8629 B( 17-C , 33-H ) :   0.8658 B( 17-C , 34-H ) :   0.8603 
B( 18-O , 19-C ) :   1.3245 B( 18-O , 35-H ) :   0.1012 B( 18-O , 36-H ) :   0.0998 
B( 18-O , 37-H ) :   0.0986 B( 19-C , 35-H ) :   0.8634 B( 19-C , 36-H ) :   0.8615 
B( 19-C , 37-H ) :   0.8662 

------------------------------------------
LOEWDIN REDUCED ORBITAL POPULATIONS PER MO
-------------------------------------------
THRESHOLD FOR PRINTING IS 0.1%%
                      0         1         2         3         4         5   
                 -88.57767 -88.51981 -76.91646 -19.00364 -18.99915 -18.99847
                   2.00000   2.00000   2.00000   2.00000   2.00000   2.00000
                  --------  --------  --------  --------  --------  --------
 2 O  s               0.0       0.0       0.0       0.0      99.9       0.0
10 O  s               0.0       0.0       0.0      99.9       0.0       0.0
13 S  s             100.0       0.0       0.0       0.0       0.0       0.0
14 P  s               0.0       0.0     100.0       0.0       0.0       0.0
15 S  s               0.0     100.0       0.0       0.0       0.0       0.0
18 O  s               0.0       0.0       0.0       0.0       0.0      99.9

                      6         7         8         9        10        11   
                 -18.99468 -18.93394 -18.92924 -10.16267 -10.15795 -10.10265
                   2.00000   2.00000   2.00000   2.00000   2.00000   2.00000
                  --------  --------  --------  --------  --------  --------
 2 O  dxz             0.0       0.0       0.0       0.0       0.2       0.0
 3 C  s               0.0       0.0       0.0       0.0      98.9       0.0
 4 O  s               0.0       0.0      99.9       0.0       0.0       0.0
 4 O  pz              0.0       0.0       0.0       0.0       0.2       0.0
 4 O  dz2             0.0       0.0       0.0       0.0       0.3       0.0
 8 C  s               0.0       0.0       0.0      98.8       0.0       0.0
 9 O  s               0.0      99.9       0.0       0.0       0.0       0.0
 9 O  px              0.0       0.0       0.0       0.1       0.0       0.0
 9 O  dxy             0.0       0.0       0.0       0.2       0.0       0.0
10 O  pz              0.0       0.0       0.0       0.1       0.0       0.0
10 O  dz2             0.0       0.0       0.0       0.2       0.0       0.0
10 O  dxz             0.0       0.0       0.0       0.1       0.0       0.0
16 O  s              99.9       0.0       0.0       0.0       0.0       0.0
18 O  dyz             0.0       0.0       0.0       0.0       0.0       0.2
19 C  s               0.0       0.0       0.0       0.0       0.0      99.4

                     12        13        14        15        16        17   
                 -10.09792 -10.09400 -10.09277 -10.08995 -10.06495 -10.03237
                   2.00000   2.00000   2.00000   2.00000   2.00000   2.00000
                  --------  --------  --------  --------  --------  --------
 1 C  s               0.0       0.0       0.0      99.4       0.0       0.0
 2 O  dx2y2           0.0       0.0       0.0       0.1       0.0       0.0
 5 C  s               0.0       0.0       0.0       0.0      99.7       0.0
 6 C  s              99.6       0.0       0.0       0.0       0.0       0.0
10 O  dyz             0.0       0.0       0.1       0.0       0.0       0.0
11 C  s               0.0       0.0      99.4       0.0       0.0       0.0
12 C  s               0.0       0.0       0.0       0.0       0.0      99.7
16 O  dz2             0.0       0.2       0.0       0.0       0.0       0.0
17 C  s               0.0      99.4       0.0       0.0       0.0       0.0

                     18        19        20        21        22        23   
                 -10.02718  -7.87212  -7.81429  -6.59478  -5.81892  -5.81594
                   2.00000   2.00000   2.00000   2.00000   2.00000   2.00000
                  --------  --------  --------  --------  --------  --------
 0 C  s              99.7       0.0       0.0       0.0       0.0       0.0
 6 C  px              0.0       0.1       0.0       0.0       0.0       0.0
13 S  s               0.0      99.6       0.0       0.0       0.0       0.0
13 S  pz              0.0       0.0       0.0       0.0      12.3       5.3
13 S  px              0.0       0.0       0.0       0.0      69.8      13.1
13 S  py              0.0       0.0       0.0       0.1      17.9      81.6
14 P  s               0.0       0.0       0.0      96.5       0.0       0.0
14 P  dyz             0.0       0.0       0.1       0.0       0.0       0.0
15 S  s               0.0       0.0      99.6       0.0       0.0       0.0
15 S  dyz             0.0       0.0       0.0       0.1       0.0       0.0
16 O  px              0.0       0.0       0.0       0.3       0.0       0.0
16 O  dz2             0.0       0.0       0.0       0.2       0.0       0.0
16 O  dx2y2           0.0       0.0       0.0       0.6       0.0       0.0
16 O  dxy             0.0       0.0       0.0       0.1       0.0       0.0
18 O  pz              0.0       0.0       0.0       0.4       0.0       0.0
[...]
32 H  pz              0.5       0.0       0.0       0.0       0.0       0.0
32 H  px              0.5       0.0       0.0       0.0       0.0       0.0
33 H  s               0.3       0.0       0.0       0.0       0.0       0.0
33 H  px              0.2       0.0       0.0       0.0       0.0       0.0
33 H  py              0.4       0.0       0.0       0.0       0.0       0.0
34 H  s               0.2       0.0       0.0       0.0       0.0       0.0
34 H  px              0.2       0.0       0.0       0.0       0.0       0.0
34 H  py              0.4       0.0       0.0       0.0       0.0       0.0

                    492       493       494       495       496       497   
                  18.99356  19.20667  21.95351  21.95478  21.99466  22.01336
                   0.00000   0.00000   0.00000   0.00000   0.00000   0.00000
                  --------  --------  --------  --------  --------  --------
 0 C  s               0.0       0.0      16.7      82.4       0.1       0.0
 3 C  s               0.0       0.0       0.1       0.5       0.0       0.0
 5 C  s               0.0       0.0       0.4       0.0       0.2       0.3
 6 C  s               0.0       0.4       1.3       0.8       0.5       0.1
 8 C  s               0.1       0.0       0.0       0.0       0.0       0.2
11 C  s               0.0       0.0       0.8       0.2       4.5       0.6
12 C  s               0.0       0.0      80.1      15.6       0.7       0.1
13 S  s               0.0      98.8       0.0       0.0       0.0       0.0
13 S  py              0.0       0.1       0.0       0.0       0.0       0.0
14 P  s               0.1       0.1       0.0       0.0       0.0       0.0
15 S  s              98.8       0.0       0.0       0.0       0.0       0.0
15 S  py              0.1       0.0       0.0       0.0       0.0       0.0
17 C  s               0.0       0.0       0.0       0.0      11.3      87.6
19 C  s               0.1       0.0       0.2       0.2      82.4      10.7

                    498       499       500       501       502       503   
                  22.04566  22.08787  22.12612  22.20724  22.41037  22.49067
                   0.00000   0.00000   0.00000   0.00000   0.00000   0.00000
                  --------  --------  --------  --------  --------  --------
 0 C  s               0.0       0.0       0.0       0.1       0.2       0.0
 1 C  s              80.6       0.0      18.3       0.6       0.0       0.0
 3 C  s               0.8       0.6       4.7       0.0      67.8      24.6
 4 O  s               0.0       0.0       0.0       0.0       0.1       0.0
 4 O  pz              0.0       0.0       0.0       0.0       0.1       0.0
 5 C  s              15.3       0.6      55.7      15.3       9.6       2.0
 6 C  s               1.2      18.6      12.8      62.0       1.6       0.6
 8 C  s               1.2       0.0       4.6       1.7      19.6      71.8
 9 O  s               0.0       0.0       0.0       0.0       0.0       0.2
11 C  s               0.0      71.7       2.3      19.2       0.3       0.0
12 C  s               0.3       1.8       0.9       0.2       0.0       0.0
13 S  s               0.0       0.0       0.1       0.2       0.0       0.0
17 C  s               0.1       0.0       0.4       0.1       0.0       0.1
19 C  s               0.0       6.0       0.0       0.1       0.0       0.0

                    504       505       506       507       508       509   
                  43.73656  43.77567  43.84234  43.89153  43.91806  43.97836
                   0.00000   0.00000   0.00000   0.00000   0.00000   0.00000
                  --------  --------  --------  --------  --------  --------
 2 O  s              31.4       1.9       0.1      15.6      48.5       2.5
 4 O  s              62.6       2.4       2.8       7.2      24.4       0.4
 9 O  s               1.1       0.9      74.1       1.0       0.1      22.7
10 O  s               0.0       2.5      17.8       7.6       0.5      71.5
16 O  s               4.7      91.8       1.4       0.8       0.2       0.9
18 O  s               0.0       0.3       3.7      67.6      26.2       1.9



                      *****************************
                      * MAYER POPULATION ANALYSIS *
                      *****************************

  NA   - Mulliken gross atomic population
  ZA   - Total nuclear charge
  QA   - Mulliken gross atomic charge
  VA   - Mayer's total valence
  BVA  - Mayer's bonded valence
  FA   - Mayer's free valence

  ATOM       NA         ZA         QA         VA         BVA        FA
  0 C      6.4763     6.0000    -0.4763     3.8050     3.8050     0.0000
  1 C      6.1370     6.0000    -0.1370     3.6680     3.6680    -0.0000
  2 O      8.1591     8.0000    -0.1591     1.9186     1.9186    -0.0000
  3 C      5.6878     6.0000     0.3122     3.8400     3.8400     0.0000
  4 O      8.3902     8.0000    -0.3902     1.9603     1.9603    -0.0000
  5 C      6.3572     6.0000    -0.3572     3.7175     3.7175    -0.0000
  6 C      6.0546     6.0000    -0.0546     3.7338     3.7338    -0.0000
  7 H      0.7462     1.0000     0.2538     0.9212     0.9212    -0.0000
  8 C      5.7176     6.0000     0.2824     3.8409     3.8409    -0.0000
  9 O      8.3741     8.0000    -0.3741     1.9621     1.9621    -0.0000
 10 O      8.1378     8.0000    -0.1378     1.9393     1.9393     0.0000
 11 C      6.1544     6.0000    -0.1544     3.6329     3.6329    -0.0000
 12 C      6.4683     6.0000    -0.4683     3.8135     3.8135    -0.0000
 13 S     16.2105    16.0000    -0.2105     2.1492     2.1492    -0.0000
 14 P     14.2379    15.0000     0.7621     5.0910     5.0910     0.0000
 15 S     16.4089    16.0000    -0.4089     2.0903     2.0903    -0.0000
 16 O      8.3577     8.0000    -0.3577     1.8382     1.8382    -0.0000
 17 C      6.2953     6.0000    -0.2953     3.7718     3.7718     0.0000
 18 O      8.3091     8.0000    -0.3091     1.8764     1.8764    -0.0000
 19 C      6.2896     6.0000    -0.2896     3.7353     3.7353    -0.0000
 20 H      0.8213     1.0000     0.1787     0.9561     0.9561     0.0000
 21 H      0.8517     1.0000     0.1483     0.9643     0.9643     0.0000
 22 H      0.8505     1.0000     0.1495     0.9624     0.9624    -0.0000
 23 H      0.8203     1.0000     0.1797     0.9563     0.9563     0.0000
 24 H      0.8528     1.0000     0.1472     0.9531     0.9531     0.0000
 25 H      0.8111     1.0000     0.1889     0.9532     0.9532    -0.0000
 26 H      0.8210     1.0000     0.1790     0.9527     0.9527    -0.0000
 27 H      0.8175     1.0000     0.1825     0.9578     0.9578    -0.0000
 28 H      0.8394     1.0000     0.1606     0.9530     0.9530    -0.0000
 29 H      0.8305     1.0000     0.1695     0.9593     0.9593    -0.0000
 30 H      0.8493     1.0000     0.1507     0.9633     0.9633    -0.0000
 31 H      0.8487     1.0000     0.1513     0.9627     0.9627    -0.0000
 32 H      0.8475     1.0000     0.1525     0.9555     0.9555     0.0000
 33 H      0.8412     1.0000     0.1588     0.9547     0.9547    -0.0000
 34 H      0.8240     1.0000     0.1760     0.9552     0.9552     0.0000
 35 H      0.8441     1.0000     0.1559     0.9561     0.9561     0.0000
 36 H      0.8298     1.0000     0.1702     0.9561     0.9561    -0.0000
 37 H      0.8298     1.0000     0.1702     0.9518     0.9518    -0.0000

  Mayer bond orders larger than 0.100000
B(  0-C ,  1-C ) :   0.9254 B(  0-C , 20-H ) :   0.9714 B(  0-C , 21-H ) :   0.9651 
B(  0-C , 22-H ) :   0.9724 B(  1-C ,  2-O ) :   0.8198 B(  1-C , 23-H ) :   0.9718 
B(  1-C , 24-H ) :   0.9613 B(  2-O ,  3-C ) :   1.0500 B(  3-C ,  4-O ) :   1.8545 
B(  3-C ,  5-C ) :   0.8719 B(  5-C ,  6-C ) :   0.8696 B(  5-C , 25-H ) :   1.0099 
B(  5-C , 26-H ) :   0.9363 B(  6-C ,  7-H ) :   0.9531 B(  6-C ,  8-C ) :   0.9106 
B(  6-C , 13-S ) :   0.8718 B(  8-C ,  9-O ) :   1.8181 B(  8-C , 10-O ) :   1.0724 
B( 10-O , 11-C ) :   0.7870 B( 11-C , 12-C ) :   0.9207 B( 11-C , 27-H ) :   0.9662 
B( 11-C , 28-H ) :   0.9586 B( 12-C , 29-H ) :   0.9708 B( 12-C , 30-H ) :   0.9676 
B( 12-C , 31-H ) :   0.9761 B( 13-S , 14-P ) :   0.9993 B( 14-P , 15-S ) :   1.7972 
B( 14-P , 16-O ) :   1.0248 B( 14-P , 18-O ) :   1.1454 B( 16-O , 17-C ) :   0.8309 
B( 17-C , 32-H ) :   0.9674 B( 17-C , 33-H ) :   0.9561 B( 17-C , 34-H ) :   0.9590 
B( 18-O , 19-C ) :   0.7948 B( 19-C , 35-H ) :   0.9653 B( 19-C , 36-H ) :   0.9560 
B( 19-C , 37-H ) :   0.9605 

-------
TIMINGS
-------

Total SCF time: 0 days 0 hours 1 min 12 sec 

Total time                  ....      72.855 sec
Sum of individual times     ....      72.819 sec  (100.0%)

SCF preparation             ....       0.542 sec  (  0.7%)
Fock matrix formation       ....      69.907 sec  ( 96.0%)
  Startup                   ....       0.020 sec  (  0.0% of F)
  Split-RI-J                ....      23.976 sec  ( 34.3% of F)
  XC integration            ....      45.707 sec  ( 65.4% of F)
    Basis function eval.    ....       6.906 sec  ( 15.1% of XC)
    Density eval.           ....      18.398 sec  ( 40.3% of XC)
    XC-Functional eval.     ....       3.009 sec  (  6.6% of XC)
    XC-Potential eval.      ....      16.630 sec  ( 36.4% of XC)
Diagonalization             ....       0.000 sec  (  0.0%)
Density matrix formation    ....       0.109 sec  (  0.1%)
Total Energy calculation    ....       0.010 sec  (  0.0%)
Population analysis         ....       1.208 sec  (  1.7%)
Orbital Transformation      ....       0.129 sec  (  0.2%)
Orbital Orthonormalization  ....       0.000 sec  (  0.0%)
DIIS solution               ....       0.810 sec  (  1.1%)
  MO trafo                  ....       0.000 sec  (  0.0 % of DIIS)
  Orb grad                  ....       0.000 sec  (  0.0 % of DIIS)
  Energy W gradient         ....       0.000 sec  (  0.0 % of DIIS)
  DIIS error                ....       0.130 sec  ( 16.0 % of DIIS)
  DIIS work                 ....       0.611 sec  ( 75.3 % of DIIS)
  Form Q                    ....       0.000 sec  (  0.0 % of DIIS)
  Form QpQm                 ....       0.000 sec  (  0.0 % of DIIS)
  Exp/Cayley                ....       0.000 sec  (  0.0 % of DIIS)
  Orb update                ....       0.000 sec  (  0.0 % of DIIS)
  Wake-sleep                ....       0.004 sec  (  0.6 % of DIIS)
SOSCF solution              ....       0.104 sec  (  0.1%)
  MO trafo                  ....       0.080 sec  ( 77.3 % of SOSCF)
  Orb grad                  ....       0.000 sec  (  0.3 % of SOSCF)
  Rot update                ....       0.000 sec  (  0.1 % of SOSCF)
  Step                      ....       0.023 sec  ( 22.1 % of SOSCF)
Finished LeanSCF after  73.9 sec

Maximum memory used throughout the entire LEANSCF-calculation: 71.3 MB


-------------------------------------------------------------------------------
                          DFT DISPERSION CORRECTION                            
                                                                               
                                DFTD4 V3.4.0                                   
-------------------------------------------------------------------------------
The R2SCAN3C composite method is recognized
Using three-body term ABC
Active option DFTDOPT                   ...         5   

-------------------------   ----------------
Dispersion correction           -0.017608121
-------------------------   ----------------

------------------   -----------------
gCP correction             0.037092867
------------------   -----------------

-------------------------   --------------------
FINAL SINGLE POINT ENERGY     -1981.450914344344
-------------------------   --------------------


------------------------------------------------------------------------------
                              ORCA PROPERTY CALCULATIONS
------------------------------------------------------------------------------

GBWName                                 ... sp_gas.gbw
Number of atoms                         ...     38
Number of basis functions               ...    510
Max core memory                         ...   1024 MB

Electric properties:
Dipole moment                           ... YES
Quadrupole moment                       ...  NO
Static polarizability (Dipole/Dipole)   ...  NO
Static polarizability (Dipole/Quad.)    ...  NO
Static polarizability (Quad./Quad.)     ...  NO
Static polarizability (Velocity)        ...  NO

Atomic electric properties:
Dipole moment                           ...  NO
Quadrupole moment                       ...  NO
Static polarizability                   ...  NO

Choice of electric origin               ... Center of mass
Position of electric origin             ...     0.000001    -0.000004     0.000006

General magnetic properties:
Magnetizability                         ...  NO

EPR properties:
g-Tensor (aka g-matrix)                 ...  NO
Zero-Field splitting spin-orbit         ...  NO
Zero-field splitting spin-spin          ...  NO
Hyperfine couplings                     ...  NO (   0 nuclei)
Quadrupole couplings                    ...  NO (   0 nuclei)
Contact density                         ...  NO (   0 nuclei)

NMR properties:
Chemical shifts                         ...  NO (   0 nuclei)
Spin-rotation constants                 ...  NO (   0 nuclei)
Spin-spin couplings                     ...  NO (   0 nuclei,    0 pairs)

Choice of magnetic origin               ... GIAO
Position of magnetic origin             ...     0.000000     0.000000     0.000000

Properties with geometric perturbations:
SCF Hessian                             ...  NO
IR spectrum                             ...  NO
VCD spectrum                            ...  NO
X-ray spectroscopy properties:
SCF XES/XAS/RIXS spectra                ...  NO


-------------
DIPOLE MOMENT
-------------

Method             : SCF
Type of density    : Electron Density
Multiplicity       :   1
Irrep              :   0
Energy             : -1981.4703990905054525 Eh
Relativity type    : 
Basis              : AO
                                X                 Y                 Z
Electronic contribution:    -16.515213482       5.783885191      -6.116079259
Nuclear contribution   :     16.189861207      -7.046250976       7.831051749
                        -----------------------------------------
Total Dipole Moment    :     -0.325352275      -1.262365785       1.714972490
                        -----------------------------------------
Magnitude (a.u.)       :      2.154194077
Magnitude (Debye)      :      5.475526195



--------------------
Rotational spectrum 
--------------------
 
Rotational constants in cm-1:             0.017627             0.005904             0.005283 
Rotational constants in MHz :           528.451954           177.007129           158.365885 

Dipole components along the rotational axes: 
x,y,z [a.u.] :    -0.331544    -0.885165    -1.935746 
x,y,z [Debye]:    -0.842717    -2.249910    -4.920276 

 

Dipole moment calculation done in   0.1 sec 

Maximum memory used throughout the entire PROP-calculation: 50.6 MB

--------------------------------
SUGGESTED CITATIONS FOR THIS RUN
--------------------------------

Below you find a list of papers that are relevant to this ORCA run
We neither can nor want to force you to cite these papers, but we appreciate if you do
You receive ORCA, which is the product of decades of hard work by many enthusiastic individuals, for free
The only thing we kindly ask in return is that you cite our papers,
We deeply appreciate it, if you show your appreciation for ORCA by not just citing the generic ORCA reference.

Please note that relegating all ORCA citations to the supporting information does *not* help us.
SI sections are not indexed - citations you put there will not count into any citation statistics
But we need these citations in order to attract the funding resources that allow us to do what we are doing

Therefore, if you are a happy ORCA user, please consider citing a few of the papers listed below in the main body of your paper

In addition to the list printed below, the program has created the file sp_gas.bibtex that contains the list in bibtex format
You can import this file easily into all common literature databanks and citation aid programs


List of essential papers. We consider these as the minimum necessary citations

  1. Neese,F.
     Software update: the ORCA program system, version 5.0
     WIRES Comput. Molec. Sci., 2022 12(1)e1606
     doi.org/10.1002/wcms.1606
  2. Grimme,S.; Hansen,A.; Ehlert,S.; Mewes,J.
     r2SCAN-3c: A 'Swiss army knife' composite electronic-structure method
     J. Chem. Phys., 2021 154 064103
     doi.org/10.1063/5.0040021

List of papers to cite with high priority. The work reported in these papers was absolutely
necessary for this run to complete.
Our perspective: the developers of density functionals and basis sets usually get cited in chemistry papers
Good! But without the algorithms to do something with them, the functionals or basis sets would not do anything.
Hence, in our opinion, the algorithm design and method developments papers are equally worthy of getting cited

  1. Neese,F.
     An improvement of the resolution of the identity approximation for the formation of the Coulomb matrix
     J. Comp. Chem., 2003 24(14)1740-1747
     doi.org/10.1002/jcc.10318
  2. Neese,F.
     The SHARK Integral Generation and Digestion System
     J. Comp. Chem., 2022  1-16
     doi.org/10.1002/jcc.26942
  3. Lehtola,S.; Steigemann,C.; Oliveira,M.; Marques,M.
     Recent developments in Libxc - A comprehensive library of functionals for density functional theory
     Software X, 2018 7 
     doi.org/10.1016/j.softx.2017.11.002
  4. Caldeweyher,E.; Bannwarth,C.; Grimme,S.
     Extension of the D3 dispersion coefficient model
     J. Chem. Phys., 2017 147 034112
     doi.org/10.1063/1.4993215
  5. Caldeweyher,E.; Ehlert,S.; Hansen,A.; Neugebauer,H.; Spicher,S.; Bannwarth,C.; Grimme,S.
     A generally applicable atomic-charge dependent London dispersion correction
     J. Chem. Phys., 2019 150 154122
     doi.org/10.1063/1.5090222
  6. Caldeweyher,E.; Mewes,J.; Ehlert,S.; Grimme,S.
     Extension and evaluation of the D4 London-dispersion model for periodic systems
     Phys. Chem. Chem. Phys., 2020 22(16)8499-8512
     doi.org/10.1039/D0CP00502A
  7. Wittmann,L.; Gordiy,I.; Friede,M.; Helmich-Paris,B.; Grimme,S.; Hansen,A.; Bursch,M.
     Extension of the D3 and D4 London Dispersion Corrections to the full Actinides Series
     Phys. Chem. Chem. Phys., 2024 26(32)21379-21394
     doi.org/https://doi.org/10.1039/D4CP01514B 

List of suggested additional citations. These are papers that are important in the 'surrounding' of 
of this run, or papers that preceded the highly important papers. If you like your results we are grateful for a citation.

  1. Neese,F.
     The ORCA program system
     WIRES Comput. Molec. Sci., 2012 2(1)73-78
     doi.org/10.1002/wcms.81
  2. Neese,F.
     Software update: the ORCA program system, version 4.0
     WIRES Comput. Molec. Sci., 2018 8(1)1-6
     doi.org/10.1002/wcms.1327
  3. Neese,F.; Wennmohs,F.; Becker,U.; Riplinger,C.
     The ORCA quantum chemistry program package
     J. Chem. Phys., 2020 152 Art. No. L224108
     doi.org/10.1063/5.0004608

List of optional additional citations

  1. Neese,F.
     Approximate second-order SCF convergence for spin unrestricted wavefunctions
     Chem. Phys. Lett., 2000 325(1-3)93-98
     doi.org/10.1016/s0009-2614(00)00662-x

Timings for individual modules:

Sum of individual times          ...       77.195 sec (=   1.287 min)
Startup calculation              ...        2.737 sec (=   0.046 min)   3.5 %
SCF iterations                   ...       74.230 sec (=   1.237 min)  96.2 %
Property calculations            ...        0.227 sec (=   0.004 min)   0.3 %
                             ****ORCA TERMINATED NORMALLY****
TOTAL RUN TIME: 0 days 0 hours 1 minutes 19 seconds 134 msec
