      -----------------------------------------------------------      
     |                   =====================                   |     
     |                           x T B                           |     
     |                   =====================                   |     
     |                         S. Grimme                         |     
     |          Mulliken Center for Theoretical Chemistry        |     
     |                    University of Bonn                     |     
      -----------------------------------------------------------      

   * xtb version 6.7.1 (edcfbbe) compiled by 'albert@albert-system' on 2024-07-22

   xtb is free software: you can redistribute it and/or modify it under
   the terms of the GNU Lesser General Public License as published by
   the Free Software Foundation, either version 3 of the License, or
   (at your option) any later version.
   
   xtb is distributed in the hope that it will be useful,
   but WITHOUT ANY WARRANTY; without even the implied warranty of
   MERCHANTABILITY or FITNESS FOR A PARTICULAR PURPOSE.  See the
   GNU Lesser General Public License for more details.
   
   Cite this work as:
   * C. Bannwarth, E. Caldeweyher, S. Ehlert, A. Hansen, P. Pracht,
     J. Seibert, S. Spicher, S. Grimme, WIREs Comput. Mol. Sci., 2020, 11,
     e01493. DOI: 10.1002/wcms.1493
   
   for GFN2-xTB:
   * C. Bannwarth, S. Ehlert and S. Grimme., J. Chem. Theory Comput., 2019,
     15, 1652-1671. DOI: 10.1021/acs.jctc.8b01176
   for GFN1-xTB:
   * S. Grimme, C. Bannwarth, P. Shushkov, J. Chem. Theory Comput., 2017,
     13, 1989-2009. DOI: 10.1021/acs.jctc.7b00118
   for GFN0-xTB:
   * P. Pracht, E. Caldeweyher, S. Ehlert, S. Grimme, ChemRxiv, 2019, preprint.
     DOI: 10.26434/chemrxiv.8326202.v1
   for GFN-FF:
   * S. Spicher and S. Grimme, Angew. Chem. Int. Ed., 2020, 59, 15665-15673.
     DOI: 10.1002/anie.202004239
   
   for ALPB and GBSA implicit solvation:
   * S. Ehlert, M. Stahn, S. Spicher, S. Grimme, J. Chem. Theory Comput.,
     2021, 17, 4250-4261. DOI: 10.1021/acs.jctc.1c00471
   
   for ddCOSMO and CPCM-X implicit solvation:
   * M. Stahn, S. Ehlert, S. Grimme, J. Phys. Chem. A,
     2023, XX, XXXX-XXXX. DOI: 10.1021/acs.jpca.3c04382
   
   for DFT-D4:
   * E. Caldeweyher, C. Bannwarth and S. Grimme, J. Chem. Phys., 2017,
     147, 034112. DOI: 10.1063/1.4993215
   * E. Caldeweyher, S. Ehlert, A. Hansen, H. Neugebauer, S. Spicher,
     C. Bannwarth and S. Grimme, J. Chem. Phys., 2019, 150, 154122.
     DOI: 10.1063/1.5090222
   * E. Caldeweyher, J.-M. Mewes, S. Ehlert and S. Grimme, Phys. Chem. Chem. Phys.
     2020, 22, 8499-8512. DOI: 10.1039/D0CP00502A
   
   for sTDA-xTB:
   * S. Grimme and C. Bannwarth, J. Chem. Phys., 2016, 145, 054103.
     DOI: 10.1063/1.4959605
   
   in the mass-spec context:
   * V. Asgeirsson, C. Bauer and S. Grimme, Chem. Sci., 2017, 8, 4879.
     DOI: 10.1039/c7sc00601b
   * J. Koopman and S. Grimme, ACS Omega 2019, 4, 12, 15120-15133.
     DOI: 10.1021/acsomega.9b02011
   
   for metadynamics refer to:
   * S. Grimme, J. Chem. Theory Comput., 2019, 155, 2847-2862
     DOI: 10.1021/acs.jctc.9b00143
   
   for SPH calculations refer to:
   * S. Spicher and S. Grimme, J. Chem. Theory Comput., 2021, 17, 1701-1714
     DOI: 10.1021/acs.jctc.0c01306
   
   for ONIOM refer to:
   * C. Plett, A. Katbashev, S. Ehlert, S. Grimme, M. Bursch,
     Phys. Chem. Chem. Phys., 2023, 25, 17860-17868. DOI: 10.1039/D3CP02178E
   
   for DIPRO refer to:
   * J. Kohn, N. Gildemeister, S. Grimme, D. Fazzi, A. Hansen,
     J. Chem. Phys., 2023, just accepted.
   
   for PTB refer to:
   * S. Grimme, M. Mueller, A. Hansen, J. Chem. Phys., 2023, 158, 124111.
     DOI: 10.1063/5.0137838
   
   with help from (in alphabetical order)
   P. Atkinson, C. Bannwarth, F. Bohle, G. Brandenburg, E. Caldeweyher
   M. Checinski, S. Dohm, S. Ehlert, S. Ehrlich, I. Gerasimov, C. Hölzer
   A. Katbashev, J. Kohn, J. Koopman, C. Lavigne, S. Lehtola, F. März, M. Müller,
   F. Musil, H. Neugebauer, J. Pisarek, C. Plett, P. Pracht, F. Pultar,
   J. Seibert, P. Shushkov, S. Spicher, M. Stahn, M. Steiner, T. Strunk,
   J. Stückrath, T. Rose, and J. Unsleber
   
 * started run on 2025/04/09 at 17:36:20.461     
   ID    Z sym.   atoms
    1    6 C      1, 2, 4, 6, 7, 9, 12, 13, 18, 20
    2    8 O      3, 5, 10, 11, 17, 19
    3    1 H      8, 21-38
    4   16 S      14, 16
    5   15 P      15

           -------------------------------------------------
          |                Calculation Setup                |
           -------------------------------------------------

          program call               : /software/projects/pawsey0265/mwang1/xtb/bin/xtb xtb_opt.coord --opt normal --orca -I xtb_opt-xcontrol-inp
          hostname                   : nid002043
          coordinate file            : xtb_opt.coord
          omp threads                :                   128

           -------------------------------------------------
          |                   Orca driver                   |
           -------------------------------------------------
orca executable           : /software/projects/pawsey0265/mwang1/orca_avx2/orca
orca input file           : xtb_opt.inp
orca input line           : 
orca parallel             : true
orca number of threads    : 128
                         * ORCA takes the control...
  ------------------------------------------------------------------------

                                 *****************
                                 * O   R   C   A *
                                 *****************

                                            #,                                       
                                            ###                                      
                                            ####                                     
                                            #####                                    
                                            ######                                   
                                           ########,                                 
                                     ,,################,,,,,                         
                               ,,#################################,,                 
                          ,,##########################################,,             
                       ,#########################################, ''#####,          
                    ,#############################################,,   '####,        
                  ,##################################################,,,,####,       
                ,###########''''           ''''###############################       
              ,#####''   ,,,,##########,,,,          '''####'''          '####       
            ,##' ,,,,###########################,,,                        '##       
           ' ,,###''''                  '''############,,,                           
         ,,##''                                '''############,,,,        ,,,,,,###''
      ,#''                                            '''#######################'''  
     '                                                          ''''####''''         
             ,#######,   #######,   ,#######,      ##                                
            ,#'     '#,  ##    ##  ,#'     '#,    #''#        ,####,   ,####,        
            ##       ##  ##   ,#'  ##            #'  '#       #'       #'  '#        
            ##       ##  #######   ##           ,######,      #####,   #    #        
            '#,     ,#'  ##    ##  '#,     ,#' ,#      #,     #,   #   #,  ,#        
             '#######'   ##     ##  '#######'  #'      '#     '####' # '####'        



                #########################################################
                #                        -***-                          #
                #          Department of theory and spectroscopy        #
                #                                                       #
                #                      Frank Neese                      #
                #                                                       #
                #     Directorship, Architecture, Infrastructure        #
                #                    SHARK, DRIVERS                     #
                #        Core code/Algorithms in most modules           #
                #                                                       #
                #        Max Planck Institute fuer Kohlenforschung      #
                #                Kaiser Wilhelm Platz 1                 #
                #                 D-45470 Muelheim/Ruhr                 #
                #                      Germany                          #
                #                                                       #
                #                  All rights reserved                  #
                #                        -***-                          #
                #########################################################


                         Program Version 6.0.1  -  RELEASE   -


 With contributions from (in alphabetic order):
[Max-Planck-Institut fuer Kohlenforschung]                               
  Daniel Aravena         : Magnetic Suceptibility                        
  Michael Atanasov       : Ab Initio Ligand Field Theory (pilot matlab implementation)
  Alexander A. Auer      : GIAO ZORA, VPT2 properties, NMR spectrum      
  Ute Becker             : All parallelization in ORCA, NUMFREQ, NUMCALC 
  Giovanni Bistoni       : ED, misc. LED, open-shell LED, HFLD           
  Martin Brehm           : Molecular dynamics                            
  Dmytro Bykov           : pre 5.0 version of the SCF Hessian            
  Marcos Casanova-Páez   : Triplet and SCS-CIS(D). UHF-(DLPNO)-IP/EA/STEOM-CCSD. UHF-CVS-IP/STEOM-CCSD   
  Vijay G. Chilkuri      : MRCI spin determinant printing, contributions to CSF-ICE 
  Pauline Colinet        : FMM embedding                                 
  Dipayan Datta          : RHF DLPNO-CCSD density                        
  Achintya Kumar Dutta   : EOM-CC, STEOM-CC                              
  Nicolas Foglia         : Exact transition moments, OPA infrastructure, MCD improvements    
  Dmitry Ganyushin       : Spin-Orbit,Spin-Spin,Magnetic field MRCI      
  Miquel Garcia-Rates    : C-PCM and meta-GGA Hessian, CCSD/C-PCM, Gaussian charge scheme 
  Tiago L. C. Gouveia    : GS-ROHF, GS-ROCIS                             
  Yang Guo               : DLPNO-NEVPT2, F12-NEVPT2, CIM, IAO-localization        
  Andreas Hansen         : Spin unrestricted coupled pair/coupled cluster methods 
  Ingolf Harden          : AUTO-CI MPn and infrastructure                
  Benjamin Helmich-Paris : MC-RPA, TRAH-(SCF,CASSCF), AVAS, COSX integrals, SCF dyn. polar. 
  Lee Huntington         : MR-EOM, pCC                                   
  Robert Izsak           : Overlap fitted RIJCOSX, COSX-SCS-MP3, EOM     
  Riya Kayal             : Wick's Theorem for AUTO-CI, AUTO-CI UHF-CCSDT 
  Emily Kempfer          : AUTO-CI, RHF CISDT and CCSDT                  
  Christian Kollmar      : KDIIS, OOCD, Brueckner-CCSD(T), CCSD density, CASPT2, CASPT2-K, improved NEVPT2 
  Axel Koslowski         : Symmetry handling                             
  Simone Kossmann        : meta-GGA functionals, TD-DFT gradient, OOMP2, (MP2 Hessian; deprecated post 5.0) 
  Lucas Lang             : DCDCAS                                        
  Marvin Lechner         : AUTO-CI (C++ implementation), FIC-MRCC        
  Spencer Leger          : CASSCF response                               
  Dagmar Lenk            : GEPOL surface, SMD, ORCA-2-JSON               
  Dimitrios Liakos       : Extrapolation schemes; Compound Job, initial MDCI parallelization 
  Dimitrios Manganas     : Further ROCIS development; embedding schemes. LFT, Crystal Embedding 
  Dimitrios Pantazis     : SARC Basis sets                               
  Anastasios Papadopoulos: AUTO-CI, single reference methods and gradients 
  Taras Petrenko         : pre 6.0 DFT Hessian and TD-DFT gradient, (ASA, deprecated), ECA, 1-Electron XAS/XES, NRVS 
  Peter Pinski           : DLPNO-MP2, DLPNO-MP2 Gradient                 
  Christoph Reimann      : Effective Core Potentials                     
  Marius Retegan         : Local ZFS, SOC                                
  Christoph Riplinger    : Optimizer, TS searches, QM/MM, DLPNO-CCSD(T), (RO)-DLPNO pert. Triples 
  Michael Roemelt        : Original ROCIS implementation                 
  Masaaki Saitow         : Open-shell DLPNO-CCSD energy and density      
  Barbara Sandhoefer     : DKH picture change effects                    
  Kantharuban Sivalingam : CASSCF convergence/infrastructure, NEVPT2 and variants, FIC-MRCI 
  Bernardo de Souza      : ESD, SOC TD-DFT                               
  Georgi L. Stoychev     : AutoAux, RI-MP2 NMR, DLPNO-MP2 response, X2C  
  Van Anh Tran           : RI-MP2 g-tensors                              
  Willem Van den Heuvel  : Paramagnetic NMR                              
  Zikuan Wang            : NOTCH, Electric field optimization            
  Frank Wennmohs         : Technical directorship and infrastructure     
  Hang Xu                : AUTO-CI-Response properties                   
                                                                         
[FACCTs GmbH]                                                            
  Markus Bursch, Miquel Garcia-Rates, Christoph Riplinger, Bernardo de Souza, Georgi L. Stoychev 
                                                                 
  APM, Basis sets (HGBS, AHGBS, def-TZVP (Ac-Lr), def2-XVPD (La-Lu)), CI-OPT, improved COSX, DLPNO-Multilevel,           
  DOCKER, DRACO, updates on ESD, GOAT, IRC, LR-CPCM, MBIS, meta-GGA TD-DFT gradient, ML-optimized integration grids, 
  MM, NACMEs, nearIR, NEB, NEB-TS, NL-DFT gradient (VV10), 2- and 3-layer-ONIOM, interface openCOSMO-RS, QMMM,   
  Crystal-QMMM, SF, symmetry and pop. for TD-DFT, r2SCAN hybrids, SOLVATOR                                   
                                                                         
[Other institutions]                                                     
  V. Asgeirsson          : NEB                                           
  Christoph Bannwarth    : sTDA-DFT, sTD-DFT, PBEh-3c, B97-3c, D3        
  Sebastian Ehlert       : rSCAN, r2SCAN, r2SCAN-3c, D4, dhf basis sets  
  Marvin Friede          : D4 for Fr, Ra, Ac-Lr                          
  Lars Goerigk           : TD-DFT with DH, B97 family of functionals     
  Stefan Grimme          : VdW corrections, initial TS optimization, DFT functionals, gCP, sTDA/sTD-DF 
  Waldemar Hujo          : DFT-NL                                        
  H. Jonsson             : NEB                                           
  Holger Kruse           : gCP                                           
  Marcel Mueller         : wB97X-3c, vDZP basis set                      
  Hagen Neugebauer       : wr2SCAN                                       
  Tobias Risthaus        : range-separated hybrid DFT                    
  Lukas Wittmann         : regularized MP2, r2SCAN double-hybrids, wr2SCAN        
                                                                         
We gratefully acknowledge several colleagues who have allowed us to      
interface, adapt or use parts of their codes:                            
  Ed Valeev, F. Pavosevic, A. Kumar             : LibInt (2-el integral package), F12 methods 
  Garnet Chan, S. Sharma, J. Yang, R. Olivares  : DMRG                   
  Ulf Ekstrom                                   : XCFun DFT Library      
  Mihaly Kallay                                 : mrcc  (arbitrary order and MRCC methods)
  Frank Weinhold                                : gennbo (NPA and NBO analysis)           
  Simon Mueller                                 : openCOSMO-RS                            
  Christopher J. Cramer and Donald G. Truhlar   : smd solvation model                     
  S Lehtola, MJT Oliveira, MAL Marques          : LibXC Library                           
  Liviu Ungur et al                             : ANISO software                          


 Your calculation uses the libint2 library for the computation of 2-el integrals
 For citations please refer to: http://libint.valeyev.net

 Your ORCA version has been built with support for libXC version: 6.2.2
 For citations please refer to: https://libxc.gitlab.io

 This ORCA versions uses:
   CBLAS   interface :  Fast vector & matrix operations
   LAPACKE interface :  Fast linear algebra routines
   SCALAPACK package :  Parallel linear algebra routines
   Shared memory     :  Shared parallel matrices
   BLAS/LAPACK       :  OpenBLAS 0.3.27  USE64BITINT DYNAMIC_ARCH NO_AFFINITY Zen SINGLE_THREADED
        Core in use  :  Zen
   Copyright (c) 2011-2014, The OpenBLAS Project




***************************************
The coordinates will be read from file: xtb_opt.xyz
***************************************


Your calculation utilizes the geometrical counterpoise correction gCP
Please cite in your paper:
H.Kruse, S. Grimme J.Chem.Phys., 136, (2012), 154101 
   

Your calculation utilizes the atom-pairwise dispersion correction
based on EEQ partial charges (D4)


Your calculation utilizes the SMD solvation module
Please cite in your paper:
A.V. Marenich, C.J. Cramer, D.G. Truhlar J. Phys. Chem. B, 113, (2009), 6378 

================================================================================

----- Orbital basis set information -----
Your calculation utilizes the basis: def2-mTZVPP
   Stefan Grimme, Andreas Hansen, Sebastian Ehlert, and Jan-Michael Mewes 
   J. Chem. Phys. 154, 064103 (2021). DOI: 10.1063/5.0040021

----- AuxJ basis set information -----
Your calculation utilizes the auxiliary basis: def2/J
   F. Weigend, Phys. Chem. Chem. Phys. 8, 1057 (2006).

================================================================================
                                        WARNINGS
                       Please study these warnings very carefully!
================================================================================

WARNING: Old DensityContainer found on disk!
         Will remove this file - 
         If you want to keep old densities, please start your calculation with a different basename. 



WARNING: SCAN, rSCAN, or r2SCAN functional requested.
  ===> : libXC variant has now been activated.



================================================================================
                                       INPUT FILE
================================================================================
NAME = xtb_opt.inp
|  1> ! r2scan-3c def2/J RI DEFGRID2 scfconv7 ENGRAD tightSCF miniprint
|  2> %cpcm
|  3>     smd true
|  4>     smdsolvent "water"
|  5> end
|  6> * xyzfile 0 1 xtb_opt.xyz
|  7> 
|  8>                          ****END OF INPUT****
================================================================================

                     *******************************
                     * Energy+Gradient Calculation *
                     *******************************

---------------------------------
CARTESIAN COORDINATES (ANGSTROEM)
---------------------------------
  C      5.412121   -1.569883   -0.371036
  C      4.778034   -1.565076   -1.741732
  O      3.358408   -1.929517   -1.655575
  C      2.508531   -0.961813   -1.295278
  O      2.827918    0.195300   -1.080938
  C      1.095340   -1.479882   -1.199302
  C      0.197703   -0.421719   -0.575767
  H      0.100407    0.453364   -1.223069
  C      0.690216   -0.015564    0.800910
  O      1.269339   -0.769145    1.562270
  O      0.363601    1.248892    1.070655
  C      0.682171    1.750954    2.411787
  C      2.105455    2.252030    2.465858
  S     -1.494232   -1.155105   -0.353602
  P     -2.723360    0.583482   -0.285644
  S     -2.375956    1.940817   -1.626626
  O     -4.162464   -0.141997   -0.290427
  C     -4.735453   -0.627215   -1.539711
  O     -2.680599    1.194641    1.195014
  C     -2.747132    0.353470    2.385311
  H      4.968162   -0.810230    0.277286
  H      5.305205   -2.549829    0.102174
  H      6.479848   -1.352747   -0.473299
  H      5.204067   -2.335519   -2.385995
  H      4.859333   -0.594071   -2.235553
  H      1.099506   -2.407198   -0.618589
  H      0.749213   -1.725777   -2.208862
  H     -0.038200    2.556446    2.563855
  H      0.493652    0.953616    3.134251
  H      2.269430    3.035660    1.721336
  H      2.295015    2.675119    3.457105
  H      2.819023    1.442010    2.295129
  H     -4.054647   -1.328165   -2.029893
  H     -4.954181    0.216256   -2.198504
  H     -5.656177   -1.137582   -1.258382
  H     -2.790355    1.047351    3.224484
  H     -1.849865   -0.266323    2.456772
  H     -3.643550   -0.270496    2.363481

----------------------------
CARTESIAN COORDINATES (A.U.)
----------------------------
  NO LB      ZA    FRAG     MASS         X           Y           Z
   0 C     6.0000    0    12.011   10.227427   -2.966648   -0.701157
   1 C     6.0000    0    12.011    9.029175   -2.957565   -3.291397
   2 O     8.0000    0    15.999    6.346471   -3.646259   -3.128583
   3 C     6.0000    0    12.011    4.740437   -1.817564   -2.447720
   4 O     8.0000    0    15.999    5.343990    0.369064   -2.042677
   5 C     6.0000    0    12.011    2.069893   -2.796572   -2.266353
   6 C     6.0000    0    12.011    0.373604   -0.796934   -1.088042
   7 H     1.0000    0     1.008    0.189742    0.856734   -2.311265
   8 C     6.0000    0    12.011    1.304320   -0.029412    1.513500
   9 O     8.0000    0    15.999    2.398704   -1.453473    2.952263
  10 O     8.0000    0    15.999    0.687107    2.360064    2.023245
  11 C     6.0000    0    12.011    1.289117    3.308823    4.557617
  12 C     6.0000    0    12.011    3.978734    4.255720    4.659797
  13 S    16.0000    0    32.060   -2.823690   -2.182831   -0.668211
  14 P    15.0000    0    30.974   -5.146405    1.102622   -0.539789
  15 S    16.0000    0    32.060   -4.489906    3.667613   -3.073877
  16 O     8.0000    0    15.999   -7.865917   -0.268335   -0.548828
  17 C     6.0000    0    12.011   -8.948709   -1.185264   -2.909633
  18 O     8.0000    0    15.999   -5.065598    2.257544    2.258250
  19 C     6.0000    0    12.011   -5.191328    0.667961    4.507585
  20 H     1.0000    0     1.008    9.388466   -1.531113    0.523995
  21 H     1.0000    0     1.008   10.025384   -4.818479    0.193080
  22 H     1.0000    0     1.008   12.245138   -2.556321   -0.894406
  23 H     1.0000    0     1.008    9.834261   -4.413491   -4.508877
  24 H     1.0000    0     1.008    9.182809   -1.122631   -4.224584
  25 H     1.0000    0     1.008    2.077766   -4.548946   -1.168963
  26 H     1.0000    0     1.008    1.415808   -3.261246   -4.174143
  27 H     1.0000    0     1.008   -0.072187    4.830983    4.844984
  28 H     1.0000    0     1.008    0.932868    1.802074    5.922877
  29 H     1.0000    0     1.008    4.288601    5.736566    3.252854
  30 H     1.0000    0     1.008    4.336949    5.055242    6.532982
  31 H     1.0000    0     1.008    5.327181    2.725004    4.337166
  32 H     1.0000    0     1.008   -7.662172   -2.509869   -3.835942
  33 H     1.0000    0     1.008   -9.362045    0.408664   -4.154570
  34 H     1.0000    0     1.008  -10.688626   -2.149719   -2.377997
  35 H     1.0000    0     1.008   -5.273006    1.979206    6.093392
  36 H     1.0000    0     1.008   -3.495738   -0.503278    4.642627
  37 H     1.0000    0     1.008   -6.885312   -0.511163    4.466332

------------------------------------------------------------------------------
                   ___                                                        
                  /   \      - P O W E R E D   B Y -                         
                 /     \                                                     
                 |  |  |   _    _      __       _____    __    __             
                 |  |  |  | |  | |    /  \     |  _  \  |  |  /  |          
                  \  \/   | |  | |   /    \    | | | |  |  | /  /          
                 / \  \   | |__| |  /  /\  \   | |_| |  |  |/  /          
                |  |  |   |  __  | /  /__\  \  |    /   |      \           
                |  |  |   | |  | | |   __   |  |    \   |  |\   \          
                \     /   | |  | | |  |  |  |  | |\  \  |  | \   \       
                 \___/    |_|  |_| |__|  |__|  |_| \__\ |__|  \__/        
                                                                              
                      - O R C A' S   B I G   F R I E N D -                    
                                      &                                       
                       - I N T E G R A L  F E E D E R -                       
                                                                              
 v1 FN, 2020, v2 2021, v3 2022-2024                                           
------------------------------------------------------------------------------


----------------------
SHARK INTEGRAL PACKAGE
----------------------

Number of atoms                             ...     38
Number of basis functions                   ...    510
Number of shells                            ...    240
Maximum angular momentum                    ...      2
Integral batch strategy                     ... SHARK/LIBINT Hybrid
RI-J (if used) integral strategy            ... SPLIT-RIJ (Revised 2003 algorithm where possible)
Printlevel                                  ...      1
Contraction scheme used                     ... SEGMENTED contraction
Prescreening option                         ... SCHWARTZ
   Thresh                                   ... 3.000e-11
   Tcut                                     ... 1.000e-12
   Tpresel                                  ... 1.000e-12 
Coulomb Range Separation                    ... NOT USED
Exchange Range Separation                   ... NOT USED
Multipole approximations                    ... NOT USED
Finite Nucleus Model                        ... NOT USED
CABS basis                                  ... NOT available
Auxiliary Coulomb fitting basis             ... AVAILABLE
   # of basis functions in Aux-J            ...   1146
   # of shells in Aux-J                     ...    386
   Maximum angular momentum in Aux-J        ...      4
Auxiliary J/K fitting basis                 ... NOT available
Auxiliary Correlation fitting basis         ... NOT available
Auxiliary 'external' fitting basis          ... NOT available

Checking pre-screening integrals            ... done (  0.0 sec) Dimension = 240
Check shell pair data                       ... done (  0.0 sec)
Shell pair information
Shell pair cut-off parameter TPreSel        ...   1.0e-12
Total number of shell pairs                 ...     28920
Shell pairs after pre-screening             ...     20032
Total number of primitive shell pairs       ...    108409
Primitive shell pairs kept                  ...     46537
          la=0 lb=0:   5784 shell pairs
          la=1 lb=0:   7269 shell pairs
          la=1 lb=1:   2316 shell pairs
          la=2 lb=0:   2668 shell pairs
          la=2 lb=1:   1676 shell pairs
          la=2 lb=2:    319 shell pairs

Calculating one electron integrals          ... done (  0.1 sec)
Calculating RI/J V-Matrix + Cholesky decomp.... done (  0.1 sec)
Calculating Nuclear repulsion               ... done (  0.0 sec) ENN=   2099.751225525235 Eh

Diagonalization of the overlap matrix:
Smallest eigenvalue                        ... 5.133e-05
Time for diagonalization                   ...    0.033 sec
Threshold for overlap eigenvalues          ... 1.000e-07
Number of eigenvalues below threshold      ... 0
Time for construction of square roots      ...    0.018 sec
Total time needed                          ...    0.053 sec

-------------------
DFT GRID GENERATION
-------------------

General Integration Accuracy     IntAcc      ... 4.388
Radial Grid Type                 RadialGrid  ... OptM3 with GC (2021)
Angular Grid (max. ang.)         AngularGrid ... 4 (Lebedev-302)
Angular grid pruning method      GridPruning ... 4 (adaptive)
Weight generation scheme         WeightScheme... mBecke (2022)
Basis function cutoff            BFCut       ... 1.0000e-11
Integration weight cutoff        WCut        ... 1.0000e-14
Partially contracted basis set               ... off
Rotationally invariant grid construction     ... off
Angular grids for H and He will be reduced by one unit
Diffuse basis detected: some atoms will have their outermost
                        angular grid increased by 1.

Total number of grid points                  ...   180359
Total number of batches                      ...     2837
Average number of points per batch           ...       63
Average number of grid points per atom       ...     4746
Initializing property integral containers    ... done (  0.0 sec)

SHARK setup successfully completed in   2.6 seconds

Maximum memory used throughout the entire STARTUP-calculation: 98.5 MB
Occupation numbers will be reassigned to an Aufbau configuration
             **** ENERGY FILE WAS UPDATED (xtb_opt.en.tmp) ****
Finished Guess after   0.2 sec
Maximum memory used throughout the entire GUESS-calculation: 54.2 MB
--------------------
CPCM SOLVATION MODEL
--------------------
CPCM parameters:
  Epsilon                                         ...      78.3550
  Refrac                                          ...       1.3328
  Rsolv                                           ...       1.3000
  Surface type                                    ... GAUSSIAN VDW
  Discretization scheme                           ... Constant charge density
    Threshold for H atoms                         ...       5.0000 (charges/Ang^2)
    Threshold for non-H atoms                     ...       5.0000 (charges/Ang^2)
  Epsilon function type                           ...         CPCM
Solvent:                                          ... WATER
SMD-CDS solvent descriptors:
  Soln                                            ...       1.3328
  Soln25                                          ...       1.3323
  Sola                                            ...       0.0000
  Solb                                            ...       0.0000
  Solg                                            ...       0.0000
  Solc                                            ...       0.0000
  Solh                                            ...       0.0000
Radii:
  Scheme                                          ... Element-dependent radii
  Radius for C  used is    3.4960 Bohr (=   1.8500 Ang.)
  Radius for O  used is    2.8724 Bohr (=   1.5200 Ang.)
  Radius for H  used is    2.2677 Bohr (=   1.2000 Ang.)
  Radius for S  used is    4.7054 Bohr (=   2.4900 Ang.)
  Radius for P  used is    4.0062 Bohr (=   2.1200 Ang.)
Calculating surface                               ...        done! (  0.0s)
Cavity surface points                             ...         3067
Cavity Volume                                     ...    2276.0520
Cavity Surface-area                               ...    1278.9503
Calculating surface distance matrix               ...        done! (  0.0s)
Performing Cholesky decomposition & store         ...        done! (  0.3s)
Overall time for CPCM initialization              ...                 0.4s

----------------------------------------D-I-I-S--------------------------------------------
Iteration    Energy (Eh)           Delta-E    RMSDP     MaxDP     DIISErr   Damp  Time(sec)
-------------------------------------------------------------------------------------------
               ***  Starting incremental Fock matrix formation  ***
                              *** Initializing SOSCF ***
---------------------------------------S-O-S-C-F--------------------------------------
Iteration    Energy (Eh)           Delta-E    RMSDP     MaxDP     MaxGrad    Time(sec)
--------------------------------------------------------------------------------------
    1    -1981.5176089963410959     0.00e+00  1.26e-06  1.02e-04  9.55e-06    11.2
               *** Restarting incremental Fock matrix formation ***
    2    -1981.5176089864871756     9.85e-09  2.33e-06  1.57e-04  1.98e-05    11.7
                  *** Gradient check signals convergence ***

               *****************************************************
               *                     SUCCESS                       *
               *           SCF CONVERGED AFTER   2 CYCLES          *
               *****************************************************


SMD CDS free energy correction energy :                 9.36800     Kcal/mol
Total Energy after SMD CDS correction =             -1981.502680136 Eh
             **** ENERGY FILE WAS UPDATED (xtb_opt.en.tmp) ****

----------------
TOTAL SCF ENERGY
----------------

Total Energy       :      -1981.50268013563414 Eh          -53919.42914 eV

Components:
Nuclear Repulsion  :       2099.75122552523544 Eh           57137.13564 eV
Electronic Energy  :      -4081.22912357146561 Eh         -111055.89042 eV
One Electron Energy:      -6906.56063702406846 Eh         -187937.06947 eV
Two Electron Energy:       2825.33151345260285 Eh           76881.17904 eV
CPCM Dielectric    :         -0.03971094025714 Eh              -1.08059 eV
SMD CDS (Gcds)     :          0.01492885085302 Eh               0.40623 eV

Virial components:
Potential Energy   :      -3956.12881719075722 Eh         -107651.73802 eV
Kinetic Energy     :       1974.62613705512285 Eh           53732.30889 eV
Virial Ratio       :          2.00348245318517

DFT components:
N(Alpha)           :       87.000050171037 electrons
N(Beta)            :       87.000050171037 electrons
N(Total)           :      174.000100342074 electrons
E(X)               :     -181.297815184927 Eh       
E(C)               :       -5.958008459330 Eh       
E(XC)              :     -187.255823644257 Eh       

CPCM Solvation Model Properties:
Surface-charge          :         -0.04883749287958
Corrected charge        :         -0.00000000000000
Outlying charge corr.   :          0.00012729402024 Eh               0.00346 eV
Free-energy (cav+disp)  :          0.01492885085302 Eh               0.40623 eV

---------------
SCF CONVERGENCE
---------------

  Last Energy change         ...   -9.8539e-09  Tolerance :   1.0000e-07
  Last MAX-Density change    ...    1.5718e-04  Tolerance :   1.0000e-07
  Last RMS-Density change    ...    2.3269e-06  Tolerance :   5.0000e-09
  Last DIIS Error            ...    9.8252e-05  Tolerance :   1.0000e-07
  Last Orbital Gradient      ...    1.9843e-05  Tolerance :   1.0000e-04
  Last Orbital Rotation      ...    8.7729e-05  Tolerance :   1.0000e-04


----------------
ORBITAL ENERGIES
----------------

  NO   OCC          E(Eh)            E(eV) 
   0   2.0000     -88.588248     -2410.6088 
   1   2.0000     -88.534635     -2409.1499 
   2   2.0000     -76.925644     -2093.2532 
   3   2.0000     -19.010851      -517.3116 
   4   2.0000     -19.007474      -517.2197 
   5   2.0000     -19.001350      -517.0530 
   6   2.0000     -19.001140      -517.0473 
   7   2.0000     -18.954513      -515.7785 
   8   2.0000     -18.954276      -515.7721 
   9   2.0000     -10.177918      -276.9552 
  10   2.0000     -10.176028      -276.9038 
  11   2.0000     -10.100851      -274.8581 
  12   2.0000     -10.088686      -274.5271 
  13   2.0000     -10.087766      -274.5021 
  14   2.0000     -10.087504      -274.4949 
  15   2.0000     -10.086866      -274.4776 
  16   2.0000     -10.061276      -273.7812 
  17   2.0000     -10.021905      -272.7099 
  18   2.0000     -10.021416      -272.6966 
  19   2.0000      -7.881504      -214.4666 
  20   2.0000      -7.829944      -213.0636 
  21   2.0000      -6.603367      -179.6867 
  22   2.0000      -5.828412      -158.5992 
  23   2.0000      -5.825374      -158.5165 
  24   2.0000      -5.818787      -158.3373 
  25   2.0000      -5.777528      -157.2145 
  26   2.0000      -5.770227      -157.0158 
  27   2.0000      -5.769902      -157.0070 
  28   2.0000      -4.749024      -129.2275 
  29   2.0000      -4.748367      -129.2096 
  30   2.0000      -4.747062      -129.1741 
  31   2.0000      -1.081298       -29.4236 
  32   2.0000      -1.076827       -29.3020 
  33   2.0000      -1.047358       -28.5001 
  34   2.0000      -1.007419       -27.4133 
  35   2.0000      -0.996417       -27.1139 
  36   2.0000      -0.992949       -27.0195 
  37   2.0000      -0.811321       -22.0772 
  38   2.0000      -0.751540       -20.4504 
  39   2.0000      -0.741239       -20.1701 
  40   2.0000      -0.731220       -19.8975 
  41   2.0000      -0.698335       -19.0027 
  42   2.0000      -0.673082       -18.3155 
  43   2.0000      -0.662836       -18.0367 
  44   2.0000      -0.651962       -17.7408 
  45   2.0000      -0.623078       -16.9548 
  46   2.0000      -0.590609       -16.0713 
  47   2.0000      -0.542534       -14.7631 
  48   2.0000      -0.528598       -14.3839 
  49   2.0000      -0.517618       -14.0851 
  50   2.0000      -0.497340       -13.5333 
  51   2.0000      -0.493798       -13.4369 
  52   2.0000      -0.489329       -13.3153 
  53   2.0000      -0.467817       -12.7300 
  54   2.0000      -0.459464       -12.5027 
  55   2.0000      -0.455972       -12.4076 
  56   2.0000      -0.450440       -12.2571 
  57   2.0000      -0.446395       -12.1470 
  58   2.0000      -0.436434       -11.8760 
  59   2.0000      -0.425024       -11.5655 
  60   2.0000      -0.420631       -11.4460 
  61   2.0000      -0.414059       -11.2671 
  62   2.0000      -0.410127       -11.1601 
  63   2.0000      -0.404165       -10.9979 
  64   2.0000      -0.391390       -10.6503 
  65   2.0000      -0.383744       -10.4422 
  66   2.0000      -0.374183       -10.1820 
  67   2.0000      -0.365839        -9.9550 
  68   2.0000      -0.360172        -9.8008 
  69   2.0000      -0.354167        -9.6374 
  70   2.0000      -0.346178        -9.4200 
  71   2.0000      -0.340180        -9.2568 
  72   2.0000      -0.335947        -9.1416 
  73   2.0000      -0.333387        -9.0719 
  74   2.0000      -0.326527        -8.8853 
  75   2.0000      -0.317964        -8.6522 
  76   2.0000      -0.310677        -8.4540 
  77   2.0000      -0.309055        -8.4098 
  78   2.0000      -0.292840        -7.9686 
  79   2.0000      -0.288350        -7.8464 
  80   2.0000      -0.284870        -7.7517 
  81   2.0000      -0.281485        -7.6596 
  82   2.0000      -0.274333        -7.4650 
  83   2.0000      -0.261447        -7.1143 
  84   2.0000      -0.249870        -6.7993 
  85   2.0000      -0.236295        -6.4299 
  86   2.0000      -0.228433        -6.2160 
  87   0.0000      -0.062152        -1.6912 
  88   0.0000      -0.036119        -0.9829 
  89   0.0000      -0.031501        -0.8572 
  90   0.0000      -0.000185        -0.0050 
  91   0.0000       0.006077         0.1654 
  92   0.0000       0.025257         0.6873 
  93   0.0000       0.047293         1.2869 
  94   0.0000       0.067718         1.8427 
  95   0.0000       0.071795         1.9536 
  96   0.0000       0.082550         2.2463 
  97   0.0000       0.089725         2.4416 
*Only the first 10 virtual orbitals were printed.
Total SCF time: 0 days 0 hours 0 min 25 sec 
Finished LeanSCF after  30.7 sec

Maximum memory used throughout the entire LEANSCF-calculation: 118.4 MB


-------------------------------------------------------------------------------
                          DFT DISPERSION CORRECTION                            
                                                                               
                                DFTD4 V3.4.0                                   
-------------------------------------------------------------------------------
-------------------------   ----------------
Dispersion correction           -0.016735091
-------------------------   ----------------

------------------   -----------------
gCP correction             0.035555702
------------------   -----------------

-------------------------   --------------------
FINAL SINGLE POINT ENERGY     -1981.483859524201
-------------------------   --------------------

------------------------------------------------------------------------------
                         ORCA SCF GRADIENT CALCULATION
------------------------------------------------------------------------------

Nuc. rep. gradient        (SHARK) ... done (  0.0 sec)
HCore & Overlap gradient  (SHARK) ... done (  1.9 sec)
Split-RIJ-J gradient      (SHARK) ... done (  9.3 sec)
XC gradient                       ... done ( 21.1 sec)
CPCM gradient                     ... done ( 10.6 sec)
SMD gradient                      ... done (  0.0 sec)
Dispersion correction             ... done (  0.0 sec)

-------------------
DISPERSION GRADIENT
-------------------

   1   C   :    0.000109920   -0.000029671    0.000011456
   2   C   :    0.000091878   -0.000017945   -0.000041024
   3   O   :    0.000064366   -0.000054187   -0.000064515
   4   C   :    0.000072475   -0.000046155   -0.000094174
   5   O   :    0.000082821    0.000041928   -0.000092118
   6   C   :    0.000004232   -0.000099899   -0.000074871
   7   C   :    0.000027158   -0.000055103   -0.000069358
   8   H   :    0.000013127    0.000009673   -0.000047708
   9   C   :    0.000059527   -0.000021962    0.000060469
  10   O   :    0.000047353   -0.000074326    0.000117520
  11   O   :    0.000056237    0.000081873    0.000077453
  12   C   :    0.000073027    0.000090133    0.000126485
  13   C   :    0.000072887    0.000099206    0.000092418
  14   S   :   -0.000084653   -0.000188587   -0.000066776
  15   P   :   -0.000222584    0.000065968   -0.000069965
  16   S   :   -0.000118009    0.000236078   -0.000208825
  17   O   :   -0.000104709   -0.000018984   -0.000022127
  18   C   :   -0.000100322   -0.000036593   -0.000068247
  19   O   :   -0.000101813    0.000052605    0.000067639
  20   C   :   -0.000107316   -0.000010629    0.000133138
  21   H   :    0.000062365   -0.000012178    0.000003691
  22   H   :    0.000038409   -0.000019734    0.000011121
  23   H   :    0.000031854   -0.000002973    0.000007554
  24   H   :    0.000023747   -0.000012985   -0.000013700
  25   H   :    0.000030343    0.000000161   -0.000017708
  26   H   :   -0.000001865   -0.000053872   -0.000008964
  27   H   :    0.000005629   -0.000038776   -0.000047649
  28   H   :    0.000029939    0.000053156    0.000042872
  29   H   :    0.000036022    0.000020352    0.000054423
  30   H   :    0.000024589    0.000047118    0.000023081
  31   H   :    0.000019105    0.000024499    0.000022677
  32   H   :    0.000023206    0.000038979    0.000046045
  33   H   :   -0.000045674   -0.000029248   -0.000028705
  34   H   :   -0.000041231   -0.000004317   -0.000025835
  35   H   :   -0.000047788   -0.000022955   -0.000014958
  36   H   :   -0.000043767    0.000011531    0.000061420
  37   H   :   -0.000041900   -0.000016497    0.000063942
  38   H   :   -0.000038585   -0.000005681    0.000053820

Difference to translation invariance:
           :   -0.0000000000    0.0000000000   -0.0000000000

Difference to rotation invariance:
           :    0.0000000000    0.0000000000    0.0000000000

Norm of the Dispersion gradient    ...    0.0007403950
RMS gradient                       ...    0.0000693443
MAX gradient                       ...    0.0002360781
gCP correction                   ... done

------------------
CARTESIAN GRADIENT
------------------

   1   C   :   -0.000055375   -0.000001032    0.000003717
   2   C   :   -0.000011607    0.000010017    0.000056997
   3   O   :    0.000032478    0.000254665    0.000006575
   4   C   :   -0.000075288    0.000089146    0.000051938
   5   O   :    0.000021818   -0.000295647   -0.000122507
   6   C   :    0.000000020   -0.000137267   -0.000137289
   7   C   :    0.000139326    0.000081513    0.000066190
   8   H   :   -0.000012624   -0.000054064    0.000012716
   9   C   :   -0.000283999    0.000066714    0.000034544
  10   O   :    0.000082814    0.000071266   -0.000062425
  11   O   :    0.000106705   -0.000109417    0.000187552
  12   C   :   -0.000022960   -0.000095371   -0.000165811
  13   C   :    0.000073654    0.000053558    0.000008671
  14   S   :   -0.000024131   -0.000064823   -0.000128815
  15   P   :    0.000118794    0.000138344    0.000198988
  16   S   :    0.000024111   -0.000080343   -0.000030915
  17   O   :   -0.000023500    0.000040531    0.000008277
  18   C   :    0.000056283   -0.000048574   -0.000015342
  19   O   :   -0.000046483    0.000004254    0.000062115
  20   C   :    0.000001123   -0.000011863    0.000064839
  21   H   :   -0.000012838   -0.000080816   -0.000112411
  22   H   :    0.000006774    0.000154122   -0.000053840
  23   H   :   -0.000124841   -0.000011166    0.000066037
  24   H   :   -0.000005402    0.000043871    0.000073668
  25   H   :   -0.000009448   -0.000123289    0.000030206
  26   H   :    0.000010137    0.000059456   -0.000035458
  27   H   :    0.000025376   -0.000003983    0.000066993
  28   H   :    0.000150885   -0.000149848    0.000013621
  29   H   :    0.000054745    0.000113913   -0.000130477
  30   H   :   -0.000051993   -0.000180168    0.000190064
  31   H   :    0.000016343   -0.000014768   -0.000133438
  32   H   :   -0.000204164    0.000179251    0.000035738
  33   H   :   -0.000021584    0.000041575    0.000013455
  34   H   :    0.000007278   -0.000011970   -0.000025242
  35   H   :    0.000051285    0.000019534   -0.000045196
  36   H   :   -0.000009591   -0.000069455   -0.000073086
  37   H   :   -0.000083223    0.000080176    0.000004128
  38   H   :    0.000099101    0.000041956    0.000015223

Difference to translation invariance:
           :    0.0000000000   -0.0000000000   -0.0000000000

Difference to rotation invariance:
           :    0.0003039459   -0.0001187696   -0.0005550386

Norm of the Cartesian gradient     ...    0.0009881177
RMS gradient                       ...    0.0000925457
MAX gradient                       ...    0.0002956467

-------
TIMINGS
-------

Total SCF gradient time     ....       42.901 sec

Densities                   ....       0.005 sec  (  0.0%)
One electron gradient       ....       1.878 sec  (  4.4%)
RI-J Coulomb gradient       ....       9.271 sec  ( 21.6%)
XC gradient                 ....      21.092 sec  ( 49.2%)
CPCM gradient               ....      10.607 sec  ( 24.7%)
   A-Matrix (El+Nuc)        ....       0.311 sec  (  0.7%)
   Potential                ....      10.296 sec  ( 24.0%)
SMD gradient                ....       0.003 sec  (  0.0%)

Maximum memory used throughout the entire SCFGRAD-calculation: 82.3 MB

------------------------------------------------------------------------------
                              ORCA PROPERTY CALCULATIONS
------------------------------------------------------------------------------

GBWName                                 ... xtb_opt.gbw
Number of atoms                         ...     38
Number of basis functions               ...    510
Max core memory                         ...   1024 MB

Electric properties:
Dipole moment                           ... YES
Quadrupole moment                       ...  NO
Static polarizability (Dipole/Dipole)   ...  NO
Static polarizability (Dipole/Quad.)    ...  NO
Static polarizability (Quad./Quad.)     ...  NO
Static polarizability (Velocity)        ...  NO

Atomic electric properties:
Dipole moment                           ...  NO
Quadrupole moment                       ...  NO
Static polarizability                   ...  NO

Choice of electric origin               ... Center of mass
Position of electric origin             ...    -0.338043     0.058204    -0.208175

General magnetic properties:
Magnetizability                         ...  NO

EPR properties:
g-Tensor (aka g-matrix)                 ...  NO
Zero-Field splitting spin-orbit         ...  NO
Zero-field splitting spin-spin          ...  NO
Hyperfine couplings                     ...  NO (   0 nuclei)
Quadrupole couplings                    ...  NO (   0 nuclei)
Contact density                         ...  NO (   0 nuclei)

NMR properties:
Chemical shifts                         ...  NO (   0 nuclei)
Spin-rotation constants                 ...  NO (   0 nuclei)
Spin-spin couplings                     ...  NO (   0 nuclei,    0 pairs)

Choice of magnetic origin               ... GIAO
Position of magnetic origin             ...     0.000000     0.000000     0.000000

Properties with geometric perturbations:
SCF Hessian                             ...  NO
IR spectrum                             ...  NO
VCD spectrum                            ...  NO
X-ray spectroscopy properties:
SCF XES/XAS/RIXS spectra                ...  NO


-------------
DIPOLE MOMENT
-------------

Method             : SCF
Type of density    : Electron Density
Multiplicity       :   1
Irrep              :   0
Energy             : -1981.5026801356341366 Eh
Relativity type    : 
Basis              : AO
                                X                 Y                 Z
Electronic contribution:    -18.526112163       1.741424918      -8.208323236
Nuclear contribution   :     18.405776484      -3.319380504       8.726233321
                        -----------------------------------------
Total Dipole Moment    :     -0.120335679      -1.577955586       0.517910085
                        -----------------------------------------
Magnitude (a.u.)       :      1.665129233
Magnitude (Debye)      :      4.232422154



--------------------
Rotational spectrum 
--------------------
 
Rotational constants in cm-1:             0.015397             0.005603             0.004818 
Rotational constants in MHz :           461.596017           167.977818           144.440797 

Dipole components along the rotational axes: 
x,y,z [a.u.] :     0.185635    -0.435353     1.596453 
x,y,z [Debye]:     0.471847    -1.106579     4.057862 

 

Dipole moment calculation done in   1.6 sec 

Maximum memory used throughout the entire PROP-calculation: 50.9 MB

--------------------------------
SUGGESTED CITATIONS FOR THIS RUN
--------------------------------

Below you find a list of papers that are relevant to this ORCA run
We neither can nor want to force you to cite these papers, but we appreciate if you do
You receive ORCA, which is the product of decades of hard work by many enthusiastic individuals, for free
The only thing we kindly ask in return is that you cite our papers,
We deeply appreciate it, if you show your appreciation for ORCA by not just citing the generic ORCA reference.

Please note that relegating all ORCA citations to the supporting information does *not* help us.
SI sections are not indexed - citations you put there will not count into any citation statistics
But we need these citations in order to attract the funding resources that allow us to do what we are doing

Therefore, if you are a happy ORCA user, please consider citing a few of the papers listed below in the main body of your paper

In addition to the list printed below, the program has created the file xtb_opt.bibtex that contains the list in bibtex format
You can import this file easily into all common literature databanks and citation aid programs


List of essential papers. We consider these as the minimum necessary citations

  1. Neese,F.
     Software update: the ORCA program system, version 5.0
     WIRES Comput. Molec. Sci., 2022 12(1)e1606
     doi.org/10.1002/wcms.1606
  2. Grimme,S.; Hansen,A.; Ehlert,S.; Mewes,J.
     r2SCAN-3c: A 'Swiss army knife' composite electronic-structure method
     J. Chem. Phys., 2021 154 064103
     doi.org/10.1063/5.0040021

List of papers to cite with high priority. The work reported in these papers was absolutely
necessary for this run to complete.
Our perspective: the developers of density functionals and basis sets usually get cited in chemistry papers
Good! But without the algorithms to do something with them, the functionals or basis sets would not do anything.
Hence, in our opinion, the algorithm design and method developments papers are equally worthy of getting cited

  1. Neese,F.
     An improvement of the resolution of the identity approximation for the formation of the Coulomb matrix
     J. Comp. Chem., 2003 24(14)1740-1747
     doi.org/10.1002/jcc.10318
  2. Garcia-Rates,M.; Neese,F.
     Effect of the Solute Cavity on the Solvation Energy and its Derivatives within the Framework of the Gaussian Charge Scheme
     J. Comput. Chem., 2020 41 922-939
     doi.org/10.1002/jcc.26139
  3. Neese,F.
     The SHARK Integral Generation and Digestion System
     J. Comp. Chem., 2022  1-16
     doi.org/10.1002/jcc.26942
  4. Lehtola,S.; Steigemann,C.; Oliveira,M.; Marques,M.
     Recent developments in Libxc - A comprehensive library of functionals for density functional theory
     Software X, 2018 7 
     doi.org/10.1016/j.softx.2017.11.002
  5. Caldeweyher,E.; Bannwarth,C.; Grimme,S.
     Extension of the D3 dispersion coefficient model
     J. Chem. Phys., 2017 147 034112
     doi.org/10.1063/1.4993215
  6. Caldeweyher,E.; Ehlert,S.; Hansen,A.; Neugebauer,H.; Spicher,S.; Bannwarth,C.; Grimme,S.
     A generally applicable atomic-charge dependent London dispersion correction
     J. Chem. Phys., 2019 150 154122
     doi.org/10.1063/1.5090222
  7. Caldeweyher,E.; Mewes,J.; Ehlert,S.; Grimme,S.
     Extension and evaluation of the D4 London-dispersion model for periodic systems
     Phys. Chem. Chem. Phys., 2020 22(16)8499-8512
     doi.org/10.1039/D0CP00502A
  8. Wittmann,L.; Gordiy,I.; Friede,M.; Helmich-Paris,B.; Grimme,S.; Hansen,A.; Bursch,M.
     Extension of the D3 and D4 London Dispersion Corrections to the full Actinides Series
     Phys. Chem. Chem. Phys., 2024 26(32)21379-21394
     doi.org/https://doi.org/10.1039/D4CP01514B 

List of suggested additional citations. These are papers that are important in the 'surrounding' of 
of this run, or papers that preceded the highly important papers. If you like your results we are grateful for a citation.

  1. Neese,F.
     The ORCA program system
     WIRES Comput. Molec. Sci., 2012 2(1)73-78
     doi.org/10.1002/wcms.81
  2. Neese,F.
     Software update: the ORCA program system, version 4.0
     WIRES Comput. Molec. Sci., 2018 8(1)1-6
     doi.org/10.1002/wcms.1327
  3. Neese,F.; Wennmohs,F.; Becker,U.; Riplinger,C.
     The ORCA quantum chemistry program package
     J. Chem. Phys., 2020 152 Art. No. L224108
     doi.org/10.1063/5.0004608

List of optional additional citations

  1. Neese,F.
     Approximate second-order SCF convergence for spin unrestricted wavefunctions
     Chem. Phys. Lett., 2000 325(1-3)93-98
     doi.org/10.1016/s0009-2614(00)00662-x

Timings for individual modules:

Sum of individual times          ...       80.336 sec (=   1.339 min)
Startup calculation              ...        2.625 sec (=   0.044 min)   3.3 %
SCF iterations                   ...       30.928 sec (=   0.515 min)  38.5 %
Property calculations            ...        1.730 sec (=   0.029 min)   2.2 %
SCF Gradient evaluation          ...       45.052 sec (=   0.751 min)  56.1 %
                             ****ORCA TERMINATED NORMALLY****
TOTAL RUN TIME: 0 days 0 hours 1 minutes 27 seconds 217 msec
  ------------------------------------------------------------------------
          * successful ORCA run, taking over control again...

         :::::::::::::::::::::::::::::::::::::::::::::::::::::
         ::                  ORCA SUMMARY                   ::
         :::::::::::::::::::::::::::::::::::::::::::::::::::::
         :: total energy           -1981.483859524201 Eh    ::
         :: gradient norm              0.000988117686 Eh/a0 ::
         :: HOMO-LUMO gap              0.000000000000 eV    ::
         :::::::::::::::::::::::::::::::::::::::::::::::::::::

      ----------------------------------------------------------- 
     |                       L-ANC optimizer                     |
      ----------------------------------------------------------- 
          low memory version by Sebastian Ehlert

          ...................................................
          :                      SETUP                      :
          :.................................................:
          :   energy convergence        0.5000000E-05 Eh    :
          :   grad. convergence         0.1000000E-02 Eh/a0 :
          :   optimization log               true           :
          :   writing optlog all                1     steps :
          :   Hessian reset                     8     steps :
          :   maximium step len.        1.0000000     a0    :
          :   LBFGS images                      8           :
          ...................................................
 * calculating model hessian...
Using Lindh-Hessian (1995)
 Shifting diagonal of input Hessian by   1.007623793499079E-002
 Lowest  eigenvalues of input Hessian
    0.010000    0.000000    0.000000    0.000000    0.000000    0.000000
    0.000000    0.010395    0.010508    0.010835    0.011309    0.011497
    0.011883    0.012143    0.012692    0.013940    0.014863    0.015194
 Highest eigenvalues
    1.724368    1.725148    1.739145    1.895180    2.292548    2.303854
 

........................................................................
.............................. CYCLE    1 ..............................
........................................................................
                         * ORCA takes the control...
  ------------------------------------------------------------------------

                                 *****************
                                 * O   R   C   A *
                                 *****************

                                            #,                                       
                                            ###                                      
                                            ####                                     
                                            #####                                    
                                            ######                                   
                                           ########,                                 
                                     ,,################,,,,,                         
                               ,,#################################,,                 
                          ,,##########################################,,             
                       ,#########################################, ''#####,          
                    ,#############################################,,   '####,        
                  ,##################################################,,,,####,       
                ,###########''''           ''''###############################       
              ,#####''   ,,,,##########,,,,          '''####'''          '####       
            ,##' ,,,,###########################,,,                        '##       
           ' ,,###''''                  '''############,,,                           
         ,,##''                                '''############,,,,        ,,,,,,###''
      ,#''                                            '''#######################'''  
     '                                                          ''''####''''         
             ,#######,   #######,   ,#######,      ##                                
            ,#'     '#,  ##    ##  ,#'     '#,    #''#        ,####,   ,####,        
            ##       ##  ##   ,#'  ##            #'  '#       #'       #'  '#        
            ##       ##  #######   ##           ,######,      #####,   #    #        
            '#,     ,#'  ##    ##  '#,     ,#' ,#      #,     #,   #   #,  ,#        
             '#######'   ##     ##  '#######'  #'      '#     '####' # '####'        



                #########################################################
                #                        -***-                          #
                #          Department of theory and spectroscopy        #
                #                                                       #
                #                      Frank Neese                      #
                #                                                       #
                #     Directorship, Architecture, Infrastructure        #
                #                    SHARK, DRIVERS                     #
                #        Core code/Algorithms in most modules           #
                #                                                       #
                #        Max Planck Institute fuer Kohlenforschung      #
                #                Kaiser Wilhelm Platz 1                 #
                #                 D-45470 Muelheim/Ruhr                 #
                #                      Germany                          #
                #                                                       #
                #                  All rights reserved                  #
                #                        -***-                          #
                #########################################################


                         Program Version 6.0.1  -  RELEASE   -


 With contributions from (in alphabetic order):
[Max-Planck-Institut fuer Kohlenforschung]                               
  Daniel Aravena         : Magnetic Suceptibility                        
  Michael Atanasov       : Ab Initio Ligand Field Theory (pilot matlab implementation)
  Alexander A. Auer      : GIAO ZORA, VPT2 properties, NMR spectrum      
  Ute Becker             : All parallelization in ORCA, NUMFREQ, NUMCALC 
  Giovanni Bistoni       : ED, misc. LED, open-shell LED, HFLD           
  Martin Brehm           : Molecular dynamics                            
  Dmytro Bykov           : pre 5.0 version of the SCF Hessian            
  Marcos Casanova-Páez   : Triplet and SCS-CIS(D). UHF-(DLPNO)-IP/EA/STEOM-CCSD. UHF-CVS-IP/STEOM-CCSD   
  Vijay G. Chilkuri      : MRCI spin determinant printing, contributions to CSF-ICE 
  Pauline Colinet        : FMM embedding                                 
  Dipayan Datta          : RHF DLPNO-CCSD density                        
  Achintya Kumar Dutta   : EOM-CC, STEOM-CC                              
  Nicolas Foglia         : Exact transition moments, OPA infrastructure, MCD improvements    
  Dmitry Ganyushin       : Spin-Orbit,Spin-Spin,Magnetic field MRCI      
  Miquel Garcia-Rates    : C-PCM and meta-GGA Hessian, CCSD/C-PCM, Gaussian charge scheme 
  Tiago L. C. Gouveia    : GS-ROHF, GS-ROCIS                             
  Yang Guo               : DLPNO-NEVPT2, F12-NEVPT2, CIM, IAO-localization        
  Andreas Hansen         : Spin unrestricted coupled pair/coupled cluster methods 
  Ingolf Harden          : AUTO-CI MPn and infrastructure                
  Benjamin Helmich-Paris : MC-RPA, TRAH-(SCF,CASSCF), AVAS, COSX integrals, SCF dyn. polar. 
  Lee Huntington         : MR-EOM, pCC                                   
  Robert Izsak           : Overlap fitted RIJCOSX, COSX-SCS-MP3, EOM     
  Riya Kayal             : Wick's Theorem for AUTO-CI, AUTO-CI UHF-CCSDT 
  Emily Kempfer          : AUTO-CI, RHF CISDT and CCSDT                  
  Christian Kollmar      : KDIIS, OOCD, Brueckner-CCSD(T), CCSD density, CASPT2, CASPT2-K, improved NEVPT2 
  Axel Koslowski         : Symmetry handling                             
  Simone Kossmann        : meta-GGA functionals, TD-DFT gradient, OOMP2, (MP2 Hessian; deprecated post 5.0) 
  Lucas Lang             : DCDCAS                                        
  Marvin Lechner         : AUTO-CI (C++ implementation), FIC-MRCC        
  Spencer Leger          : CASSCF response                               
  Dagmar Lenk            : GEPOL surface, SMD, ORCA-2-JSON               
  Dimitrios Liakos       : Extrapolation schemes; Compound Job, initial MDCI parallelization 
  Dimitrios Manganas     : Further ROCIS development; embedding schemes. LFT, Crystal Embedding 
  Dimitrios Pantazis     : SARC Basis sets                               
  Anastasios Papadopoulos: AUTO-CI, single reference methods and gradients 
  Taras Petrenko         : pre 6.0 DFT Hessian and TD-DFT gradient, (ASA, deprecated), ECA, 1-Electron XAS/XES, NRVS 
  Peter Pinski           : DLPNO-MP2, DLPNO-MP2 Gradient                 
  Christoph Reimann      : Effective Core Potentials                     
  Marius Retegan         : Local ZFS, SOC                                
  Christoph Riplinger    : Optimizer, TS searches, QM/MM, DLPNO-CCSD(T), (RO)-DLPNO pert. Triples 
  Michael Roemelt        : Original ROCIS implementation                 
  Masaaki Saitow         : Open-shell DLPNO-CCSD energy and density      
  Barbara Sandhoefer     : DKH picture change effects                    
  Kantharuban Sivalingam : CASSCF convergence/infrastructure, NEVPT2 and variants, FIC-MRCI 
  Bernardo de Souza      : ESD, SOC TD-DFT                               
  Georgi L. Stoychev     : AutoAux, RI-MP2 NMR, DLPNO-MP2 response, X2C  
  Van Anh Tran           : RI-MP2 g-tensors                              
  Willem Van den Heuvel  : Paramagnetic NMR                              
  Zikuan Wang            : NOTCH, Electric field optimization            
  Frank Wennmohs         : Technical directorship and infrastructure     
  Hang Xu                : AUTO-CI-Response properties                   
                                                                         
[FACCTs GmbH]                                                            
  Markus Bursch, Miquel Garcia-Rates, Christoph Riplinger, Bernardo de Souza, Georgi L. Stoychev 
                                                                 
  APM, Basis sets (HGBS, AHGBS, def-TZVP (Ac-Lr), def2-XVPD (La-Lu)), CI-OPT, improved COSX, DLPNO-Multilevel,           
  DOCKER, DRACO, updates on ESD, GOAT, IRC, LR-CPCM, MBIS, meta-GGA TD-DFT gradient, ML-optimized integration grids, 
  MM, NACMEs, nearIR, NEB, NEB-TS, NL-DFT gradient (VV10), 2- and 3-layer-ONIOM, interface openCOSMO-RS, QMMM,   
  Crystal-QMMM, SF, symmetry and pop. for TD-DFT, r2SCAN hybrids, SOLVATOR                                   
                                                                         
[Other institutions]                                                     
  V. Asgeirsson          : NEB                                           
  Christoph Bannwarth    : sTDA-DFT, sTD-DFT, PBEh-3c, B97-3c, D3        
  Sebastian Ehlert       : rSCAN, r2SCAN, r2SCAN-3c, D4, dhf basis sets  
  Marvin Friede          : D4 for Fr, Ra, Ac-Lr                          
  Lars Goerigk           : TD-DFT with DH, B97 family of functionals     
  Stefan Grimme          : VdW corrections, initial TS optimization, DFT functionals, gCP, sTDA/sTD-DF 
  Waldemar Hujo          : DFT-NL                                        
  H. Jonsson             : NEB                                           
  Holger Kruse           : gCP                                           
  Marcel Mueller         : wB97X-3c, vDZP basis set                      
  Hagen Neugebauer       : wr2SCAN                                       
  Tobias Risthaus        : range-separated hybrid DFT                    
  Lukas Wittmann         : regularized MP2, r2SCAN double-hybrids, wr2SCAN        
                                                                         
We gratefully acknowledge several colleagues who have allowed us to      
interface, adapt or use parts of their codes:                            
  Ed Valeev, F. Pavosevic, A. Kumar             : LibInt (2-el integral package), F12 methods 
  Garnet Chan, S. Sharma, J. Yang, R. Olivares  : DMRG                   
  Ulf Ekstrom                                   : XCFun DFT Library      
  Mihaly Kallay                                 : mrcc  (arbitrary order and MRCC methods)
  Frank Weinhold                                : gennbo (NPA and NBO analysis)           
  Simon Mueller                                 : openCOSMO-RS                            
  Christopher J. Cramer and Donald G. Truhlar   : smd solvation model                     
  S Lehtola, MJT Oliveira, MAL Marques          : LibXC Library                           
  Liviu Ungur et al                             : ANISO software                          


 Your calculation uses the libint2 library for the computation of 2-el integrals
 For citations please refer to: http://libint.valeyev.net

 Your ORCA version has been built with support for libXC version: 6.2.2
 For citations please refer to: https://libxc.gitlab.io

 This ORCA versions uses:
   CBLAS   interface :  Fast vector & matrix operations
   LAPACKE interface :  Fast linear algebra routines
   SCALAPACK package :  Parallel linear algebra routines
   Shared memory     :  Shared parallel matrices
   BLAS/LAPACK       :  OpenBLAS 0.3.27  USE64BITINT DYNAMIC_ARCH NO_AFFINITY Zen SINGLE_THREADED
        Core in use  :  Zen
   Copyright (c) 2011-2014, The OpenBLAS Project




***************************************
The coordinates will be read from file: xtb_opt.xyz
***************************************


Your calculation utilizes the geometrical counterpoise correction gCP
Please cite in your paper:
H.Kruse, S. Grimme J.Chem.Phys., 136, (2012), 154101 
   

Your calculation utilizes the atom-pairwise dispersion correction
based on EEQ partial charges (D4)


Your calculation utilizes the SMD solvation module
Please cite in your paper:
A.V. Marenich, C.J. Cramer, D.G. Truhlar J. Phys. Chem. B, 113, (2009), 6378 

================================================================================

----- Orbital basis set information -----
Your calculation utilizes the basis: def2-mTZVPP
   Stefan Grimme, Andreas Hansen, Sebastian Ehlert, and Jan-Michael Mewes 
   J. Chem. Phys. 154, 064103 (2021). DOI: 10.1063/5.0040021

----- AuxJ basis set information -----
Your calculation utilizes the auxiliary basis: def2/J
   F. Weigend, Phys. Chem. Chem. Phys. 8, 1057 (2006).

================================================================================
                                        WARNINGS
                       Please study these warnings very carefully!
================================================================================

WARNING: Old DensityContainer found on disk!
         Will remove this file - 
         If you want to keep old densities, please start your calculation with a different basename. 



WARNING: SCAN, rSCAN, or r2SCAN functional requested.
  ===> : libXC variant has now been activated.



================================================================================
                                       INPUT FILE
================================================================================
NAME = xtb_opt.inp
|  1> ! r2scan-3c def2/J RI DEFGRID2 scfconv7 ENGRAD tightSCF miniprint
|  2> %cpcm
|  3>     smd true
|  4>     smdsolvent "water"
|  5> end
|  6> * xyzfile 0 1 xtb_opt.xyz
|  7> 
|  8>                          ****END OF INPUT****
================================================================================

                     *******************************
                     * Energy+Gradient Calculation *
                     *******************************

---------------------------------
CARTESIAN COORDINATES (ANGSTROEM)
---------------------------------
  C      5.414218   -1.571207   -0.371759
  C      4.778446   -1.565054   -1.741964
  O      3.358759   -1.929557   -1.654656
  C      2.509267   -0.961510   -1.293698
  O      2.828736    0.195668   -1.078515
  C      1.095761   -1.479164   -1.198203
  C      0.197892   -0.421049   -0.575146
  H      0.100675    0.453998   -1.222670
  C      0.691621   -0.014514    0.801047
  O      1.268246   -0.768852    1.563605
  O      0.364253    1.249973    1.070594
  C      0.681665    1.752097    2.412308
  C      2.105722    2.251807    2.466003
  S     -1.493690   -1.154471   -0.350843
  P     -2.724492    0.582645   -0.287688
  S     -2.378663    1.942559   -1.626551
  O     -4.163395   -0.143103   -0.290922
  C     -4.737629   -0.627717   -1.539737
  O     -2.680392    1.193684    1.193010
  C     -2.747094    0.352885    2.383681
  H      4.971651   -0.811597    0.278016
  H      5.307213   -2.551716    0.100944
  H      6.482090   -1.354511   -0.475593
  H      5.203547   -2.335092   -2.387556
  H      4.859368   -0.593358   -2.234985
  H      1.099425   -2.406799   -0.617761
  H      0.749764   -1.724694   -2.208069
  H     -0.038708    2.558252    2.563349
  H      0.492194    0.954718    3.134999
  H      2.270398    3.035650    1.721129
  H      2.295043    2.674677    3.457655
  H      2.819336    1.441100    2.295497
  H     -4.057071   -1.328641   -2.030550
  H     -4.956458    0.216246   -2.197873
  H     -5.658259   -1.137934   -1.257547
  H     -2.789346    1.047203    3.222831
  H     -1.850211   -0.267837    2.455095
  H     -3.644352   -0.270230    2.362420

----------------------------
CARTESIAN COORDINATES (A.U.)
----------------------------
  NO LB      ZA    FRAG     MASS         X           Y           Z
   0 C     6.0000    0    12.011   10.231389   -2.969150   -0.702522
   1 C     6.0000    0    12.011    9.029953   -2.957523   -3.291834
   2 O     8.0000    0    15.999    6.347134   -3.646335   -3.126846
   3 C     6.0000    0    12.011    4.741828   -1.816991   -2.444735
   4 O     8.0000    0    15.999    5.345536    0.369759   -2.038098
   5 C     6.0000    0    12.011    2.070689   -2.795215   -2.264276
   6 C     6.0000    0    12.011    0.373961   -0.795666   -1.086869
   7 H     1.0000    0     1.008    0.190249    0.857931   -2.310512
   8 C     6.0000    0    12.011    1.306974   -0.027427    1.513759
   9 O     8.0000    0    15.999    2.396637   -1.452920    2.954784
  10 O     8.0000    0    15.999    0.688338    2.362106    2.023130
  11 C     6.0000    0    12.011    1.288160    3.310984    4.558602
  12 C     6.0000    0    12.011    3.979237    4.255299    4.660070
  13 S    16.0000    0    32.060   -2.822665   -2.181634   -0.662996
  14 P    15.0000    0    30.974   -5.148545    1.101040   -0.543652
  15 S    16.0000    0    32.060   -4.495021    3.670905   -3.073736
  16 O     8.0000    0    15.999   -7.867676   -0.270426   -0.549762
  17 C     6.0000    0    12.011   -8.952821   -1.186214   -2.909680
  18 O     8.0000    0    15.999   -5.065208    2.255735    2.254462
  19 C     6.0000    0    12.011   -5.191255    0.666855    4.504504
  20 H     1.0000    0     1.008    9.395058   -1.533697    0.525375
  21 H     1.0000    0     1.008   10.029179   -4.822045    0.190757
  22 H     1.0000    0     1.008   12.249375   -2.559655   -0.898741
  23 H     1.0000    0     1.008    9.833279   -4.412685   -4.511826
  24 H     1.0000    0     1.008    9.182874   -1.121284   -4.223510
  25 H     1.0000    0     1.008    2.077612   -4.548191   -1.167398
  26 H     1.0000    0     1.008    1.416848   -3.259200   -4.172647
  27 H     1.0000    0     1.008   -0.073148    4.834396    4.844028
  28 H     1.0000    0     1.008    0.930112    1.804155    5.924289
  29 H     1.0000    0     1.008    4.290430    5.736546    3.252462
  30 H     1.0000    0     1.008    4.337003    5.054408    6.534021
  31 H     1.0000    0     1.008    5.327772    2.723285    4.337861
  32 H     1.0000    0     1.008   -7.666754   -2.510767   -3.837184
  33 H     1.0000    0     1.008   -9.366349    0.408646   -4.153379
  34 H     1.0000    0     1.008  -10.692559   -2.150383   -2.376419
  35 H     1.0000    0     1.008   -5.271099    1.978928    6.090269
  36 H     1.0000    0     1.008   -3.496391   -0.506138    4.639457
  37 H     1.0000    0     1.008   -6.886827   -0.510661    4.464327

------------------------------------------------------------------------------
                   ___                                                        
                  /   \      - P O W E R E D   B Y -                         
                 /     \                                                     
                 |  |  |   _    _      __       _____    __    __             
                 |  |  |  | |  | |    /  \     |  _  \  |  |  /  |          
                  \  \/   | |  | |   /    \    | | | |  |  | /  /          
                 / \  \   | |__| |  /  /\  \   | |_| |  |  |/  /          
                |  |  |   |  __  | /  /__\  \  |    /   |      \           
                |  |  |   | |  | | |   __   |  |    \   |  |\   \          
                \     /   | |  | | |  |  |  |  | |\  \  |  | \   \       
                 \___/    |_|  |_| |__|  |__|  |_| \__\ |__|  \__/        
                                                                              
                      - O R C A' S   B I G   F R I E N D -                    
                                      &                                       
                       - I N T E G R A L  F E E D E R -                       
                                                                              
 v1 FN, 2020, v2 2021, v3 2022-2024                                           
------------------------------------------------------------------------------


----------------------
SHARK INTEGRAL PACKAGE
----------------------

Number of atoms                             ...     38
Number of basis functions                   ...    510
Number of shells                            ...    240
Maximum angular momentum                    ...      2
Integral batch strategy                     ... SHARK/LIBINT Hybrid
RI-J (if used) integral strategy            ... SPLIT-RIJ (Revised 2003 algorithm where possible)
Printlevel                                  ...      1
Contraction scheme used                     ... SEGMENTED contraction
Prescreening option                         ... SCHWARTZ
   Thresh                                   ... 3.000e-11
   Tcut                                     ... 1.000e-12
   Tpresel                                  ... 1.000e-12 
Coulomb Range Separation                    ... NOT USED
Exchange Range Separation                   ... NOT USED
Multipole approximations                    ... NOT USED
Finite Nucleus Model                        ... NOT USED
CABS basis                                  ... NOT available
Auxiliary Coulomb fitting basis             ... AVAILABLE
   # of basis functions in Aux-J            ...   1146
   # of shells in Aux-J                     ...    386
   Maximum angular momentum in Aux-J        ...      4
Auxiliary J/K fitting basis                 ... NOT available
Auxiliary Correlation fitting basis         ... NOT available
Auxiliary 'external' fitting basis          ... NOT available

Checking pre-screening integrals            ... done (  0.0 sec) Dimension = 240
Check shell pair data                       ... done (  0.0 sec)
Shell pair information
Shell pair cut-off parameter TPreSel        ...   1.0e-12
Total number of shell pairs                 ...     28920
Shell pairs after pre-screening             ...     20031
Total number of primitive shell pairs       ...    108409
Primitive shell pairs kept                  ...     46535
          la=0 lb=0:   5784 shell pairs
          la=1 lb=0:   7268 shell pairs
          la=1 lb=1:   2316 shell pairs
          la=2 lb=0:   2668 shell pairs
          la=2 lb=1:   1676 shell pairs
          la=2 lb=2:    319 shell pairs

[...]
------------------------------------------------------------------------------

Nuc. rep. gradient        (SHARK) ... done (  0.0 sec)
HCore & Overlap gradient  (SHARK) ... done (  1.9 sec)
Split-RIJ-J gradient      (SHARK) ... done (  9.5 sec)
XC gradient                       ... done ( 21.4 sec)
CPCM gradient                     ... done (  9.9 sec)
SMD gradient                      ... done (  0.0 sec)
Dispersion correction             ... done (  0.0 sec)

-------------------
DISPERSION GRADIENT
-------------------

   1   C   :    0.000109822   -0.000029682    0.000011449
   2   C   :    0.000091834   -0.000017944   -0.000041058
   3   O   :    0.000064342   -0.000054189   -0.000064511
   4   C   :    0.000072416   -0.000046133   -0.000094128
   5   O   :    0.000082770    0.000041942   -0.000091997
   6   C   :    0.000004238   -0.000099845   -0.000074855
   7   C   :    0.000027226   -0.000055093   -0.000069349
   8   H   :    0.000013170    0.000009658   -0.000047705
   9   C   :    0.000059631   -0.000021872    0.000060398
  10   O   :    0.000047349   -0.000074326    0.000117480
  11   O   :    0.000056318    0.000081945    0.000077459
  12   C   :    0.000072951    0.000090182    0.000126430
  13   C   :    0.000072875    0.000099186    0.000092404
  14   S   :   -0.000084533   -0.000188620   -0.000066344
  15   P   :   -0.000222548    0.000065896   -0.000070062
  16   S   :   -0.000117984    0.000236136   -0.000208734
  17   O   :   -0.000104658   -0.000019027   -0.000022100
  18   C   :   -0.000100356   -0.000036641   -0.000068276
  19   O   :   -0.000101801    0.000052515    0.000067509
  20   C   :   -0.000107319   -0.000010679    0.000132976
  21   H   :    0.000062314   -0.000012191    0.000003723
  22   H   :    0.000038364   -0.000019711    0.000011102
  23   H   :    0.000031816   -0.000002980    0.000007534
  24   H   :    0.000023728   -0.000012970   -0.000013717
  25   H   :    0.000030348    0.000000143   -0.000017714
  26   H   :   -0.000001857   -0.000053849   -0.000008968
  27   H   :    0.000005639   -0.000038749   -0.000047648
  28   H   :    0.000029935    0.000053160    0.000042862
  29   H   :    0.000035993    0.000020425    0.000054406
  30   H   :    0.000024578    0.000047096    0.000023091
  31   H   :    0.000019102    0.000024493    0.000022679
  32   H   :    0.000023197    0.000038981    0.000046053
  33   H   :   -0.000045670   -0.000029258   -0.000028724
  34   H   :   -0.000041213   -0.000004340   -0.000025821
  35   H   :   -0.000047763   -0.000022958   -0.000014947
  36   H   :   -0.000043794    0.000011534    0.000061445
  37   H   :   -0.000041914   -0.000016556    0.000063865
  38   H   :   -0.000038547   -0.000005675    0.000053794

Difference to translation invariance:
           :   -0.0000000000    0.0000000000    0.0000000000

Difference to rotation invariance:
           :   -0.0000000000   -0.0000000000    0.0000000000

Norm of the Dispersion gradient    ...    0.0007401956
RMS gradient                       ...    0.0000693257
MAX gradient                       ...    0.0002361355
gCP correction                   ... done

------------------
CARTESIAN GRADIENT
------------------

   1   C   :   -0.000042159    0.000028588    0.000005696
   2   C   :   -0.000044276   -0.000021765    0.000014704
   3   O   :    0.000041152   -0.000004388   -0.000037739
   4   C   :   -0.000039779   -0.000096364    0.000005704
   5   O   :    0.000030911    0.000091612   -0.000038775
   6   C   :    0.000055051    0.000008604    0.000073386
   7   C   :   -0.000147660   -0.000051189    0.000001423
   8   H   :    0.000033031    0.000029291   -0.000011068
   9   C   :    0.000396779   -0.000105009   -0.000152150
  10   O   :   -0.000106021   -0.000003040   -0.000001737
  11   O   :   -0.000020493    0.000078123    0.000082039
  12   C   :   -0.000109500   -0.000012582    0.000046616
  13   C   :    0.000010797   -0.000072578   -0.000094753
  14   S   :   -0.000044173    0.000076516    0.000206823
  15   P   :    0.000048841   -0.000093985   -0.000163609
  16   S   :   -0.000000449    0.000141564    0.000065650
  17   O   :   -0.000142716    0.000032338    0.000018283
  18   C   :    0.000024585    0.000017349    0.000010569
  19   O   :    0.000037762   -0.000069105   -0.000176323
  20   C   :    0.000019149   -0.000031013    0.000016576
  21   H   :   -0.000054740    0.000031812    0.000016251
  22   H   :   -0.000031752   -0.000011717    0.000027347
  23   H   :   -0.000009827    0.000032882    0.000024478
  24   H   :   -0.000001173   -0.000026567    0.000006533
  25   H   :    0.000014645    0.000013039   -0.000031014
  26   H   :    0.000009027   -0.000005857   -0.000008088
  27   H   :   -0.000042012    0.000009179   -0.000014432
  28   H   :   -0.000058141    0.000003528    0.000012412
  29   H   :    0.000019244   -0.000052075    0.000017712
  30   H   :    0.000005784    0.000048959   -0.000046529
  31   H   :   -0.000049021   -0.000008627    0.000015953
  32   H   :    0.000073053   -0.000022537   -0.000006600
  33   H   :    0.000068725    0.000015313    0.000018959
  34   H   :    0.000039987    0.000027369    0.000004680
  35   H   :    0.000011053    0.000001395    0.000014106
  36   H   :   -0.000014592    0.000012127    0.000041809
  37   H   :    0.000034037    0.000001463    0.000028937
  38   H   :   -0.000015130   -0.000012651    0.000006172

Difference to translation invariance:
           :    0.0000000000   -0.0000000000   -0.0000000000

Difference to rotation invariance:
           :    0.0002817679   -0.0001096801   -0.0005632487

Norm of the Cartesian gradient     ...    0.0007276755
RMS gradient                       ...    0.0000681531
MAX gradient                       ...    0.0003967787

-------
TIMINGS
-------

Total SCF gradient time     ....       42.707 sec

Densities                   ....       0.005 sec  (  0.0%)
One electron gradient       ....       1.868 sec  (  4.4%)
RI-J Coulomb gradient       ....       9.515 sec  ( 22.3%)
XC gradient                 ....      21.389 sec  ( 50.1%)
CPCM gradient               ....       9.885 sec  ( 23.1%)
   A-Matrix (El+Nuc)        ....       0.302 sec  (  0.7%)
   Potential                ....       9.583 sec  ( 22.4%)
SMD gradient                ....       0.003 sec  (  0.0%)

Maximum memory used throughout the entire SCFGRAD-calculation: 82.6 MB

------------------------------------------------------------------------------
                              ORCA PROPERTY CALCULATIONS
------------------------------------------------------------------------------

GBWName                                 ... xtb_opt.gbw
Number of atoms                         ...     38
Number of basis functions               ...    510
Max core memory                         ...   1024 MB

Electric properties:
Dipole moment                           ... YES
Quadrupole moment                       ...  NO
Static polarizability (Dipole/Dipole)   ...  NO
Static polarizability (Dipole/Quad.)    ...  NO
Static polarizability (Quad./Quad.)     ...  NO
Static polarizability (Velocity)        ...  NO

Atomic electric properties:
Dipole moment                           ...  NO
Quadrupole moment                       ...  NO
Static polarizability                   ...  NO

Choice of electric origin               ... Center of mass
Position of electric origin             ...    -0.338440     0.058532    -0.207746

General magnetic properties:
Magnetizability                         ...  NO

EPR properties:
g-Tensor (aka g-matrix)                 ...  NO
Zero-Field splitting spin-orbit         ...  NO
Zero-field splitting spin-spin          ...  NO
Hyperfine couplings                     ...  NO (   0 nuclei)
Quadrupole couplings                    ...  NO (   0 nuclei)
Contact density                         ...  NO (   0 nuclei)

NMR properties:
Chemical shifts                         ...  NO (   0 nuclei)
Spin-rotation constants                 ...  NO (   0 nuclei)
Spin-spin couplings                     ...  NO (   0 nuclei,    0 pairs)

Choice of magnetic origin               ... GIAO
Position of magnetic origin             ...     0.000000     0.000000     0.000000

Properties with geometric perturbations:
SCF Hessian                             ...  NO
IR spectrum                             ...  NO
VCD spectrum                            ...  NO
X-ray spectroscopy properties:
SCF XES/XAS/RIXS spectra                ...  NO


-------------
DIPOLE MOMENT
-------------

Method             : SCF
Type of density    : Electron Density
Multiplicity       :   1
Irrep              :   0
Energy             : -1981.5026759025117826 Eh
Relativity type    : 
Basis              : AO
                                X                 Y                 Z
Electronic contribution:    -18.530501656       1.745639818      -8.209206445
Nuclear contribution   :     18.410800138      -3.323946060       8.720034496
                        -----------------------------------------
Total Dipole Moment    :     -0.119701518      -1.578306242       0.510828051
                        -----------------------------------------
Magnitude (a.u.)       :      1.663227088
Magnitude (Debye)      :      4.227587285



--------------------
Rotational spectrum 
--------------------
 
Rotational constants in cm-1:             0.015398             0.005600             0.004816 
Rotational constants in MHz :           461.615674           167.884181           144.390605 

Dipole components along the rotational axes: 
x,y,z [a.u.] :     0.186759    -0.441799     1.592564 
x,y,z [Debye]:     0.474705    -1.122964     4.047975 

 

Dipole moment calculation done in   1.6 sec 

Maximum memory used throughout the entire PROP-calculation: 50.9 MB

--------------------------------
SUGGESTED CITATIONS FOR THIS RUN
--------------------------------

Below you find a list of papers that are relevant to this ORCA run
We neither can nor want to force you to cite these papers, but we appreciate if you do
You receive ORCA, which is the product of decades of hard work by many enthusiastic individuals, for free
The only thing we kindly ask in return is that you cite our papers,
We deeply appreciate it, if you show your appreciation for ORCA by not just citing the generic ORCA reference.

Please note that relegating all ORCA citations to the supporting information does *not* help us.
SI sections are not indexed - citations you put there will not count into any citation statistics
But we need these citations in order to attract the funding resources that allow us to do what we are doing

Therefore, if you are a happy ORCA user, please consider citing a few of the papers listed below in the main body of your paper

In addition to the list printed below, the program has created the file xtb_opt.bibtex that contains the list in bibtex format
You can import this file easily into all common literature databanks and citation aid programs


List of essential papers. We consider these as the minimum necessary citations

  1. Neese,F.
     Software update: the ORCA program system, version 5.0
     WIRES Comput. Molec. Sci., 2022 12(1)e1606
     doi.org/10.1002/wcms.1606
  2. Grimme,S.; Hansen,A.; Ehlert,S.; Mewes,J.
     r2SCAN-3c: A 'Swiss army knife' composite electronic-structure method
     J. Chem. Phys., 2021 154 064103
     doi.org/10.1063/5.0040021

List of papers to cite with high priority. The work reported in these papers was absolutely
necessary for this run to complete.
Our perspective: the developers of density functionals and basis sets usually get cited in chemistry papers
Good! But without the algorithms to do something with them, the functionals or basis sets would not do anything.
Hence, in our opinion, the algorithm design and method developments papers are equally worthy of getting cited

  1. Neese,F.
     An improvement of the resolution of the identity approximation for the formation of the Coulomb matrix
     J. Comp. Chem., 2003 24(14)1740-1747
     doi.org/10.1002/jcc.10318
  2. Garcia-Rates,M.; Neese,F.
     Effect of the Solute Cavity on the Solvation Energy and its Derivatives within the Framework of the Gaussian Charge Scheme
     J. Comput. Chem., 2020 41 922-939
     doi.org/10.1002/jcc.26139
  3. Neese,F.
     The SHARK Integral Generation and Digestion System
     J. Comp. Chem., 2022  1-16
     doi.org/10.1002/jcc.26942
  4. Lehtola,S.; Steigemann,C.; Oliveira,M.; Marques,M.
     Recent developments in Libxc - A comprehensive library of functionals for density functional theory
     Software X, 2018 7 
     doi.org/10.1016/j.softx.2017.11.002
  5. Caldeweyher,E.; Bannwarth,C.; Grimme,S.
     Extension of the D3 dispersion coefficient model
     J. Chem. Phys., 2017 147 034112
     doi.org/10.1063/1.4993215
  6. Caldeweyher,E.; Ehlert,S.; Hansen,A.; Neugebauer,H.; Spicher,S.; Bannwarth,C.; Grimme,S.
     A generally applicable atomic-charge dependent London dispersion correction
     J. Chem. Phys., 2019 150 154122
     doi.org/10.1063/1.5090222
  7. Caldeweyher,E.; Mewes,J.; Ehlert,S.; Grimme,S.
     Extension and evaluation of the D4 London-dispersion model for periodic systems
     Phys. Chem. Chem. Phys., 2020 22(16)8499-8512
     doi.org/10.1039/D0CP00502A
  8. Wittmann,L.; Gordiy,I.; Friede,M.; Helmich-Paris,B.; Grimme,S.; Hansen,A.; Bursch,M.
     Extension of the D3 and D4 London Dispersion Corrections to the full Actinides Series
     Phys. Chem. Chem. Phys., 2024 26(32)21379-21394
     doi.org/https://doi.org/10.1039/D4CP01514B 

List of suggested additional citations. These are papers that are important in the 'surrounding' of 
of this run, or papers that preceded the highly important papers. If you like your results we are grateful for a citation.

  1. Neese,F.
     The ORCA program system
     WIRES Comput. Molec. Sci., 2012 2(1)73-78
     doi.org/10.1002/wcms.81
  2. Neese,F.
     Software update: the ORCA program system, version 4.0
     WIRES Comput. Molec. Sci., 2018 8(1)1-6
     doi.org/10.1002/wcms.1327
  3. Neese,F.; Wennmohs,F.; Becker,U.; Riplinger,C.
     The ORCA quantum chemistry program package
     J. Chem. Phys., 2020 152 Art. No. L224108
     doi.org/10.1063/5.0004608

List of optional additional citations

  1. Neese,F.
     Approximate second-order SCF convergence for spin unrestricted wavefunctions
     Chem. Phys. Lett., 2000 325(1-3)93-98
     doi.org/10.1016/s0009-2614(00)00662-x

Timings for individual modules:

Sum of individual times          ...       94.316 sec (=   1.572 min)
Startup calculation              ...        2.436 sec (=   0.041 min)   2.6 %
SCF iterations                   ...       45.916 sec (=   0.765 min)  48.7 %
Property calculations            ...        1.650 sec (=   0.028 min)   1.7 %
SCF Gradient evaluation          ...       44.314 sec (=   0.739 min)  47.0 %
                             ****ORCA TERMINATED NORMALLY****
TOTAL RUN TIME: 0 days 0 hours 1 minutes 40 seconds 681 msec
  ------------------------------------------------------------------------
          * successful ORCA run, taking over control again...

         :::::::::::::::::::::::::::::::::::::::::::::::::::::
         ::                  ORCA SUMMARY                   ::
         :::::::::::::::::::::::::::::::::::::::::::::::::::::
         :: total energy           -1981.483862727888 Eh    ::
         :: gradient norm              0.000727675498 Eh/a0 ::
         :: HOMO-LUMO gap              0.000000000000 eV    ::
         :::::::::::::::::::::::::::::::::::::::::::::::::::::

           -------------------------------------------------
          |                Property Printout                |
           -------------------------------------------------
           -------------------------------------------------
          |                Geometry Summary                 |
           -------------------------------------------------

      molecular mass/u    :      330.3579996
   center of mass at/Å    :       -0.1791536       0.0309860      -0.1099616
  moments of inertia/u·Å² :        0.1094825E+04   0.3010322E+04   0.3500090E+04
rotational constants/cm⁻¹ :        0.1539756E-01   0.5599944E-02   0.4816343E-02

 * 30 selected distances

     #   Z          #   Z                                           value/Å
     1   6 C        2   6 C                                       1.5105319
     3   8 O        4   6 C                                       1.3375504
     4   6 C        5   8 O                                       1.2196005
     6   6 C        7   6 C                                       1.5211766
     7   6 C        8   1 H                                       1.0929065
     9   6 C       10   8 O                                       1.2177922
     9   6 C       11   8 O                                       1.3336988
    12   6 C       13   6 C                                       1.5101428
    14  16 S       15  15 P                                       2.1298915 (max)
    15  15 P       16  16 S                                       1.9394633
    15  15 P       17   8 O                                       1.6115715
    15  15 P       19   8 O                                       1.6024294
     1   6 C       21   1 H                                       1.0931969
     1   6 C       22   1 H                                       1.0937538
     1   6 C       23   1 H                                       1.0945728
     2   6 C       24   1 H                                       1.0910821
     2   6 C       25   1 H                                       1.0926169
     6   6 C       26   1 H                                       1.0942735
     6   6 C       27   1 H                                       1.0953674
    12   6 C       28   1 H                                       1.0916214
    12   6 C       29   1 H                                       1.0927006
    13   6 C       30   1 H                                       1.0937847
    13   6 C       31   1 H                                       1.0945481
    13   6 C       32   1 H                                       1.0934182
    18   6 C       33   1 H                                       1.0933207
    18   6 C       34   1 H                                       1.0923851
    18   6 C       35   1 H                                       1.0897297 (min)
    20   6 C       36   1 H                                       1.0899714
    20   6 C       37   1 H                                       1.0930667
    20   6 C       38   1 H                                       1.0926097

 * 5 distinct bonds (by element types)

   Z      Z             #   av. dist./Å        max./Å        min./Å
   1 H    6 C          19     1.0928908     1.0953674     1.0897297
   6 C    6 C           3     1.5139504     1.5211766     1.5101428
   6 C    8 O           4     1.2771605     1.3375504     1.2177922
   8 O   15 P           2     1.6070005     1.6115715     1.6024294
  15 P   16 S           2     2.0346774     2.1298915     1.9394633


optimized geometry written to: xtbopt.coord


           -------------------------------------------------
          | TOTAL ENERGY            -1981.483862727888 Eh   |
          | GRADIENT NORM               0.000727675498 Eh/α |
           -------------------------------------------------

------------------------------------------------------------------------
 * finished run on 2025/04/09 at 17:41:24.497     
------------------------------------------------------------------------
 total:
 * wall-time:     0 d,  0 h,  5 min,  4.034 sec
 *  cpu-time:     0 d,  0 h,  0 min, 35.937 sec
 * ratio c/w:     0.118 speedup
 SCF:
 * wall-time:     0 d,  0 h,  1 min, 27.254 sec
 *  cpu-time:     0 d,  0 h,  0 min,  3.172 sec
 * ratio c/w:     0.036 speedup
 ANC optimizer:
 * wall-time:     0 d,  0 h,  3 min, 35.989 sec
 *  cpu-time:     0 d,  0 h,  0 min, 28.322 sec
 * ratio c/w:     0.131 speedup

