      -----------------------------------------------------------      
     |                   =====================                   |     
     |                           x T B                           |     
     |                   =====================                   |     
     |                         S. Grimme                         |     
     |          Mulliken Center for Theoretical Chemistry        |     
     |                    University of Bonn                     |     
      -----------------------------------------------------------      

   * xtb version 6.7.1 (edcfbbe) compiled by 'albert@albert-system' on 2024-07-22

   xtb is free software: you can redistribute it and/or modify it under
   the terms of the GNU Lesser General Public License as published by
   the Free Software Foundation, either version 3 of the License, or
   (at your option) any later version.
   
   xtb is distributed in the hope that it will be useful,
   but WITHOUT ANY WARRANTY; without even the implied warranty of
   MERCHANTABILITY or FITNESS FOR A PARTICULAR PURPOSE.  See the
   GNU Lesser General Public License for more details.
   
   Cite this work as:
   * C. Bannwarth, E. Caldeweyher, S. Ehlert, A. Hansen, P. Pracht,
     J. Seibert, S. Spicher, S. Grimme, WIREs Comput. Mol. Sci., 2020, 11,
     e01493. DOI: 10.1002/wcms.1493
   
   for GFN2-xTB:
   * C. Bannwarth, S. Ehlert and S. Grimme., J. Chem. Theory Comput., 2019,
     15, 1652-1671. DOI: 10.1021/acs.jctc.8b01176
   for GFN1-xTB:
   * S. Grimme, C. Bannwarth, P. Shushkov, J. Chem. Theory Comput., 2017,
     13, 1989-2009. DOI: 10.1021/acs.jctc.7b00118
   for GFN0-xTB:
   * P. Pracht, E. Caldeweyher, S. Ehlert, S. Grimme, ChemRxiv, 2019, preprint.
     DOI: 10.26434/chemrxiv.8326202.v1
   for GFN-FF:
   * S. Spicher and S. Grimme, Angew. Chem. Int. Ed., 2020, 59, 15665-15673.
     DOI: 10.1002/anie.202004239
   
   for ALPB and GBSA implicit solvation:
   * S. Ehlert, M. Stahn, S. Spicher, S. Grimme, J. Chem. Theory Comput.,
     2021, 17, 4250-4261. DOI: 10.1021/acs.jctc.1c00471
   
   for ddCOSMO and CPCM-X implicit solvation:
   * M. Stahn, S. Ehlert, S. Grimme, J. Phys. Chem. A,
     2023, XX, XXXX-XXXX. DOI: 10.1021/acs.jpca.3c04382
   
   for DFT-D4:
   * E. Caldeweyher, C. Bannwarth and S. Grimme, J. Chem. Phys., 2017,
     147, 034112. DOI: 10.1063/1.4993215
   * E. Caldeweyher, S. Ehlert, A. Hansen, H. Neugebauer, S. Spicher,
     C. Bannwarth and S. Grimme, J. Chem. Phys., 2019, 150, 154122.
     DOI: 10.1063/1.5090222
   * E. Caldeweyher, J.-M. Mewes, S. Ehlert and S. Grimme, Phys. Chem. Chem. Phys.
     2020, 22, 8499-8512. DOI: 10.1039/D0CP00502A
   
   for sTDA-xTB:
   * S. Grimme and C. Bannwarth, J. Chem. Phys., 2016, 145, 054103.
     DOI: 10.1063/1.4959605
   
   in the mass-spec context:
   * V. Asgeirsson, C. Bauer and S. Grimme, Chem. Sci., 2017, 8, 4879.
     DOI: 10.1039/c7sc00601b
   * J. Koopman and S. Grimme, ACS Omega 2019, 4, 12, 15120-15133.
     DOI: 10.1021/acsomega.9b02011
   
   for metadynamics refer to:
   * S. Grimme, J. Chem. Theory Comput., 2019, 155, 2847-2862
     DOI: 10.1021/acs.jctc.9b00143
   
   for SPH calculations refer to:
   * S. Spicher and S. Grimme, J. Chem. Theory Comput., 2021, 17, 1701-1714
     DOI: 10.1021/acs.jctc.0c01306
   
   for ONIOM refer to:
   * C. Plett, A. Katbashev, S. Ehlert, S. Grimme, M. Bursch,
     Phys. Chem. Chem. Phys., 2023, 25, 17860-17868. DOI: 10.1039/D3CP02178E
   
   for DIPRO refer to:
   * J. Kohn, N. Gildemeister, S. Grimme, D. Fazzi, A. Hansen,
     J. Chem. Phys., 2023, just accepted.
   
   for PTB refer to:
   * S. Grimme, M. Mueller, A. Hansen, J. Chem. Phys., 2023, 158, 124111.
     DOI: 10.1063/5.0137838
   
   with help from (in alphabetical order)
   P. Atkinson, C. Bannwarth, F. Bohle, G. Brandenburg, E. Caldeweyher
   M. Checinski, S. Dohm, S. Ehlert, S. Ehrlich, I. Gerasimov, C. Hölzer
   A. Katbashev, J. Kohn, J. Koopman, C. Lavigne, S. Lehtola, F. März, M. Müller,
   F. Musil, H. Neugebauer, J. Pisarek, C. Plett, P. Pracht, F. Pultar,
   J. Seibert, P. Shushkov, S. Spicher, M. Stahn, M. Steiner, T. Strunk,
   J. Stückrath, T. Rose, and J. Unsleber
   
 * started run on 2025/04/09 at 07:31:37.398     
   ID    Z sym.   atoms
    1    6 C      1, 2, 4, 6, 7, 9, 12, 13, 18, 20
    2    8 O      3, 5, 10, 11, 17, 19
    3    1 H      8, 21-38
    4   16 S      14, 16
    5   15 P      15

           -------------------------------------------------
          |                Calculation Setup                |
           -------------------------------------------------

          program call               : /software/projects/pawsey0265/mwang1/xtb/bin/xtb solv.coord --gfn2 --sp --chrg 0 --norestart --parallel 1 --alpb water reference -I xtb_sp-xcontrol-inp
          hostname                   : nid002043
          coordinate file            : solv.coord
          omp threads                :                     1


           -------------------------------------------------
          |                 G F N 2 - x T B                 |
           -------------------------------------------------

        Reference                      10.1021/acs.jctc.8b01176
      * Hamiltonian:
        H0-scaling (s, p, d)           1.850000    2.230000    2.230000
        zeta-weighting                 0.500000
      * Dispersion:
        s8                             2.700000
        a1                             0.520000
        a2                             5.000000
        s9                             5.000000
      * Repulsion:
        kExp                           1.500000    1.000000
        rExp                           1.000000
      * Coulomb:
        alpha                          2.000000
        third order                    shell-resolved
        anisotropic                    true
        a3                             3.000000
        a5                             4.000000
        cn-shift                       1.200000
        cn-exp                         4.000000
        max-rad                        5.000000

      * Solvation model:               ALPB
        Solvent                        water
        Parameter file                 internal GFN2-xTB/ALPB
        Dielectric constant                8.0200E+01
        Reference state                gsolv=reference [X=1]
        Free energy shift                  2.8945E-03 Eh       1.8164E+00 kcal/mol
        Temperature                        2.9815E+02 K
        Density                            1.0000E+00 kg/L
        Solvent mass                       1.8000E+01 g/mol
        Interaction kernel             P16
        Born radius scaling (c1)           1.4744E+00
        Born radii integrator          GBOBC
        Born offset                        0.0000E+00 a0       0.0000E+00 AA
        H-bond correction              true
        Ion screening                  false
        Surface tension                    1.0000E-05 Eh       1.5569E+01 dyn/cm
        Grid points                               974 per atom

          ...................................................
          :                      SETUP                      :
          :.................................................:
          :  # basis functions                 113          :
          :  # atomic orbitals                 110          :
          :  # shells                           60          :
          :  # electrons                       112          :
          :  max. iterations                   250          :
          :  Hamiltonian                  GFN2-xTB          :
          :  restarted?                      false          :
          :  GBSA solvation                   true          :
          :  PC potential                    false          :
          :  electronic temp.          300.0000000     K    :
          :  accuracy                    1.0000000          :
          :  -> integral cutoff          0.2500000E+02      :
          :  -> integral neglect         0.1000000E-07      :
          :  -> SCF convergence          0.1000000E-05 Eh   :
          :  -> wf. convergence          0.1000000E-03 e    :
          :  Broyden damping             0.4000000          :
          :  net charge                          0          :
          :  unpaired electrons                  0          :
          ...................................................

 iter      E             dE          RMSdq      gap      omega  full diag
   1    -65.0937501 -0.650938E+02  0.602E+00    4.20       0.0  T
   2    -65.2259458 -0.132196E+00  0.323E+00    3.28       1.0  T
   3    -65.2357867 -0.984085E-02  0.124E+00    3.12       1.0  T
   4    -65.2415708 -0.578412E-02  0.452E-01    2.99       1.0  T
   5    -65.2423712 -0.800449E-03  0.206E-01    3.10       1.0  T
   6    -65.2424913 -0.120032E-03  0.922E-02    3.10       1.0  T
   7    -65.2425104 -0.191144E-04  0.332E-02    3.12       1.0  T
   8    -65.2425126 -0.223051E-05  0.132E-02    3.12       1.2  T
   9    -65.2425133 -0.686245E-06  0.418E-03    3.12       3.9  T
  10    -65.2425133 -0.567903E-07  0.209E-03    3.13       7.8  T
  11    -65.2425134 -0.103179E-07  0.449E-04    3.13      36.1  T
  12    -65.2425134 -0.600650E-09  0.196E-04    3.13      82.7  T

   *** convergence criteria satisfied after 12 iterations ***

         #    Occupation            Energy/Eh            Energy/eV
      -------------------------------------------------------------
         1        2.0000           -0.7797324             -21.2176
       ...           ...                  ...                  ...
        50        2.0000           -0.4538840             -12.3508
        51        2.0000           -0.4488052             -12.2126
        52        2.0000           -0.4473354             -12.1726
        53        2.0000           -0.4367991             -11.8859
        54        2.0000           -0.4079148             -11.0999
        55        2.0000           -0.3920078             -10.6671
        56        2.0000           -0.3887838             -10.5793 (HOMO)
        57                         -0.2739347              -7.4541 (LUMO)
        58                         -0.2661676              -7.2428
        59                         -0.2463501              -6.7035
        60                         -0.2037685              -5.5448
        61                         -0.1695130              -4.6127
       ...                                ...                  ...
       110                          1.2830086              34.9124
      -------------------------------------------------------------
                  HL-Gap            0.1148491 Eh            3.1252 eV
             Fermi-level           -0.3313592 Eh           -9.0167 eV

 SCC (total)                   0 d,  0 h,  0 min,  0.083 sec
 SCC setup                      ...        0 min,  0.004 sec (  5.329%)
 Dispersion                     ...        0 min,  0.000 sec (  0.586%)
 classical contributions        ...        0 min,  0.000 sec (  0.116%)
 integral evaluation            ...        0 min,  0.036 sec ( 43.073%)
 iterations                     ...        0 min,  0.023 sec ( 27.448%)
 molecular gradient             ...        0 min,  0.019 sec ( 23.147%)
 printout                       ...        0 min,  0.000 sec (  0.270%)

         :::::::::::::::::::::::::::::::::::::::::::::::::::::
         ::                     SUMMARY                     ::
         :::::::::::::::::::::::::::::::::::::::::::::::::::::
         :: total energy             -64.670162917698 Eh    ::
         :: total w/o Gsasa/hb       -64.672463684483 Eh    ::
         :: gradient norm              0.000198084977 Eh/a0 ::
         :: HOMO-LUMO gap              3.125202211732 eV    ::
         ::.................................................::
         :: SCC energy               -65.241931963275 Eh    ::
         :: -> isotropic ES            0.170531844743 Eh    ::
         :: -> anisotropic ES         -0.017495986559 Eh    ::
         :: -> anisotropic XC          0.016944755779 Eh    ::
         :: -> dispersion             -0.041241414645 Eh    ::
         :: -> Gsolv                  -0.027981934900 Eh    ::
         ::    -> Gelec               -0.030282701685 Eh    ::
         ::    -> Gsasa                0.004488938174 Eh    ::
         ::    -> Ghb                 -0.005082720549 Eh    ::
         ::    -> Gshift               0.002894549160 Eh    ::
         :: repulsion energy           0.571769045577 Eh    ::
         :: add. restraining           0.000000000000 Eh    ::
         :: total charge               0.000000000000 e     ::
         :::::::::::::::::::::::::::::::::::::::::::::::::::::

           -------------------------------------------------
          |                Property Printout                |
           -------------------------------------------------

    * Orbital Energies and Occupations

         #    Occupation            Energy/Eh            Energy/eV
      -------------------------------------------------------------
         1        2.0000           -0.7797324             -21.2176
       ...           ...                  ...                  ...
        44        2.0000           -0.4749613             -12.9244
        45        2.0000           -0.4702892             -12.7972
        46        2.0000           -0.4687445             -12.7552
        47        2.0000           -0.4574582             -12.4481
        48        2.0000           -0.4566619             -12.4264
        49        2.0000           -0.4562867             -12.4162
        50        2.0000           -0.4538840             -12.3508
        51        2.0000           -0.4488052             -12.2126
        52        2.0000           -0.4473354             -12.1726
        53        2.0000           -0.4367991             -11.8859
        54        2.0000           -0.4079148             -11.0999
        55        2.0000           -0.3920078             -10.6671
        56        2.0000           -0.3887838             -10.5793 (HOMO)
        57                         -0.2739347              -7.4541 (LUMO)
        58                         -0.2661676              -7.2428
        59                         -0.2463501              -6.7035
        60                         -0.2037685              -5.5448
        61                         -0.1695130              -4.6127
        62                         -0.1552862              -4.2256
        63                         -0.1238952              -3.3714
        64                         -0.0524242              -1.4265
        65                         -0.0441257              -1.2007
        66                         -0.0304528              -0.8287
        67                         -0.0147274              -0.4008
       ...                                ...                  ...
       110                          1.2830086              34.9124
      -------------------------------------------------------------
                  HL-Gap            0.1148491 Eh            3.1252 eV
             Fermi-level           -0.3313592 Eh           -9.0167 eV

     #   Z          covCN         q      C6AA      α(0)
     1   6 C        3.751    -0.127    23.005     6.840
     2   6 C        3.695     0.062    19.698     6.349
     3   8 O        1.703    -0.252    18.174     5.756
     4   6 C        2.715     0.374    20.663     7.441
     5   8 O        0.856    -0.472    23.178     6.455
     6   6 C        3.835    -0.103    22.437     6.739
     7   6 C        3.862     0.018    20.227     6.396
     8   1 H        0.924     0.093     1.849     2.126
     9   6 C        2.786     0.373    20.684     7.450
    10   8 O        0.914    -0.436    22.384     6.345
    11   8 O        1.702    -0.243    18.025     5.732
    12   6 C        3.698     0.068    19.601     6.332
    13   6 C        3.751    -0.124    22.935     6.830
    14  16 S        1.990    -0.132   146.592    20.378
    15  15 P        3.840     0.356   145.389    21.660
    16  16 S        0.925    -0.475   160.207    21.409
    17   8 O        1.656    -0.281    18.679     5.834
    18   6 C        3.804     0.012    20.365     6.425
    19   8 O        1.656    -0.248    18.133     5.748
    20   6 C        3.750     0.022    20.259     6.419
    21   1 H        0.925     0.068     2.105     2.269
    22   1 H        0.925     0.077     2.010     2.217
    23   1 H        0.925     0.054     2.271     2.357
    24   1 H        0.925     0.092     1.861     2.133
    25   1 H        0.924     0.065     2.143     2.289
    26   1 H        0.925     0.106     1.732     2.058
    27   1 H        0.924     0.124     1.580     1.966
    28   1 H        0.924     0.077     2.011     2.218
    29   1 H        0.925     0.099     1.796     2.096
    30   1 H        0.925     0.086     1.918     2.166
    31   1 H        0.925     0.064     2.151     2.294
    32   1 H        0.925     0.049     2.338     2.391
    33   1 H        0.925     0.110     1.699     2.038
    34   1 H        0.925     0.087     1.909     2.160
    35   1 H        0.924     0.086     1.918     2.166
    36   1 H        0.925     0.105     1.739     2.062
    37   1 H        0.925     0.074     2.046     2.237
    38   1 H        0.925     0.092     1.862     2.134

 Mol. C6AA /au·bohr⁶  :      18237.500724
 Mol. C8AA /au·bohr⁸  :     514472.198301
 Mol. α(0) /au        :        207.913647


Wiberg/Mayer (AO) data.
largest (>0.10) Wiberg bond orders for each atom

 ---------------------------------------------------------------------------
     #   Z sym  total        # sym  WBO       # sym  WBO       # sym  WBO
 ---------------------------------------------------------------------------
     1   6 C    3.987 --     2 C    1.014    23 H    0.985    21 H    0.984
                            22 H    0.979
     2   6 C    3.899 --     1 C    1.014    25 H    0.970    24 H    0.967
                             3 O    0.908
     3   8 O    2.340 --     4 C    1.194     2 C    0.908     5 O    0.178
     4   6 C    3.919 --     5 O    1.698     3 O    1.194     6 C    0.960
     5   8 O    1.989 --     4 C    1.698     3 O    0.178
     6   6 C    3.978 --     7 C    0.988    26 H    0.966     4 C    0.960
                            27 H    0.937
     7   6 C    3.973 --     6 C    0.988     9 C    0.961    14 S    0.959
                             8 H    0.929
     8   1 H    0.991 --     7 C    0.929
     9   6 C    3.918 --    10 O    1.654    11 O    1.227     7 C    0.961
    10   8 O    2.075 --     9 C    1.654    11 O    0.169    15 P    0.115
    11   8 O    2.361 --     9 C    1.227    12 C    0.890    10 O    0.169
    12   6 C    3.885 --    13 C    1.015    28 H    0.968    29 H    0.965
                            11 O    0.890
    13   6 C    3.986 --    12 C    1.015    32 H    0.985    31 H    0.984
                            30 H    0.976
    14  16 S    2.242 --     7 C    0.959    15 P    0.954    16 S    0.129
    15  15 P    5.307 --    16 S    1.522    19 O    1.311    17 O    1.295
                            14 S    0.954    10 O    0.115
    16  16 S    1.828 --    15 P    1.522    14 S    0.129
    17   8 O    2.358 --    15 P    1.295    18 C    0.899
    18   6 C    3.884 --    34 H    0.978    33 H    0.972    35 H    0.969
                            17 O    0.899
    19   8 O    2.414 --    15 P    1.311    20 C    0.909
    20   6 C    3.883 --    37 H    0.977    38 H    0.977    36 H    0.971
                            19 O    0.909
    21   1 H    0.995 --     1 C    0.984
    22   1 H    0.993 --     1 C    0.979
    23   1 H    0.997 --     1 C    0.985
    24   1 H    0.991 --     2 C    0.967
    25   1 H    0.996 --     2 C    0.970
    26   1 H    0.989 --     6 C    0.966
    27   1 H    0.984 --     6 C    0.937
    28   1 H    0.994 --    12 C    0.968
    29   1 H    0.990 --    12 C    0.965
    30   1 H    0.992 --    13 C    0.976
    31   1 H    0.996 --    13 C    0.984
    32   1 H    0.998 --    13 C    0.985
    33   1 H    0.988 --    18 C    0.972
    34   1 H    0.992 --    18 C    0.978
    35   1 H    0.993 --    18 C    0.969
    36   1 H    0.989 --    20 C    0.971
    37   1 H    0.995 --    20 C    0.977
    38   1 H    0.992 --    20 C    0.977
 ---------------------------------------------------------------------------

Topologies differ in total number of bonds
Writing topology from bond orders to xtbtopo.mol

molecular dipole:
                 x           y           z       tot (Debye)
 q only:        1.525      -2.838       1.348
   full:        1.328      -2.724       1.406       8.491
molecular quadrupole (traceless):
                xx          xy          yy          xz          yz          zz
 q only:       29.528       5.633     -26.987       6.956      11.130      -2.541
  q+dip:       28.094       1.298     -28.173       3.690       7.395       0.079
   full:       28.496       2.169     -28.297       4.298       8.978      -0.199


           -------------------------------------------------
          | TOTAL ENERGY              -64.670162917698 Eh   |
          | GRADIENT NORM               0.000198084977 Eh/α |
          | HOMO-LUMO GAP               3.125202211732 eV   |
           -------------------------------------------------

------------------------------------------------------------------------
 * finished run on 2025/04/09 at 07:31:37.544     
------------------------------------------------------------------------
 total:
 * wall-time:     0 d,  0 h,  0 min,  0.145 sec
 *  cpu-time:     0 d,  0 h,  0 min,  0.084 sec
 * ratio c/w:     0.576 speedup
 SCF:
 * wall-time:     0 d,  0 h,  0 min,  0.083 sec
 *  cpu-time:     0 d,  0 h,  0 min,  0.066 sec
 * ratio c/w:     0.790 speedup

