
                                 *****************
                                 * O   R   C   A *
                                 *****************

                                            #,                                       
                                            ###                                      
                                            ####                                     
                                            #####                                    
                                            ######                                   
                                           ########,                                 
                                     ,,################,,,,,                         
                               ,,#################################,,                 
                          ,,##########################################,,             
                       ,#########################################, ''#####,          
                    ,#############################################,,   '####,        
                  ,##################################################,,,,####,       
                ,###########''''           ''''###############################       
              ,#####''   ,,,,##########,,,,          '''####'''          '####       
            ,##' ,,,,###########################,,,                        '##       
           ' ,,###''''                  '''############,,,                           
         ,,##''                                '''############,,,,        ,,,,,,###''
      ,#''                                            '''#######################'''  
     '                                                          ''''####''''         
             ,#######,   #######,   ,#######,      ##                                
            ,#'     '#,  ##    ##  ,#'     '#,    #''#        ,####,   ,####,        
            ##       ##  ##   ,#'  ##            #'  '#       #'       #'  '#        
            ##       ##  #######   ##           ,######,      #####,   #    #        
            '#,     ,#'  ##    ##  '#,     ,#' ,#      #,     #,   #   #,  ,#        
             '#######'   ##     ##  '#######'  #'      '#     '####' # '####'        



                #########################################################
                #                        -***-                          #
                #          Department of theory and spectroscopy        #
                #                                                       #
                #                      Frank Neese                      #
                #                                                       #
                #     Directorship, Architecture, Infrastructure        #
                #                    SHARK, DRIVERS                     #
                #        Core code/Algorithms in most modules           #
                #                                                       #
                #        Max Planck Institute fuer Kohlenforschung      #
                #                Kaiser Wilhelm Platz 1                 #
                #                 D-45470 Muelheim/Ruhr                 #
                #                      Germany                          #
                #                                                       #
                #                  All rights reserved                  #
                #                        -***-                          #
                #########################################################


                         Program Version 6.0.0  -   RELEASE  -


 With contributions from (in alphabetic order):
   Daniel Aravena         : Magnetic Suceptibility
   Michael Atanasov       : Ab Initio Ligand Field Theory (pilot matlab implementation)
   Alexander A. Auer      : GIAO ZORA, VPT2 properties, NMR spectrum
   Ute Becker             : All parallelization in ORCA, NUMFREQ, NUMCALC
   Giovanni Bistoni       : ED, misc. LED, open-shell LED, HFLD
   Martin Brehm           : Molecular dynamics
   Dmytro Bykov           : pre 5.0 version of the SCF Hessian
   Marcos Casanova-Páez   : Triplet and SCS-CIS(D). UHF-(DLPNO)-IP/EA/STEOM-CCSD. UHF-CVS-IP/STEOM-CCSD
   Vijay G. Chilkuri      : MRCI spin determinant printing, contributions to CSF-ICE
   Pauline Colinet        : FMM embedding
   Dipayan Datta          : RHF DLPNO-CCSD density
   Achintya Kumar Dutta   : EOM-CC, STEOM-CC
   Nicolas Foglia         : Exact transition moments, OPA infrastructure, MCD improvements
   Dmitry Ganyushin       : Spin-Orbit,Spin-Spin,Magnetic field MRCI
   Miquel Garcia          : C-PCM and meta-GGA Hessian, CCSD/C-PCM, Gaussian charge scheme
   Tiago L. C. Gouveia    : GS-ROHF, GS-ROCIS
   Yang Guo               : DLPNO-NEVPT2, F12-NEVPT2, CIM, IAO-localization
   Andreas Hansen         : Spin unrestricted coupled pair/coupled cluster methods
   Ingolf Harden          : AUTO-CI MPn and infrastructure 
   Benjamin Helmich-Paris : MC-RPA, TRAH-(SCF,CASSCF), AVAS, COSX integrals, SCF dyn. polar.
   Lee Huntington         : MR-EOM, pCC
   Robert Izsak           : Overlap fitted RIJCOSX, COSX-SCS-MP3, EOM
   Riya Kayal             : Wick's Theorem for AUTO-CI, AUTO-CI UHF-CCSDT
   Emily Kempfer          : AUTO-CI, RHF CISDT and CCSDT
   Christian Kollmar      : KDIIS, OOCD, Brueckner-CCSD(T), CCSD density, CASPT2, CASPT2-K, improved NEVPT2
   Axel Koslowski         : Symmetry handling
   Simone Kossmann        : Meta GGA functionals, TD-DFT gradient, OOMP2, (MP2 Hessian; deprecated post 5.0)
   Lucas Lang             : DCDCAS
   Marvin Lechner         : AUTO-CI (C++ implementation), FIC-MRCC
   Spencer Leger          : CASSCF response
   Dagmar Lenk            : GEPOL surface, SMD, ORCA-2-JSON
   Dimitrios Liakos       : Extrapolation schemes; Compound Job, initial MDCI parallelization
   Dimitrios Manganas     : Further ROCIS development; embedding schemes. LFT, Crystal Embedding
   Dimitrios Pantazis     : SARC Basis sets
   Anastasios Papadopoulos: AUTO-CI, single reference methods and gradients
   Taras Petrenko         : pre 6.0 DFT Hessian and TD-DFT gradient, (ASA, deprecated), ECA, 1-Electron XAS/XES, NRVS
   Peter Pinski           : DLPNO-MP2, DLPNO-MP2 Gradient
   Christoph Reimann      : Effective Core Potentials
   Marius Retegan         : Local ZFS, SOC
   Christoph Riplinger    : Optimizer, TS searches, QM/MM, DLPNO-CCSD(T), (RO)-DLPNO pert. Triples
   Michael Roemelt        : Original ROCIS implementation
   Masaaki Saitow         : Open-shell DLPNO-CCSD energy and density
   Barbara Sandhoefer     : DKH picture change effects
   Kantharuban Sivalingam : CASSCF convergence/infrastructure, NEVPT2 and variants, FIC-MRCI
   Bernardo de Souza      : ESD, SOC TD-DFT
   Georgi Stoychev        : AutoAux, RI-MP2 NMR, DLPNO-MP2 response, X2C
   Van Anh Tran           : RI-MP2 g-tensors
   Willem Van den Heuvel  : Paramagnetic NMR
   Zikuan Wang            : NOTCH, Electric field optimization 
   Frank Wennmohs         : Technical directorship and infrastructure
   Hang Xu                : AUTO-CI-Response properties 


 We gratefully acknowledge several colleagues who have allowed us to
 interface, adapt or use parts of their codes:
   Stefan Grimme, W. Hujo, H. Kruse, P. Pracht,  : VdW corrections, initial TS optimization,
                  C. Bannwarth, S. Ehlert,         DFT functionals, gCP, sTDA/sTD-DF
                  L. Wittmann, M. Mueller
   Ed Valeev, F. Pavosevic, A. Kumar             : LibInt (2-el integral package), F12 methods
   Garnet Chan, S. Sharma, J. Yang, R. Olivares  : DMRG
   Ulf Ekstrom                                   : XCFun DFT Library
   Mihaly Kallay                                 : mrcc  (arbitrary order and MRCC methods)
   Frank Weinhold                                : gennbo (NPA and NBO analysis)
   Simon Mueller                                 : openCOSMO-RS
   Christopher J. Cramer and Donald G. Truhlar   : smd solvation model
   Lars Goerigk                                  : TD-DFT with DH, B97 family of functionals
   V. Asgeirsson, H. Jonsson                     : NEB implementation
   FAccTs GmbH                                   : IRC, NEB, NEB-TS, DLPNO-Multilevel, CI-OPT
                                                   MM, QMMM, 2- and 3-layer-ONIOM, Crystal-QMMM,
                                                   LR-CPCM, SF, NACMEs, symmetry and pop. for TD-DFT,
                                                   nearIR, NL-DFT gradient (VV10), updates on ESD,
                                                   ML-optimized integration grids, MBIS, APM,
                                                   GOAT, DOCKER, SOLVATOR, interface openCOSMO-RS
   S Lehtola, MJT Oliveira, MAL Marques          : LibXC Library
   Liviu Ungur et al                             : ANISO software


 Your calculation uses the libint2 library for the computation of 2-el integrals
 For citations please refer to: http://libint.valeyev.net

 Your ORCA version has been built with support for libXC version: 6.2.2
 For citations please refer to: https://libxc.gitlab.io

 This ORCA versions uses:
   CBLAS   interface :  Fast vector & matrix operations
   LAPACKE interface :  Fast linear algebra routines
   SCALAPACK package :  Parallel linear algebra routines
   Shared memory     :  Shared parallel matrices
   BLAS/LAPACK       :  OpenBLAS 0.3.27  USE64BITINT DYNAMIC_ARCH NO_AFFINITY SapphireRapids SINGLE_THREADED
        Core in use  :  SapphireRapids
   Copyright (c) 2011-2014, The OpenBLAS Project


Your calculation utilizes the geometrical counterpoise correction gCP
Please cite in your paper:
H.Kruse, S. Grimme J.Chem.Phys., 136, (2012), 154101 
   

Your calculation utilizes the atom-pairwise dispersion correction
based on EEQ partial charges (D4)


================================================================================

----- Orbital basis set information -----
Your calculation utilizes the basis: def2-mTZVPP
   Stefan Grimme, Andreas Hansen, Sebastian Ehlert, and Jan-Michael Mewes 
   J. Chem. Phys. 154, 064103 (2021). DOI: 10.1063/5.0040021

----- AuxJ basis set information -----
Your calculation utilizes the auxiliary basis: def2/J
   F. Weigend, Phys. Chem. Chem. Phys. 8, 1057 (2006).

================================================================================
                                        WARNINGS
                       Please study these warnings very carefully!
================================================================================

Using LibXC functional ID 497 : Re-regularized SCAN exchange by Furness et al
[ 1]  J. W. Furness, A. D. Kaplan, J. Ning, J. P. Perdew, and J. Sun.,  J. Phys. Chem. Lett. 11, 8208-8215 (2020)
[ 2]  J. W. Furness, A. D. Kaplan, J. Ning, J. P. Perdew, and J. Sun.,  J. Phys. Chem. Lett. 11, 9248-9248 (2020)
Using LibXC functional ID 498 : Re-regularized SCAN correlation by Furness et al
[ 1]  J. W. Furness, A. D. Kaplan, J. Ning, J. P. Perdew, and J. Sun.,  J. Phys. Chem. Lett. 11, 8208-8215 (2020)
[ 2]  J. W. Furness, A. D. Kaplan, J. Ning, J. P. Perdew, and J. Sun.,  J. Phys. Chem. Lett. 11, 9248-9248 (2020)
Using LibXC functional ID 497 : Re-regularized SCAN exchange by Furness et al
[ 1]  J. W. Furness, A. D. Kaplan, J. Ning, J. P. Perdew, and J. Sun.,  J. Phys. Chem. Lett. 11, 8208-8215 (2020)
[ 2]  J. W. Furness, A. D. Kaplan, J. Ning, J. P. Perdew, and J. Sun.,  J. Phys. Chem. Lett. 11, 9248-9248 (2020)
Using LibXC functional ID 498 : Re-regularized SCAN correlation by Furness et al
[ 1]  J. W. Furness, A. D. Kaplan, J. Ning, J. P. Perdew, and J. Sun.,  J. Phys. Chem. Lett. 11, 8208-8215 (2020)
[ 2]  J. W. Furness, A. D. Kaplan, J. Ning, J. P. Perdew, and J. Sun.,  J. Phys. Chem. Lett. 11, 9248-9248 (2020)

================================================================================
                                       INPUT FILE
================================================================================
NAME = sp_gas.inp
|  1> ! r2scan-3c def2/J RI DEFGRID2 scfconv6 printgap
|  2> %output
|  3>     printlevel normal
|  4> end
|  5> * xyz 0 1
|  6> C 2.7087145569 -0.9665586777 3.0725297081
|  7> C 1.843008525 0.2091560149 2.6725830934
|  8> O 1.3052360689 0.068409264 1.3385700132
|  9> P 2.1691587564 -0.1352200026 0.0307620461
| 10> S 2.8240134989 -1.9401427651 -0.3858558765
| 11> O 3.2761303702 0.9921312753 0.1964748322
| 12> C 4.4004383715 1.1015612354 -0.7026862052
| 13> C 5.6271679915 0.4440196765 -0.1012882195
| 14> S 0.8648184503 0.660760759 -1.4384640829
| 15> C 0.0065672772 -0.8860312755 -1.8293651619
| 16> S -0.889585824 -1.5674470471 -0.4085934562
| 17> P -2.213860372 0.0651443631 -0.1530403184
| 18> S -2.8298503288 0.9193129142 -1.8103834941
| 19> O -1.4354947782 0.9946773161 0.8606899215
| 20> C -1.5632097643 2.4299552525 0.8413515968
| 21> C -2.8902651498 2.8638573368 1.4267926352
| 22> O -3.3191351685 -0.5400077437 0.8132276865
| 23> C -4.2604427275 -1.5475668232 0.3904875182
| 24> C -5.5314513579 -0.9177922238 -0.1463231921
| 25> H 2.154506476 -1.8969595634 2.9693759287
| 26> H 3.5888333545 -1.0177528462 2.4325956334
| 27> H 3.0253082316 -0.8481299959 4.1041143703
| 28> H 2.406720713 1.1437692434 2.7148719856
| 29> H 0.9497350375 0.2811560568 3.2958517601
| 30> H 4.1433166585 0.6436185228 -1.6612066243
| 31> H 4.5455036352 2.1747155137 -0.8375463712
| 32> H 5.4601494035 -0.6250831506 0.012238887
| 33> H 6.4744554299 0.5996071944 -0.7611305158
| 34> H 5.8457198857 0.8749756285 0.8717535059
| 35> H 0.7308259054 -1.6427918519 -2.1300132331
| 36> H -0.6930873923 -0.6571259536 -2.6327610673
| 37> H -0.717306536 2.7805480523 1.4341652461
| 38> H -1.4591705586 2.7786538159 -0.1917527372
| 39> H -3.0090326787 2.4600213774 2.428581161
| 40> H -2.9341817361 3.9477355724 1.4621844157
| 41> H -3.7016929521 2.4946211897 0.8005041266
| 42> H -3.7894301004 -2.1882577709 -0.3608885361
| 43> H -4.4560755929 -2.1307760177 1.2923467884
| 44> H -5.3157404729 -0.3292948687 -1.0352956986
| 45> H -6.2366761957 -1.7014472229 -0.4036130718
| 46> H -5.9731115428 -0.2691191261 0.6049868126
| 47> *
| 48> 
| 49>                          ****END OF INPUT****
================================================================================

                       ****************************
                       * Single Point Calculation *
                       ****************************

---------------------------------
CARTESIAN COORDINATES (ANGSTROEM)
---------------------------------
  C      2.708715   -0.966559    3.072530
  C      1.843009    0.209156    2.672583
  O      1.305236    0.068409    1.338570
  P      2.169159   -0.135220    0.030762
  S      2.824013   -1.940143   -0.385856
  O      3.276130    0.992131    0.196475
  C      4.400438    1.101561   -0.702686
  C      5.627168    0.444020   -0.101288
  S      0.864818    0.660761   -1.438464
  C      0.006567   -0.886031   -1.829365
  S     -0.889586   -1.567447   -0.408593
  P     -2.213860    0.065144   -0.153040
  S     -2.829850    0.919313   -1.810383
  O     -1.435495    0.994677    0.860690
  C     -1.563210    2.429955    0.841352
  C     -2.890265    2.863857    1.426793
  O     -3.319135   -0.540008    0.813228
  C     -4.260443   -1.547567    0.390488
  C     -5.531451   -0.917792   -0.146323
  H      2.154506   -1.896960    2.969376
  H      3.588833   -1.017753    2.432596
  H      3.025308   -0.848130    4.104114
  H      2.406721    1.143769    2.714872
  H      0.949735    0.281156    3.295852
  H      4.143317    0.643619   -1.661207
  H      4.545504    2.174716   -0.837546
  H      5.460149   -0.625083    0.012239
  H      6.474455    0.599607   -0.761131
  H      5.845720    0.874976    0.871754
  H      0.730826   -1.642792   -2.130013
  H     -0.693087   -0.657126   -2.632761
  H     -0.717307    2.780548    1.434165
  H     -1.459171    2.778654   -0.191753
  H     -3.009033    2.460021    2.428581
  H     -2.934182    3.947736    1.462184
  H     -3.701693    2.494621    0.800504
  H     -3.789430   -2.188258   -0.360889
  H     -4.456076   -2.130776    1.292347
  H     -5.315740   -0.329295   -1.035296
  H     -6.236676   -1.701447   -0.403613
  H     -5.973112   -0.269119    0.604987

----------------------------
CARTESIAN COORDINATES (A.U.)
----------------------------
  NO LB      ZA    FRAG     MASS         X           Y           Z
   0 C     6.0000    0    12.011    5.118729   -1.826531    5.806240
   1 C     6.0000    0    12.011    3.482781    0.395248    5.050450
   2 O     8.0000    0    15.999    2.466539    0.129275    2.529531
   3 P    15.0000    0    30.974    4.099116   -0.255529    0.058132
   4 S    16.0000    0    32.060    5.336612   -3.666338   -0.729162
   5 O     8.0000    0    15.999    6.190989    1.874856    0.371284
   6 C     6.0000    0    12.011    8.315623    2.081649   -1.327884
   7 C     6.0000    0    12.011   10.633806    0.839076   -0.191407
   8 S    16.0000    0    32.060    1.634270    1.248657   -2.718303
   9 C     6.0000    0    12.011    0.012410   -1.674356   -3.456999
  10 S    16.0000    0    32.060   -1.681074   -2.962046   -0.772130
  11 P    15.0000    0    30.974   -4.183590    0.123105   -0.289204
  12 S    16.0000    0    32.060   -5.347642    1.737250   -3.421129
  13 O     8.0000    0    15.999   -2.712692    1.879668    1.626468
  14 C     6.0000    0    12.011   -2.954038    4.591950    1.589924
  15 C     6.0000    0    12.011   -5.461810    5.411906    2.696247
  16 O     8.0000    0    15.999   -6.272256   -1.020467    1.536778
  17 C     6.0000    0    12.011   -8.051070   -2.924477    0.737914
  18 C     6.0000    0    12.011  -10.452928   -1.734376   -0.276511
  19 H     1.0000    0     1.008    4.071427   -3.584734    5.611307
  20 H     1.0000    0     1.008    6.781912   -1.923274    4.596940
  21 H     1.0000    0     1.008    5.717004   -1.602733    7.755652
  22 H     1.0000    0     1.008    4.548043    2.161411    5.130365
  23 H     1.0000    0     1.008    1.794739    0.531308    6.228257
  24 H     1.0000    0     1.008    7.829734    1.216263   -3.139226
  25 H     1.0000    0     1.008    8.589757    4.109617   -1.582733
  26 H     1.0000    0     1.008   10.318187   -1.181236    0.023128
  27 H     1.0000    0     1.008   12.234948    1.133093   -1.438328
  28 H     1.0000    0     1.008   11.046810    1.653464    1.647375
  29 H     1.0000    0     1.008    1.381061   -3.104427   -4.025142
  30 H     1.0000    0     1.008   -1.309745   -1.241788   -4.975197
  31 H     1.0000    0     1.008   -1.355513    5.254474    2.710180
  32 H     1.0000    0     1.008   -2.757433    5.250895   -0.362360
  33 H     1.0000    0     1.008   -5.686248    4.648767    4.589353
  34 H     1.0000    0     1.008   -5.544800    7.460139    2.763128
  35 H     1.0000    0     1.008   -6.995186    4.714151    1.512734
  36 H     1.0000    0     1.008   -7.160985   -4.135208   -0.681980
  37 H     1.0000    0     1.008   -8.420763   -4.026583    2.442182
  38 H     1.0000    0     1.008  -10.045294   -0.622277   -1.956425
  39 H     1.0000    0     1.008  -11.785610   -3.215269   -0.762718
  40 H     1.0000    0     1.008  -11.287545   -0.508561    1.143259

--------------------------------
INTERNAL COORDINATES (ANGSTROEM)
--------------------------------
 C      0   0   0     0.000000000000     0.00000000     0.00000000
 C      1   0   0     1.513839247303     0.00000000     0.00000000
 O      2   1   0     1.445198865407   112.39726808     0.00000000
 P      3   2   1     1.580566027410   124.95461664   302.96525322
 S      4   3   2     1.964726801822   118.42393693    81.09866815
 O      4   3   2     1.588637084113   101.72022194   312.39279191
 C      6   4   3     1.443791525509   122.10272764   172.98582663
 C      7   6   4     1.516214364617   110.49652000   261.93587243
 S      4   3   2     2.119791127704   100.88211352   205.90259927
 C      9   4   3     1.811619255717    96.91804896   269.59726298
 S     10   9   4     1.812735522434   112.70834955    62.22890834
 P     11  10   9     2.117631978739    96.54218366    61.87571572
 S     12  11  10     1.963627750518   115.44719059    36.73891417
 O     12  11  10     1.580358664232   102.87728835   269.24408334
 C     14  12  11     1.441078708188   122.24584498   148.46587586
 C     15  14  12     1.513964406579   110.97376105    74.87353282
 O     12  11  10     1.587927991263   102.41002889   165.60294852
 C     17  12  11     1.442201258219   122.83207328   290.12361350
 C     18  17  12     1.516655769545   111.13867030   268.96440737
 H      1   2   3     1.087857117112   110.35568727   304.65693710
 H      1   2   3     1.089378520414   110.07891783    64.26939646
 H      1   2   3     1.085552312337   109.45767196   184.21742104
 H      2   1   3     1.092273623315   111.04993657   238.72376088
 H      2   1   3     1.091597618353   111.61351913   115.44545923
 H      7   6   4     1.092970492352   109.34265923    24.25015277
 H      7   6   4     1.091279661746   104.77438582   141.61634476
 H      8   7   6     1.088009406008   110.07957706    64.46614792
 H      8   7   6     1.085124571182   109.16981332   183.97303229
 H      8   7   6     1.086415280817   110.24186760   304.06070846
 H     10   9   4     1.089782727534   109.72964296   303.74898298
 H     10   9   4     1.089660168934   106.49390149   182.73514457
 H     15  14  12     1.090823361373   104.12803509   195.76082067
 H     15  14  12     1.095317036008   108.74226489   312.62960764
 H     16  15  14     1.086632163361   110.23028973    55.47218796
 H     16  15  14     1.085344772082   109.52937449   176.22946551
 H     16  15  14     1.089489654230   109.47586741   295.80165199
 H     18  17  12     1.094030968633   109.23511287    31.96906929
 H     18  17  12     1.091675467261   104.36149198   148.83807058
 H     19  18  17     1.087718915980   110.34896976    63.27571398
 H     19  18  17     1.085198282186   109.18762663   183.07735004
 H     19  18  17     1.086419453880   110.11125868   303.11593487

---------------------------
INTERNAL COORDINATES (A.U.)
---------------------------
 C      0   0   0     0.000000000000     0.00000000     0.00000000
 C      1   0   0     2.860741588183     0.00000000     0.00000000
 O      2   1   0     2.731030064673   112.39726808     0.00000000
 P      3   2   1     2.986836928385   124.95461664   302.96525322
 S      4   3   2     3.712795583418   118.42393693    81.09866815
 O      4   3   2     3.002089015165   101.72022194   312.39279191
 C      6   4   3     2.728370577689   122.10272764   172.98582663
 C      7   6   4     2.865229909443   110.49652000   261.93587243
 S      4   3   2     4.005824692476   100.88211352   205.90259927
 C      9   4   3     3.423464252243    96.91804896   269.59726298
 S     10   9   4     3.425573690631   112.70834955    62.22890834
 P     11  10   9     4.001744492251    96.54218366    61.87571572
 S     12  11  10     3.710718677448   115.44719059    36.73891417
 O     12  11  10     2.986445068768   102.87728835   269.24408334
 C     14  12  11     2.723244095901   122.24584498   148.46587586
 C     15  14  12     2.860978104938   110.97376105    74.87353282
 O     12  11  10     3.000749023874   102.41002889   165.60294852
 C     17  12  11     2.725365408030   122.83207328   290.12361350
 C     18  17  12     2.866064043871   111.13867030   268.96440737
 H      1   2   3     2.055752024178   110.35568727   304.65693710
 H      1   2   3     2.058627059759   110.07891783    64.26939646
 H      1   2   3     2.051396574361   109.45767196   184.21742104
 H      2   1   3     2.064098011372   111.04993657   238.72376088
 H      2   1   3     2.062820547128   111.61351913   115.44545923
 H      7   6   4     2.065414903001   109.34265923    24.25015277
 H      7   6   4     2.062219696217   104.77438582   141.61634476
 H      8   7   6     2.056039808485   110.07957706    64.46614792
 H      8   7   6     2.050588260723   109.16981332   183.97303229
 H      8   7   6     2.053027348451   110.24186760   304.06070846
 H     10   9   4     2.059390900517   109.72964296   303.74898298
 H     10   9   4     2.059159298327   106.49390149   182.73514457
 H     15  14  12     2.061357413478   104.12803509   195.76082067
 H     15  14  12     2.069849227874   108.74226489   312.62960764
 H     16  15  14     2.053437197062   110.23028973    55.47218796
 H     16  15  14     2.051004380119   109.52937449   176.22946551
 H     16  15  14     2.058837072236   109.47586741   295.80165199
 H     18  17  12     2.067418912745   109.23511287    31.96906929
 H     18  17  12     2.062967660244   104.36149198   148.83807058
 H     19  18  17     2.055490861887   110.34896976    63.27571398
 H     19  18  17     2.050727554334   109.18762663   183.07735004
 H     19  18  17     2.053035234397   110.11125868   303.11593487

---------------------
BASIS SET INFORMATION
---------------------
There are 5 groups of distinct atoms

 Group   1 Type C   : 11s6p1d contracted to 5s3p1d pattern {62111/411/1}
 Group   2 Type O   : 11s6p2d contracted to 5s3p2d pattern {62111/411/11}
 Group   3 Type P   : 14s9p2d contracted to 5s4p2d pattern {73211/6111/11}
 Group   4 Type S   : 14s9p2d contracted to 5s4p2d pattern {73211/6111/11}
 Group   5 Type H   : 4s1p contracted to 2s1p pattern {31/1}

Atom   0C    basis set group =>   1
Atom   1C    basis set group =>   1
Atom   2O    basis set group =>   2
Atom   3P    basis set group =>   3
Atom   4S    basis set group =>   4
Atom   5O    basis set group =>   2
Atom   6C    basis set group =>   1
Atom   7C    basis set group =>   1
Atom   8S    basis set group =>   4
Atom   9C    basis set group =>   1
Atom  10S    basis set group =>   4
Atom  11P    basis set group =>   3
Atom  12S    basis set group =>   4
Atom  13O    basis set group =>   2
Atom  14C    basis set group =>   1
Atom  15C    basis set group =>   1
Atom  16O    basis set group =>   2
Atom  17C    basis set group =>   1
Atom  18C    basis set group =>   1
Atom  19H    basis set group =>   5
Atom  20H    basis set group =>   5
Atom  21H    basis set group =>   5
Atom  22H    basis set group =>   5
Atom  23H    basis set group =>   5
Atom  24H    basis set group =>   5
Atom  25H    basis set group =>   5
Atom  26H    basis set group =>   5
Atom  27H    basis set group =>   5
Atom  28H    basis set group =>   5
Atom  29H    basis set group =>   5
Atom  30H    basis set group =>   5
Atom  31H    basis set group =>   5
Atom  32H    basis set group =>   5
Atom  33H    basis set group =>   5
Atom  34H    basis set group =>   5
Atom  35H    basis set group =>   5
Atom  36H    basis set group =>   5
Atom  37H    basis set group =>   5
Atom  38H    basis set group =>   5
Atom  39H    basis set group =>   5
Atom  40H    basis set group =>   5
---------------------------------
AUXILIARY/J BASIS SET INFORMATION
---------------------------------
There are 5 groups of distinct atoms

 Group   1 Type C   : 12s5p4d2f1g contracted to 6s4p3d1f1g pattern {711111/2111/211/2/1}
 Group   2 Type O   : 12s5p4d2f1g contracted to 6s4p3d1f1g pattern {711111/2111/211/2/1}
 Group   3 Type P   : 14s5p5d2f1g contracted to 8s4p3d1f1g pattern {71111111/2111/311/2/1}
 Group   4 Type S   : 14s5p5d2f1g contracted to 8s4p3d1f1g pattern {71111111/2111/311/2/1}
 Group   5 Type H   : 5s2p1d contracted to 3s1p1d pattern {311/2/1}

Atom   0C    basis set group =>   1
Atom   1C    basis set group =>   1
Atom   2O    basis set group =>   2
Atom   3P    basis set group =>   3
Atom   4S    basis set group =>   4
Atom   5O    basis set group =>   2
Atom   6C    basis set group =>   1
Atom   7C    basis set group =>   1
Atom   8S    basis set group =>   4
Atom   9C    basis set group =>   1
Atom  10S    basis set group =>   4
Atom  11P    basis set group =>   3
Atom  12S    basis set group =>   4
Atom  13O    basis set group =>   2
Atom  14C    basis set group =>   1
Atom  15C    basis set group =>   1
Atom  16O    basis set group =>   2
Atom  17C    basis set group =>   1
Atom  18C    basis set group =>   1
Atom  19H    basis set group =>   5
Atom  20H    basis set group =>   5
Atom  21H    basis set group =>   5
Atom  22H    basis set group =>   5
Atom  23H    basis set group =>   5
Atom  24H    basis set group =>   5
Atom  25H    basis set group =>   5
Atom  26H    basis set group =>   5
Atom  27H    basis set group =>   5
Atom  28H    basis set group =>   5
Atom  29H    basis set group =>   5
Atom  30H    basis set group =>   5
Atom  31H    basis set group =>   5
Atom  32H    basis set group =>   5
Atom  33H    basis set group =>   5
Atom  34H    basis set group =>   5
Atom  35H    basis set group =>   5
Atom  36H    basis set group =>   5
Atom  37H    basis set group =>   5
Atom  38H    basis set group =>   5
Atom  39H    basis set group =>   5
Atom  40H    basis set group =>   5

Checking for AutoStart:
The File: sp_gas.gbw exists
Trying to determine its content:
     ... Fine, the file contains calculation information
     ... Fine, the calculation information was read
     ... Fine, the file contains a basis set
     ... Fine, the basis set was read
     ... Fine, the file contains a geometry
     ... Fine, the geometry was read
     ... Fine, the file contains a set of orbitals
     ... Fine, the orbitals can be read
     => possible old guess file was deleted
     => GBW file was renamed to GES file
     => GES file is set as startup file
     => Guess is set to MORead
     ... now leaving AutoStart

------------------------------------------------------------------------------
                             ORCA STARTUP CALCULATIONS
                           -- RI-GTO INTEGRALS CHOSEN --
------------------------------------------------------------------------------
------------------------------------------------------------------------------
                   ___                                                        
                  /   \      - P O W E R E D   B Y -                         
                 /     \                                                     
                 |  |  |   _    _      __       _____    __    __             
                 |  |  |  | |  | |    /  \     |  _  \  |  |  /  |          
                  \  \/   | |  | |   /    \    | | | |  |  | /  /          
                 / \  \   | |__| |  /  /\  \   | |_| |  |  |/  /          
                |  |  |   |  __  | /  /__\  \  |    /   |      \           
                |  |  |   | |  | | |   __   |  |    \   |  |\   \          
                \     /   | |  | | |  |  |  |  | |\  \  |  | \   \       
                 \___/    |_|  |_| |__|  |__|  |_| \__\ |__|  \__/        
                                                                              
                      - O R C A' S   B I G   F R I E N D -                    
                                      &                                       
                       - I N T E G R A L  F E E D E R -                       
                                                                              
 v1 FN, 2020, v2 2021, v3 2022-2024                                           
------------------------------------------------------------------------------


----------------------
SHARK INTEGRAL PACKAGE
----------------------

Number of atoms                             ...     41
Number of basis functions                   ...    539
Number of shells                            ...    253
Maximum angular momentum                    ...      2
Integral batch strategy                     ... SHARK/LIBINT Hybrid
RI-J (if used) integral strategy            ... SPLIT-RIJ (Revised 2003 algorithm where possible)
Printlevel                                  ...      1
Contraction scheme used                     ... SEGMENTED contraction
Prescreening option                         ... SCHWARTZ
   Thresh                                   ... 1.000e-10
   Tcut                                     ... 1.000e-11
   Tpresel                                  ... 1.000e-11 
Coulomb Range Separation                    ... NOT USED
Exchange Range Separation                   ... NOT USED
Multipole approximations                    ... NOT USED
Finite Nucleus Model                        ... NOT USED
CABS basis                                  ... NOT available
Auxiliary Coulomb fitting basis             ... AVAILABLE
   # of basis functions in Aux-J            ...   1185
   # of shells in Aux-J                     ...    407
   Maximum angular momentum in Aux-J        ...      4
Auxiliary J/K fitting basis                 ... NOT available
Auxiliary Correlation fitting basis         ... NOT available
Auxiliary 'external' fitting basis          ... NOT available

Checking pre-screening integrals            ... done (  0.0 sec) Dimension = 253
Check shell pair data                       ... done (  0.0 sec)
Shell pair information
Shell pair cut-off parameter TPreSel        ...   1.0e-11
Total number of shell pairs                 ...     32131
Shell pairs after pre-screening             ...     21063
Total number of primitive shell pairs       ...    124843
Primitive shell pairs kept                  ...     49260
          la=0 lb=0:   5895 shell pairs
          la=1 lb=0:   7630 shell pairs
          la=1 lb=1:   2526 shell pairs
          la=2 lb=0:   2831 shell pairs
          la=2 lb=1:   1832 shell pairs
          la=2 lb=2:    349 shell pairs

Calculating one electron integrals          ... done (  0.1 sec)
Calculating RI/J V-Matrix + Cholesky decomp.... done (  0.1 sec)
Calculating Nuclear repulsion               ... done (  0.0 sec) ENN=   2775.078089326038 Eh

Diagonalization of the overlap matrix:
Smallest eigenvalue                        ... 2.895e-04
Time for diagonalization                   ...    0.030 sec
Threshold for overlap eigenvalues          ... 1.000e-07
Number of eigenvalues below threshold      ... 0
Time for construction of square roots      ...    0.055 sec
Total time needed                          ...    0.093 sec

-------------------
DFT GRID GENERATION
-------------------

General Integration Accuracy     IntAcc      ... 4.388
Radial Grid Type                 RadialGrid  ... OptM3 with GC (2021)
Angular Grid (max. ang.)         AngularGrid ... 4 (Lebedev-302)
Angular grid pruning method      GridPruning ... 4 (adaptive)
Weight generation scheme         WeightScheme... mBecke (2022)
Basis function cutoff            BFCut       ... 1.0000e-10
Integration weight cutoff        WCut        ... 1.0000e-14
Partially contracted basis set               ... off
Rotationally invariant grid construction     ... off
Angular grids for H and He will be reduced by one unit
Diffuse basis detected: some atoms will have their outermost
                        angular grid increased by 1.

Total number of grid points                  ...   192748
Total number of batches                      ...     3034
Average number of points per batch           ...       63
Average number of grid points per atom       ...     4701
Initializing property integral containers    ... done (  0.0 sec)

SHARK setup successfully completed in   2.9 seconds

Maximum memory used throughout the entire STARTUP-calculation: 101.3 MB
-------------------------------------------------------------------------------
                                 ORCA GUESS
                   Start orbitals & Density for SCF / CASSCF
-------------------------------------------------------------------------------

------------
SCF SETTINGS
------------
Hamiltonian:
 Density Functional     Method          .... DFT(GTOs)
  Functional kind                       .... Exchange
  Functional name                       .... Re-regularized SCAN exchange by Furness et al
  Functional family                     .... MGGA
  Functional refs                              
    [ 0] J. W. Furness, A. D. Kaplan, J. Ning, J. P. Perdew, and J. Sun.,  J. Phys. Chem. Lett. 11, 8208-8215 (2020), doi: 10.1021/acs.jpclett.0c02405
    [ 1] J. W. Furness, A. D. Kaplan, J. Ning, J. P. Perdew, and J. Sun.,  J. Phys. Chem. Lett. 11, 9248-9248 (2020), doi: 10.1021/acs.jpclett.0c03077
  Functional external parameters        .... 6
    Parameter  0 _c1        =  6.670000e-01 : c1 parameter        
    Parameter  1 _c2        =  8.000000e-01 : c2 parameter        
    Parameter  2 _d         =  1.240000e+00 : d parameter         
    Parameter  3 _k1        =  6.500000e-02 : k1 parameter        
    Parameter  4 _eta       =  1.000000e-03 : eta parameter       
    Parameter  5 _dp2       =  3.610000e-01 : dp2 parameter       
  Functional kind                       .... Correlation
  Functional name                       .... Re-regularized SCAN correlation by Furness et al
  Functional family                     .... MGGA
  Functional refs                              
    [ 0] J. W. Furness, A. D. Kaplan, J. Ning, J. P. Perdew, and J. Sun.,  J. Phys. Chem. Lett. 11, 8208-8215 (2020), doi: 10.1021/acs.jpclett.0c02405
    [ 1] J. W. Furness, A. D. Kaplan, J. Ning, J. P. Perdew, and J. Sun.,  J. Phys. Chem. Lett. 11, 9248-9248 (2020), doi: 10.1021/acs.jpclett.0c03077
  Functional external parameters        .... 1
    Parameter  0 _eta       =  1.000000e-03 : Regularization parameter
 Gradients option       PostSCFGGA      .... off
 RI-approximation to the Coulomb term is turned on
   Number of AuxJ basis functions       .... 1185


General Settings:
 Integral files         IntName         .... sp_gas
 Hartree-Fock type      HFTyp           .... RHF
 Total Charge           Charge          ....    0
 Multiplicity           Mult            ....    1
 Number of Electrons    NEL             ....  202
 Basis Dimension        Dim             ....  539
 Nuclear Repulsion      ENuc            ....   2775.0780893260 Eh

Convergence Acceleration:
 AO-DIIS                CNVDIIS         .... on
   Start iteration      DIISMaxIt       ....    12
   Startup error        DIISStart       ....  0.200000
   # of expansion vecs  DIISMaxEq       ....     5
   Bias factor          DIISBfac        ....   1.050
   Max. coefficient     DIISMaxC        ....  10.000
 MO-DIIS                CNVKDIIS        .... off
 Trust-Rad. Augm. Hess. CNVTRAH         .... auto
   Auto Start mean grad. ratio tolernc. ....  1.125000
   Auto Start start iteration           ....     1
   Auto Start num. interpolation iter.  ....    10
   Max. Number of Micro iterations      ....    24
   Max. Number of Macro iterations      .... Maxiter - #DIIS iter
   Number of Davidson start vectors     ....     2
   Converg. threshold    (grad. norm)   ....   3.330e-04
   Grad. Scal. Fac. for Micro threshold ....   0.100
   Minimum threshold for Micro iter.    ....   1.000e-02
   NR start threshold (gradient norm)   ....   1.000e-04
   Initial trust radius                 ....   0.400
   Minimum AH scaling param. (alpha)    ....   1.000
   Maximum AH scaling param. (alpha)    .... 1000.000
   Quad. conv. algorithm                .... NR
   White noise on init. David. guess    .... on
   Maximum white noise                  ....   0.010
   Pseudo random numbers                .... off
   Inactive MOs                         .... canonical
   Orbital update algorithm             .... Taylor
   Preconditioner                       .... Diag
   Full preconditioner red. dimension   ....   250
   COSX micro iterations for RIJONX calc.... off
 SOSCF                  CNVSOSCF        .... on
   Start iteration      SOSCFMaxIt      ....   150
   Startup grad/error   SOSCFStart      ....  0.003300
   Hessian update       SOSCFHessUp     .... L-BFGS
 Level Shifting         CNVShift        .... on
   Level shift para.    LevelShift      ....    0.2500
   Turn off err/grad.   ShiftErr        ....    0.0010
 Zerner damping         CNVZerner       .... off
 Static damping         CNVDamp         .... on
   Fraction old density DampFac         ....    0.7000
   Max. Damping (<1)    DampMax         ....    0.9800
   Min. Damping (>=0)   DampMin         ....    0.0000
   Turn off err/grad.   DampErr         ....    0.1000

SCF Procedure:
 Maximum # iterations   MaxIter         ....   125
 SCF integral mode      SCFMode         .... Direct
   Integral package                     .... SHARK and LIBINT hybrid scheme
 Reset frequency        DirectResetFreq ....    20
 Integral Threshold     Thresh          ....  1.000e-10 Eh
 Primitive CutOff       TCut            ....  1.000e-11 Eh

Convergence Tolerance:
 Convergence Check Mode ConvCheckMode   .... Total+1el-Energy
 Convergence forced     ConvForced      .... 0
 Energy Change          TolE            ....  1.000e-06 Eh
 1-El. energy change                    ....  1.000e-03 Eh
 Orbital Gradient       TolG            ....  3.330e-04
 Orbital Rotation angle TolX            ....  3.330e-04
 DIIS Error             TolErr          ....  1.000e-06

---------------------
INITIAL GUESS: MOREAD
---------------------
Guess MOs are being read from file: sp_gas.ges
Input Geometry matches current geometry (good)
Atom 0: N(Shells)= 9 and 6 - projection required
Input basis set needs projection
NBasis(read)= 334
NBasis(calc)= 539
Basis set overlap was calculated
Using GuessMode=FMatrix for the initial guess
C*T matrix was formed
Effective Fockian was calculated
Effective Fockian was diagonalized
Initial density was built
                      ------------------
                      INITIAL GUESS DONE (   0.2 sec)
                      ------------------
             **** ENERGY FILE WAS UPDATED (sp_gas.en.tmp) ****
Finished Guess after   0.5 sec
Maximum memory used throughout the entire GUESS-calculation: 58.6 MB

-------------------------------------------------------------------------------------------
                                      ORCA LEAN-SCF
                              memory conserving SCF solver
-------------------------------------------------------------------------------------------

----------------------------------------D-I-I-S--------------------------------------------
Iteration    Energy (Eh)           Delta-E    RMSDP     MaxDP     DIISErr   Damp  Time(sec)
-------------------------------------------------------------------------------------------
               ***  Starting incremental Fock matrix formation  ***
    1    -2932.0048727078697084     0.00e+00  2.10e-03  9.26e-02  6.34e-01  0.700   9.0
    2    -2932.1474252619414074    -1.43e-01  1.72e-03  7.45e-02  4.45e-01  0.700   7.5
    3    -2932.2481246075235504    -1.01e-01  1.26e-03  5.40e-02  3.12e-01  0.700   7.2
    4    -2932.3187692304486518    -7.06e-02  9.05e-04  3.83e-02  2.19e-01  0.700   7.2
                               ***Turning on AO-DIIS***
    5    -2932.3682944450079049    -4.95e-02  6.55e-04  2.73e-02  1.53e-01  0.700   7.1
    6    -2932.4029960803677568    -3.47e-02  4.64e-04  1.93e-02  1.07e-01  0.700   7.2
    7    -2932.4273163134007518    -2.43e-02  3.27e-04  1.36e-02  7.50e-02  0.700   6.9
    8    -2932.4443532187829078    -1.70e-02  7.66e-04  3.17e-02  5.25e-02  0.000   6.5
                              *** Initializing SOSCF ***
---------------------------------------S-O-S-C-F--------------------------------------
Iteration    Energy (Eh)           Delta-E    RMSDP     MaxDP     MaxGrad    Time(sec)
--------------------------------------------------------------------------------------
    9    -2932.4841478636622014    -3.98e-02  5.20e-06  2.32e-04  1.62e-04     6.8
               *** Restarting incremental Fock matrix formation ***
   10    -2932.4841485275351260    -6.64e-07  5.30e-06  1.68e-04  3.58e-05     8.5
                  *** Gradient check signals convergence ***

               *****************************************************
               *                     SUCCESS                       *
               *           SCF CONVERGED AFTER  10 CYCLES          *
               *****************************************************

             **** ENERGY FILE WAS UPDATED (sp_gas.en.tmp) ****

----------------
TOTAL SCF ENERGY
----------------

Total Energy       :      -2932.48414852753513 Eh          -79796.95048 eV

Components:
Nuclear Repulsion  :       2775.07808932603848 Eh           75513.71385 eV
Electronic Energy  :      -5707.56223785357361 Eh         -155310.66433 eV
One Electron Energy:      -9571.60797585503497 Eh         -260456.69439 eV
Two Electron Energy:       3864.04573800146181 Eh          105146.03005 eV

Virial components:
Potential Energy   :      -5856.14396881288121 Eh         -159353.77878 eV
Kinetic Energy     :       2923.65982028534654 Eh           79556.82830 eV
Virial Ratio       :          2.00301824726015

DFT components:
N(Alpha)           :      101.000052162444 electrons
N(Beta)            :      101.000052162444 electrons
N(Total)           :      202.000104324887 electrons
E(X)               :     -233.538151418125 Eh       
E(C)               :       -7.119292967369 Eh       
E(XC)              :     -240.657444385494 Eh       

---------------
SCF CONVERGENCE
---------------

  Last Energy change         ...    6.6387e-07  Tolerance :   1.0000e-06
  Last MAX-Density change    ...    1.6788e-04  Tolerance :   1.0000e-05
  Last RMS-Density change    ...    5.3037e-06  Tolerance :   1.0000e-06
  Last DIIS Error            ...    1.6208e-04  Tolerance :   1.0000e-06
  Last Orbital Gradient      ...    3.5816e-05  Tolerance :   3.3300e-04
  Last Orbital Rotation      ...    1.0491e-04  Tolerance :   3.3300e-04


----------------
ORBITAL ENERGIES
----------------

  NO   OCC          E(Eh)            E(eV) 
   0   2.0000     -88.571049     -2410.1408 
   1   2.0000     -88.570333     -2410.1213 
   2   2.0000     -88.517758     -2408.6906 
   3   2.0000     -88.517099     -2408.6727 
   4   2.0000     -76.913814     -2092.9313 
   5   2.0000     -76.910651     -2092.8452 
   6   2.0000     -18.995925      -516.9054 
   7   2.0000     -18.990193      -516.7494 
   8   2.0000     -18.985339      -516.6173 
   9   2.0000     -18.984086      -516.5832 
  10   2.0000     -10.102992      -274.9164 
  11   2.0000     -10.101000      -274.8622 
  12   2.0000     -10.100559      -274.8502 
  13   2.0000     -10.099251      -274.8146 
  14   2.0000     -10.092966      -274.6436 
  15   2.0000     -10.029676      -272.9214 
  16   2.0000     -10.027910      -272.8733 
  17   2.0000     -10.025297      -272.8022 
  18   2.0000     -10.024421      -272.7784 
  19   2.0000      -7.865332      -214.0266 
  20   2.0000      -7.864584      -214.0062 
  21   2.0000      -7.812702      -212.5944 
  22   2.0000      -7.811995      -212.5752 
  23   2.0000      -6.591922      -179.3753 
  24   2.0000      -6.589093      -179.2983 
  25   2.0000      -5.812277      -158.1601 
  26   2.0000      -5.811476      -158.1383 
  27   2.0000      -5.809168      -158.0755 
  28   2.0000      -5.808441      -158.0557 
  29   2.0000      -5.802420      -157.8919 
  30   2.0000      -5.801694      -157.8721 
  31   2.0000      -5.760279      -156.7452 
  32   2.0000      -5.759632      -156.7276 
  33   2.0000      -5.752935      -156.5453 
  34   2.0000      -5.752797      -156.5416 
  35   2.0000      -5.752239      -156.5264 
  36   2.0000      -5.752044      -156.5211 
  37   2.0000      -4.737981      -128.9270 
  38   2.0000      -4.736635      -128.8904 
  39   2.0000      -4.735406      -128.8569 
  40   2.0000      -4.734478      -128.8317 
  41   2.0000      -4.734052      -128.8201 
  42   2.0000      -4.732919      -128.7893 
  43   2.0000      -1.050846       -28.5950 
  44   2.0000      -1.046806       -28.4850 
  45   2.0000      -1.009078       -27.4584 
  46   2.0000      -1.006965       -27.4009 
  47   2.0000      -0.799239       -21.7484 
  48   2.0000      -0.756899       -20.5963 
  49   2.0000      -0.746682       -20.3183 
  50   2.0000      -0.733648       -19.9636 
  51   2.0000      -0.727537       -19.7973 
  52   2.0000      -0.707204       -19.2440 
  53   2.0000      -0.684797       -18.6343 
  54   2.0000      -0.666576       -18.1384 
  55   2.0000      -0.626651       -17.0521 
  56   2.0000      -0.622526       -16.9398 
  57   2.0000      -0.610039       -16.6000 
  58   2.0000      -0.600266       -16.3341 
  59   2.0000      -0.590909       -16.0795 
  60   2.0000      -0.529375       -14.4050 
  61   2.0000      -0.519167       -14.1272 
  62   2.0000      -0.492496       -13.4015 
  63   2.0000      -0.492035       -13.3890 
  64   2.0000      -0.471099       -12.8193 
  65   2.0000      -0.459898       -12.5145 
  66   2.0000      -0.455461       -12.3937 
  67   2.0000      -0.453537       -12.3414 
  68   2.0000      -0.441882       -12.0242 
  69   2.0000      -0.431460       -11.7406 
  70   2.0000      -0.419584       -11.4175 
  71   2.0000      -0.415640       -11.3101 
  72   2.0000      -0.408546       -11.1171 
  73   2.0000      -0.402417       -10.9503 
  74   2.0000      -0.402014       -10.9394 
  75   2.0000      -0.386981       -10.5303 
  76   2.0000      -0.381004       -10.3676 
  77   2.0000      -0.368560       -10.0290 
  78   2.0000      -0.365547        -9.9470 
  79   2.0000      -0.364091        -9.9074 
  80   2.0000      -0.359074        -9.7709 
  81   2.0000      -0.357305        -9.7228 
  82   2.0000      -0.353424        -9.6172 
  83   2.0000      -0.350331        -9.5330 
  84   2.0000      -0.347879        -9.4663 
  85   2.0000      -0.339864        -9.2482 
  86   2.0000      -0.320242        -8.7142 
  87   2.0000      -0.314591        -8.5604 
  88   2.0000      -0.309800        -8.4301 
  89   2.0000      -0.305792        -8.3210 
  90   2.0000      -0.296486        -8.0678 
  91   2.0000      -0.291658        -7.9364 
  92   2.0000      -0.284490        -7.7414 
  93   2.0000      -0.276336        -7.5195 
  94   2.0000      -0.271166        -7.3788 
  95   2.0000      -0.244885        -6.6637 
  96   2.0000      -0.227611        -6.1936 
  97   2.0000      -0.223067        -6.0700 
  98   2.0000      -0.215442        -5.8625 
  99   2.0000      -0.209344        -5.6966 
 100   2.0000      -0.206680        -5.6241 
 101   0.0000      -0.045529        -1.2389 
 102   0.0000      -0.022914        -0.6235 
 103   0.0000       0.000751         0.0204 
 104   0.0000       0.004105         0.1117 
 105   0.0000       0.017770         0.4836 
 106   0.0000       0.026037         0.7085 
 107   0.0000       0.040195         1.0938 
 108   0.0000       0.041310         1.1241 
 109   0.0000       0.056315         1.5324 
 110   0.0000       0.073895         2.0108 
 111   0.0000       0.078993         2.1495 
*Only the first 10 virtual orbitals were printed.

                    ********************************
                    * MULLIKEN POPULATION ANALYSIS *
                    ********************************

-----------------------
MULLIKEN ATOMIC CHARGES
-----------------------
   0 C :   -0.437475
   1 C :   -0.154553
   2 O :   -0.244325
   3 P :    0.670646
   4 S :   -0.460311
   5 O :   -0.315995
   6 C :   -0.118657
   7 C :   -0.466138
   8 S :   -0.139720
   9 C :   -0.222971
  10 S :   -0.140757
  11 P :    0.695850
  12 S :   -0.489479
  13 O :   -0.262253
  14 C :   -0.148072
  15 C :   -0.444768
  16 O :   -0.302869
  17 C :   -0.135574
  18 C :   -0.454484
  19 H :    0.167165
  20 H :    0.164785
  21 H :    0.145364
  22 H :    0.156318
  23 H :    0.154604
  24 H :    0.158652
  25 H :    0.150323
  26 H :    0.182828
  27 H :    0.146776
  28 H :    0.150368
  29 H :    0.209869
  30 H :    0.207546
  31 H :    0.151092
  32 H :    0.175893
  33 H :    0.153201
  34 H :    0.145947
  35 H :    0.167982
  36 H :    0.154534
  37 H :    0.150306
  38 H :    0.182051
  39 H :    0.144797
  40 H :    0.151503
Sum of atomic charges:   -0.0000000

--------------------------------
MULLIKEN REDUCED ORBITAL CHARGES
--------------------------------
  0 C s       :     3.309539  s :     3.309539
      pz      :     1.065055  p :     3.102162
      px      :     1.051045
      py      :     0.986062
      dz2     :     0.006059  d :     0.025775
      dxz     :     0.005181
      dyz     :     0.002077
      dx2y2   :     0.005246
      dxy     :     0.007212

  1 C s       :     3.277463  s :     3.277463
      pz      :     0.749690  p :     2.822448
      px      :     1.048262
      py      :     1.024496
      dz2     :     0.014357  d :     0.054642
      dxz     :     0.014395
      dyz     :     0.009182
      dx2y2   :     0.006940
      dxy     :     0.009768

  2 O s       :     3.723399  s :     3.723399
      pz      :     1.095824  p :     4.511180
      px      :     1.621317
      py      :     1.794039
      dz2     :    -0.013849  d :     0.009745
      dxz     :     0.010365
      dyz     :    -0.003939
      dx2y2   :     0.009500
      dxy     :     0.007668

  3 P s       :     5.142429  s :     5.142429
      pz      :     2.856257  p :     8.452281
      px      :     2.785260
      py      :     2.810764
      dz2     :     0.123332  d :     0.734644
      dxz     :     0.125776
      dyz     :     0.172907
      dx2y2   :     0.136825
      dxy     :     0.175805

  4 S s       :     5.916715  s :     5.916715
      pz      :     3.667065  p :    10.478621
      px      :     3.608306
      py      :     3.203250
      dz2     :     0.008789  d :     0.064975
      dxz     :     0.003526
      dyz     :     0.013893
      dx2y2   :     0.019860
      dxy     :     0.018907

  5 O s       :     3.739568  s :     3.739568
      pz      :     1.637894  p :     4.559640
      px      :     1.305460
      py      :     1.616287
      dz2     :     0.001495  d :     0.016787
      dxz     :     0.006428
      dyz     :     0.007013
      dx2y2   :     0.000636
      dxy     :     0.001215

  6 C s       :     3.268173  s :     3.268173
      pz      :     0.924236  p :     2.796104
      px      :     0.787561
      py      :     1.084307
      dz2     :     0.010927  d :     0.054379
      dxz     :     0.015091
      dyz     :     0.005998
      dx2y2   :     0.013945
      dxy     :     0.008418

  7 C s       :     3.329150  s :     3.329150
      pz      :     1.057843  p :     3.111400
      px      :     0.970624
      py      :     1.082933
      dz2     :     0.004808  d :     0.025588
      dxz     :     0.006785
      dyz     :     0.003175
      dx2y2   :     0.006859
      dxy     :     0.003961

  8 S s       :     5.911587  s :     5.911587
      pz      :     3.475053  p :    10.122401
      px      :     3.392504
      py      :     3.254843
      dz2     :     0.013844  d :     0.105732
      dxz     :     0.020562
      dyz     :     0.021671
      dx2y2   :     0.021127
      dxy     :     0.028528

  9 C s       :     3.164623  s :     3.164623
      pz      :     0.969308  p :     3.022354
      px      :     1.059082
      py      :     0.993964
      dz2     :     0.006932  d :     0.035994
      dxz     :     0.008173
      dyz     :     0.006449
      dx2y2   :     0.004432
      dxy     :     0.010008

 10 S s       :     5.911261  s :     5.911261
      pz      :     3.354784  p :    10.120872
      px      :     3.358039
      py      :     3.408049
      dz2     :     0.022455  d :     0.108624
      dxz     :     0.019750
      dyz     :     0.018320
      dx2y2   :     0.015601
      dxy     :     0.032497

 11 P s       :     5.131191  s :     5.131191
      pz      :     2.821739  p :     8.448929
      px      :     2.798783
      py      :     2.828407
      dz2     :     0.172073  d :     0.724029
      dxz     :     0.152938
      dyz     :     0.152124
      dx2y2   :     0.120420
      dxy     :     0.126473

 12 S s       :     5.917212  s :     5.917212
      pz      :     3.306097  p :    10.504346
      px      :     3.623655
      py      :     3.574593
      dz2     :     0.018972  d :     0.067922
      dxz     :     0.015379
      dyz     :     0.019824
      dx2y2   :     0.006618
      dxy     :     0.007129

 13 O s       :     3.727767  s :     3.727767
      pz      :     1.636843  p :     4.520219
      px      :     1.708791
      py      :     1.174584
      dz2     :    -0.002186  d :     0.014267
      dxz     :     0.011560
      dyz     :    -0.001863
      dx2y2   :    -0.001694
      dxy     :     0.008449

 14 C s       :     3.286644  s :     3.286644
      pz      :     1.107970  p :     2.806788
      px      :     1.008961
      py      :     0.689857
      dz2     :     0.009445  d :     0.054641
      dxz     :     0.007463
      dyz     :     0.009819
      dx2y2   :     0.016044
      dxy     :     0.011870

 15 C s       :     3.313121  s :     3.313121
      pz      :     1.064406  p :     3.105832
      px      :     0.966352
      py      :     1.075073
      dz2     :     0.005928  d :     0.025815
      dxz     :     0.006586
      dyz     :     0.002648
      dx2y2   :     0.007589
      dxy     :     0.003065

 16 O s       :     3.744296  s :     3.744296
      pz      :     1.628862  p :     4.535846
      px      :     1.394768
      py      :     1.512216
      dz2     :     0.005191  d :     0.022728
      dxz     :     0.005207
      dyz     :     0.008991
      dx2y2   :    -0.000056
      dxy     :     0.003394

 17 C s       :     3.273216  s :     3.273216
      pz      :     1.079781  p :     2.807784
      px      :     0.857519
      py      :     0.870484
      dz2     :     0.006256  d :     0.054575
      dxz     :     0.009676
      dyz     :     0.012636
      dx2y2   :     0.011019
      dxy     :     0.014988

 18 C s       :     3.319955  s :     3.319955
      pz      :     1.090133  p :     3.108997
      px      :     0.955635
      py      :     1.063229
      dz2     :     0.003815  d :     0.025531
      dxz     :     0.004780
      dyz     :     0.006797
      dx2y2   :     0.002742
      dxy     :     0.007398

 19 H s       :     0.814735  s :     0.814735
      pz      :     0.003576  p :     0.018100
      px      :     0.005313
      py      :     0.009210

 20 H s       :     0.816691  s :     0.816691
      pz      :     0.006460  p :     0.018523
      px      :     0.008535
      py      :     0.003529

 21 H s       :     0.836140  s :     0.836140
      pz      :     0.010348  p :     0.018496
      px      :     0.004455
      py      :     0.003693

 22 H s       :     0.826296  s :     0.826296
      pz      :     0.002285  p :     0.017385
      px      :     0.005602
      py      :     0.009498

 23 H s       :     0.828106  s :     0.828106
      pz      :     0.005040  p :     0.017290
      px      :     0.008767
      py      :     0.003484

 24 H s       :     0.823377  s :     0.823377
      pz      :     0.009918  p :     0.017970
      px      :     0.002990
      py      :     0.005063

 25 H s       :     0.832264  s :     0.832264
      pz      :     0.003176  p :     0.017413
      px      :     0.002850
      py      :     0.011387

 26 H s       :     0.798626  s :     0.798626
      pz      :     0.003548  p :     0.018546
      px      :     0.003716
      py      :     0.011281

 27 H s       :     0.834730  s :     0.834730
      pz      :     0.006227  p :     0.018494
      px      :     0.008399
      py      :     0.003868

 28 H s       :     0.831367  s :     0.831367
      pz      :     0.009710  p :     0.018265
      px      :     0.003854
      py      :     0.004701

 29 H s       :     0.770924  s :     0.770924
      pz      :     0.003831  p :     0.019208
      px      :     0.007870
      py      :     0.007507

 30 H s       :     0.773306  s :     0.773306
      pz      :     0.007884  p :     0.019147
      px      :     0.007536
      py      :     0.003727

 31 H s       :     0.831524  s :     0.831524
      pz      :     0.005838  p :     0.017385
      px      :     0.008515
      py      :     0.003032

 32 H s       :     0.806055  s :     0.806055
      pz      :     0.011632  p :     0.018052
      px      :     0.003428
      py      :     0.002993

 33 H s       :     0.828631  s :     0.828631
      pz      :     0.009885  p :     0.018168
      px      :     0.003658
      py      :     0.004624

 34 H s       :     0.835562  s :     0.835562
      pz      :     0.003757  p :     0.018491
      px      :     0.003650
      py      :     0.011083

 35 H s       :     0.813617  s :     0.813617
      pz      :     0.006195  p :     0.018401
      px      :     0.007803
      py      :     0.004403

 36 H s       :     0.827551  s :     0.827551
      pz      :     0.007503  p :     0.017915
      px      :     0.004376
      py      :     0.006036

 37 H s       :     0.832337  s :     0.832337
      pz      :     0.008780  p :     0.017357
      px      :     0.003211
      py      :     0.005366

 38 H s       :     0.799202  s :     0.799202
      pz      :     0.008836  p :     0.018747
      px      :     0.003905
      py      :     0.006006

 39 H s       :     0.836708  s :     0.836708
      pz      :     0.004274  p :     0.018495
      px      :     0.006992
      py      :     0.007229

 40 H s       :     0.830234  s :     0.830234
      pz      :     0.007026  p :     0.018263
      px      :     0.004794
      py      :     0.006443


------------------------
MULLIKEN OVERLAP CHARGES
------------------------
B(  0-C ,  1-C ) :   0.3974 B(  0-C ,  2-O ) :  -0.1301 B(  0-C , 19-H ) :   0.8140 
B(  0-C , 20-H ) :   0.8113 B(  0-C , 21-H ) :   0.7994 B(  0-C , 22-H ) :  -0.1095 
B(  1-C ,  2-O ) :   0.2235 B(  1-C ,  3-P ) :  -0.2136 B(  1-C , 19-H ) :  -0.0611 
B(  1-C , 20-H ) :  -0.0575 B(  1-C , 21-H ) :  -0.0760 B(  1-C , 22-H ) :   0.8623 
B(  1-C , 23-H ) :   0.8038 B(  2-O ,  3-P ) :   0.5895 B(  2-O ,  4-S ) :  -0.0715 
B(  2-O ,  5-O ) :  -0.1996 B(  2-O ,  8-S ) :  -0.1490 B(  2-O , 22-H ) :  -0.0765 
B(  2-O , 23-H ) :  -0.1092 B(  3-P ,  4-S ) :   1.2273 B(  3-P ,  5-O ) :   0.4874 
B(  3-P ,  6-C ) :  -0.1319 B(  3-P ,  8-S ) :   0.7413 B(  3-P ,  9-C ) :  -0.1115 
B(  4-S ,  5-O ) :  -0.0988 B(  4-S ,  8-S ) :  -0.1199 B(  5-O ,  6-C ) :   0.2481 
B(  5-O ,  7-C ) :  -0.0989 B(  5-O ,  8-S ) :  -0.0863 B(  5-O , 24-H ) :  -0.0775 
B(  5-O , 25-H ) :  -0.0965 B(  6-C ,  7-C ) :   0.5524 B(  6-C , 24-H ) :   0.8453 
B(  6-C , 25-H ) :   0.8214 B(  6-C , 26-H ) :  -0.0722 B(  6-C , 27-H ) :  -0.0748 
B(  6-C , 28-H ) :  -0.0751 B(  7-C , 24-H ) :  -0.0671 B(  7-C , 25-H ) :  -0.0644 
B(  7-C , 26-H ) :   0.8339 B(  7-C , 27-H ) :   0.8030 B(  7-C , 28-H ) :   0.8362 
B(  8-S ,  9-C ) :   0.3885 B(  8-S , 10-S ) :  -0.1698 B(  8-S , 29-H ) :  -0.0545 
B(  8-S , 30-H ) :  -0.0704 B(  9-C , 10-S ) :   0.3965 B(  9-C , 11-P ) :  -0.1111 
B(  9-C , 29-H ) :   0.7812 B(  9-C , 30-H ) :   0.7804 B( 10-S , 11-P ) :   0.7771 
B( 10-S , 12-S ) :  -0.1079 B( 10-S , 13-O ) :  -0.1347 B( 10-S , 16-O ) :  -0.1135 
B( 10-S , 29-H ) :  -0.0718 B( 10-S , 30-H ) :  -0.0545 B( 11-P , 12-S ) :   1.1912 
B( 11-P , 13-O ) :   0.6323 B( 11-P , 14-C ) :  -0.1950 B( 11-P , 16-O ) :   0.5288 
B( 11-P , 17-C ) :  -0.1536 B( 12-S , 13-O ) :  -0.0954 B( 12-S , 16-O ) :  -0.0822 
B( 13-O , 14-C ) :   0.2654 B( 13-O , 15-C ) :  -0.1522 B( 13-O , 16-O ) :  -0.2181 
B( 13-O , 31-H ) :  -0.1002 B( 13-O , 32-H ) :  -0.0690 B( 14-C , 15-C ) :   0.4104 
B( 14-C , 31-H ) :   0.8039 B( 14-C , 32-H ) :   0.8717 B( 14-C , 33-H ) :  -0.0652 
B( 14-C , 34-H ) :  -0.0703 B( 14-C , 35-H ) :  -0.0683 B( 15-C , 31-H ) :  -0.0513 
B( 15-C , 32-H ) :  -0.1010 B( 15-C , 33-H ) :   0.8143 B( 15-C , 34-H ) :   0.7989 
B( 15-C , 35-H ) :   0.8207 B( 16-O , 17-C ) :   0.2685 B( 16-O , 18-C ) :  -0.1087 
B( 16-O , 36-H ) :  -0.0778 B( 16-O , 37-H ) :  -0.1004 B( 17-C , 18-C ) :   0.5457 
B( 17-C , 36-H ) :   0.8463 B( 17-C , 37-H ) :   0.8186 B( 17-C , 38-H ) :  -0.0640 
B( 17-C , 39-H ) :  -0.0804 B( 17-C , 40-H ) :  -0.0697 B( 18-C , 36-H ) :  -0.0771 
B( 18-C , 37-H ) :  -0.0631 B( 18-C , 38-H ) :   0.8276 B( 18-C , 39-H ) :   0.8072 
B( 18-C , 40-H ) :   0.8326 B( 22-H , 23-H ) :  -0.0510 B( 24-H , 25-H ) :  -0.0519 
B( 36-H , 37-H ) :  -0.0518 


                     *******************************
                     * LOEWDIN POPULATION ANALYSIS *
                     *******************************

----------------------
LOEWDIN ATOMIC CHARGES
----------------------
   0 C :   -0.401944
   1 C :    0.032043
   2 O :   -0.663020
   3 P :    0.382404
   4 S :   -0.129075
   5 O :   -0.670442
   6 C :    0.022920
   7 C :   -0.401601
   8 S :    0.170882
   9 C :   -0.422011
  10 S :    0.170226
  11 P :    0.380033
  12 S :   -0.135360
  13 O :   -0.662416
  14 C :    0.015875
  15 C :   -0.399257
  16 O :   -0.657776
  17 C :    0.021932
  18 C :   -0.402454
  19 H :    0.166461
  20 H :    0.163821
  21 H :    0.157496
  22 H :    0.173418
  23 H :    0.182775
  24 H :    0.179011
  25 H :    0.177862
  26 H :    0.168251
  27 H :    0.159566
  28 H :    0.156932
  29 H :    0.189918
  30 H :    0.189522
  31 H :    0.178884
  32 H :    0.182241
  33 H :    0.159011
  34 H :    0.158869
  35 H :    0.165244
  36 H :    0.175816
  37 H :    0.178964
  38 H :    0.169180
  39 H :    0.157748
  40 H :    0.158050

-------------------------------
LOEWDIN REDUCED ORBITAL CHARGES
-------------------------------
  0 C s       :     2.974696  s :     2.974696
      pz      :     1.138816  p :     3.366347
      px      :     1.123908
      py      :     1.103623
      dz2     :     0.015326  d :     0.060901
      dxz     :     0.012822
      dyz     :     0.004073
      dx2y2   :     0.011739
      dxy     :     0.016941

  1 C s       :     2.873366  s :     2.873366
      pz      :     0.834722  p :     2.972246
      px      :     1.065413
      py      :     1.072111
      dz2     :     0.031988  d :     0.122344
      dxz     :     0.035340
      dyz     :     0.018294
      dx2y2   :     0.013144
      dxy     :     0.023578

  2 O s       :     3.464699  s :     3.464699
      pz      :     1.361672  p :     4.719906
      px      :     1.627007
      py      :     1.731227
      dz2     :     0.155232  d :     0.478414
      dxz     :     0.142715
      dyz     :     0.096139
      dx2y2   :     0.031782
      dxy     :     0.052545

  3 P s       :     4.650879  s :     4.650879
      pz      :     2.774454  p :     8.386732
      px      :     2.749450
      py      :     2.862827
      dz2     :     0.276657  d :     1.579986
      dxz     :     0.330037
      dyz     :     0.307422
      dx2y2   :     0.293938
      dxy     :     0.371930

  4 S s       :     5.567818  s :     5.567818
      pz      :     3.612526  p :    10.422318
      px      :     3.554168
      py      :     3.255625
      dz2     :     0.021473  d :     0.138939
      dxz     :     0.008628
      dyz     :     0.026724
      dx2y2   :     0.043457
      dxy     :     0.038656

  5 O s       :     3.465588  s :     3.465588
      pz      :     1.620571  p :     4.738209
      px      :     1.461467
      py      :     1.656171
      dz2     :     0.085603  d :     0.466645
      dxz     :     0.109408
      dyz     :     0.059579
      dx2y2   :     0.106241
      dxy     :     0.105814

  6 C s       :     2.876275  s :     2.876275
      pz      :     0.980635  p :     2.979103
      px      :     0.899643
      py      :     1.098825
      dz2     :     0.025013  d :     0.121702
      dxz     :     0.033526
      dyz     :     0.013730
      dx2y2   :     0.031546
      dxy     :     0.017886

  7 C s       :     2.976803  s :     2.976803
      pz      :     1.140132  p :     3.364380
      px      :     1.071788
      py      :     1.152461
      dz2     :     0.011774  d :     0.060417
      dxz     :     0.016667
      dyz     :     0.007607
      dx2y2   :     0.016021
      dxy     :     0.008348

  8 S s       :     5.438305  s :     5.438305
      pz      :     3.436297  p :    10.089133
      px      :     3.351088
      py      :     3.301748
      dz2     :     0.037345  d :     0.301680
      dxz     :     0.065555
      dyz     :     0.055957
      dx2y2   :     0.057973
      dxy     :     0.084850

  9 C s       :     3.010943  s :     3.010943
      pz      :     1.088521  p :     3.327344
      px      :     1.132498
      py      :     1.106326
      dz2     :     0.015830  d :     0.083724
      dxz     :     0.019041
      dyz     :     0.014999
      dx2y2   :     0.009583
      dxy     :     0.024271

 10 S s       :     5.439001  s :     5.439001
      pz      :     3.363315  p :    10.088823
      px      :     3.324147
      py      :     3.401362
      dz2     :     0.064590  d :     0.301950
      dxz     :     0.065405
      dyz     :     0.049704
      dx2y2   :     0.034040
      dxy     :     0.088211

 11 P s       :     4.651298  s :     4.651298
      pz      :     2.833761  p :     8.389241
      px      :     2.753414
      py      :     2.802065
      dz2     :     0.332753  d :     1.579428
      dxz     :     0.344417
      dyz     :     0.346179
      dx2y2   :     0.220678
      dxy     :     0.335401

 12 S s       :     5.566416  s :     5.566416
      pz      :     3.326704  p :    10.427987
      px      :     3.566292
      py      :     3.534991
      dz2     :     0.039399  d :     0.140957
      dxz     :     0.031472
      dyz     :     0.044320
      dx2y2   :     0.010763
      dxy     :     0.015003

 13 O s       :     3.461828  s :     3.461828
      pz      :     1.661642  p :     4.718398
      px      :     1.678576
      py      :     1.378181
      dz2     :     0.070922  d :     0.482189
      dxz     :     0.057969
      dyz     :     0.126314
      dx2y2   :     0.109444
      dxy     :     0.117540

 14 C s       :     2.875803  s :     2.875803
      pz      :     1.113218  p :     2.985990
      px      :     1.072341
      py      :     0.800431
      dz2     :     0.021145  d :     0.122332
      dxz     :     0.015935
      dyz     :     0.022828
      dx2y2   :     0.035860
      dxy     :     0.026564

 15 C s       :     2.975037  s :     2.975037
      pz      :     1.145500  p :     3.363208
      px      :     1.084172
      py      :     1.133537
      dz2     :     0.014296  d :     0.061011
      dxz     :     0.015204
      dyz     :     0.006340
      dx2y2   :     0.018689
      dxy     :     0.006483

 16 O s       :     3.467457  s :     3.467457
      pz      :     1.652596  p :     4.729537
      px      :     1.512067
      py      :     1.564874
      dz2     :     0.064807  d :     0.460782
      dxz     :     0.096163
      dyz     :     0.091312
      dx2y2   :     0.097820
      dxy     :     0.110680

 17 C s       :     2.875038  s :     2.875038
      pz      :     1.085183  p :     2.980727
      px      :     0.957062
      py      :     0.938481
      dz2     :     0.012959  d :     0.122303
      dxz     :     0.021267
      dyz     :     0.031763
      dx2y2   :     0.022926
      dxy     :     0.033388

 18 C s       :     2.976496  s :     2.976496
      pz      :     1.152708  p :     3.365565
      px      :     1.069383
      py      :     1.143473
      dz2     :     0.008691  d :     0.060393
      dxz     :     0.010577
      dyz     :     0.017063
      dx2y2   :     0.005584
      dxy     :     0.018478

 19 H s       :     0.789903  s :     0.789903
      pz      :     0.007804  p :     0.043637
      px      :     0.012974
      py      :     0.022859

 20 H s       :     0.791649  s :     0.791649
      pz      :     0.015444  p :     0.044530
      px      :     0.021212
      py      :     0.007874

 21 H s       :     0.798420  s :     0.798420
      pz      :     0.025640  p :     0.044084
      px      :     0.010110
      py      :     0.008334

 22 H s       :     0.785430  s :     0.785430
      pz      :     0.005106  p :     0.041152
      px      :     0.013073
      py      :     0.022973

 23 H s       :     0.777366  s :     0.777366
      pz      :     0.010419  p :     0.039859
      px      :     0.021708
      py      :     0.007732

 24 H s       :     0.778833  s :     0.778833
      pz      :     0.022829  p :     0.042155
      px      :     0.007462
      py      :     0.011865

 25 H s       :     0.782178  s :     0.782178
      pz      :     0.006734  p :     0.039960
      px      :     0.005987
      py      :     0.027239

 26 H s       :     0.786476  s :     0.786476
      pz      :     0.007952  p :     0.045273
      px      :     0.008342
      py      :     0.028979

 27 H s       :     0.796356  s :     0.796356
      pz      :     0.015013  p :     0.044078
      px      :     0.020251
      py      :     0.008814

 28 H s       :     0.799555  s :     0.799555
      pz      :     0.023941  p :     0.043513
      px      :     0.008290
      py      :     0.011283

 29 H s       :     0.761731  s :     0.761731
      pz      :     0.009154  p :     0.048352
      px      :     0.019621
      py      :     0.019576

 30 H s       :     0.762388  s :     0.762388
      pz      :     0.020473  p :     0.048090
      px      :     0.018696
      py      :     0.008920

 31 H s       :     0.781246  s :     0.781246
      pz      :     0.013892  p :     0.039870
      px      :     0.020151
      py      :     0.005827

 32 H s       :     0.774761  s :     0.774761
      pz      :     0.028434  p :     0.042998
      px      :     0.007976
      py      :     0.006589

 33 H s       :     0.797481  s :     0.797481
      pz      :     0.024725  p :     0.043508
      px      :     0.008163
      py      :     0.010620

 34 H s       :     0.797131  s :     0.797131
      pz      :     0.008241  p :     0.044000
      px      :     0.008272
      py      :     0.027487

 35 H s       :     0.790387  s :     0.790387
      pz      :     0.015048  p :     0.044369
      px      :     0.019225
      py      :     0.010096

 36 H s       :     0.782114  s :     0.782114
      pz      :     0.017633  p :     0.042070
      px      :     0.011081
      py      :     0.013356

 37 H s       :     0.781181  s :     0.781181
      pz      :     0.021700  p :     0.039854
      px      :     0.006924
      py      :     0.011231

 38 H s       :     0.785077  s :     0.785077
      pz      :     0.022364  p :     0.045742
      px      :     0.008878
      py      :     0.014500

 39 H s       :     0.798151  s :     0.798151
      pz      :     0.009690  p :     0.044101
      px      :     0.016550
      py      :     0.017860

 40 H s       :     0.798412  s :     0.798412
      pz      :     0.017427  p :     0.043537
      px      :     0.010732
      py      :     0.015378


---------------------------------
LOEWDIN BOND ORDERS (THRESH 0.050000)
---------------------------------
B(  0-C ,  1-C ) :   1.0985 B(  0-C ,  2-O ) :   0.1510 B(  0-C , 19-H ) :   0.9195 
B(  0-C , 20-H ) :   0.9132 B(  0-C , 21-H ) :   0.9156 B(  1-C ,  2-O ) :   1.2824 
B(  1-C ,  3-P ) :   0.0896 B(  1-C , 21-H ) :   0.0514 B(  1-C , 22-H ) :   0.8336 
B(  1-C , 23-H ) :   0.8275 B(  2-O ,  3-P ) :   1.5671 B(  2-O ,  4-S ) :   0.1710 
B(  2-O ,  5-O ) :   0.2251 B(  2-O ,  8-S ) :   0.1557 B(  2-O , 22-H ) :   0.0964 
B(  2-O , 23-H ) :   0.1005 B(  3-P ,  4-S ) :   2.0165 B(  3-P ,  5-O ) :   1.5577 
B(  3-P ,  6-C ) :   0.0980 B(  3-P ,  8-S ) :   1.2212 B(  3-P ,  9-C ) :   0.0897 
B(  4-S ,  5-O ) :   0.1798 B(  4-S ,  8-S ) :   0.1640 B(  4-S ,  9-C ) :   0.0543 
B(  5-O ,  6-C ) :   1.2880 B(  5-O ,  7-C ) :   0.1619 B(  5-O ,  8-S ) :   0.1433 
B(  5-O , 24-H ) :   0.0950 B(  5-O , 25-H ) :   0.0978 B(  6-C ,  7-C ) :   1.0932 
B(  6-C , 24-H ) :   0.8295 B(  6-C , 25-H ) :   0.8327 B(  6-C , 27-H ) :   0.0510 
B(  7-C , 26-H ) :   0.9165 B(  7-C , 27-H ) :   0.9167 B(  7-C , 28-H ) :   0.9237 
B(  8-S ,  9-C ) :   1.2947 B(  8-S , 10-S ) :   0.2109 B(  8-S , 29-H ) :   0.0612 
B(  8-S , 30-H ) :   0.0564 B(  9-C , 10-S ) :   1.2938 B(  9-C , 11-P ) :   0.0904 
B(  9-C , 12-S ) :   0.0508 B(  9-C , 29-H ) :   0.8407 B(  9-C , 30-H ) :   0.8419 
B( 10-S , 11-P ) :   1.2290 B( 10-S , 12-S ) :   0.1522 B( 10-S , 13-O ) :   0.1479 
B( 10-S , 16-O ) :   0.1548 B( 10-S , 29-H ) :   0.0559 B( 10-S , 30-H ) :   0.0607 
B( 11-P , 12-S ) :   2.0050 B( 11-P , 13-O ) :   1.5674 B( 11-P , 14-C ) :   0.0983 
B( 11-P , 16-O ) :   1.5653 B( 11-P , 17-C ) :   0.0954 B( 12-S , 13-O ) :   0.1875 
B( 12-S , 14-C ) :   0.0525 B( 12-S , 16-O ) :   0.1721 B( 13-O , 14-C ) :   1.2869 
B( 13-O , 15-C ) :   0.1572 B( 13-O , 16-O ) :   0.2261 B( 13-O , 31-H ) :   0.0988 
B( 13-O , 32-H ) :   0.0958 B( 14-C , 15-C ) :   1.0940 B( 14-C , 31-H ) :   0.8294 
B( 14-C , 32-H ) :   0.8249 B( 14-C , 34-H ) :   0.0506 B( 15-C , 33-H ) :   0.9229 
B( 15-C , 34-H ) :   0.9172 B( 15-C , 35-H ) :   0.9144 B( 16-O , 17-C ) :   1.2925 
B( 16-O , 18-C ) :   0.1588 B( 16-O , 36-H ) :   0.0960 B( 16-O , 37-H ) :   0.0992 
B( 17-C , 18-C ) :   1.0942 B( 17-C , 36-H ) :   0.8289 B( 17-C , 37-H ) :   0.8315 
B( 17-C , 39-H ) :   0.0511 B( 18-C , 38-H ) :   0.9147 B( 18-C , 39-H ) :   0.9172 
B( 18-C , 40-H ) :   0.9234 

------------------------------------------
LOEWDIN REDUCED ORBITAL POPULATIONS PER MO
-------------------------------------------
THRESHOLD FOR PRINTING IS 0.1%%
                      0         1         2         3         4         5   
                 -88.57105 -88.57033 -88.51776 -88.51710 -76.91381 -76.91065
                   2.00000   2.00000   2.00000   2.00000   2.00000   2.00000
                  --------  --------  --------  --------  --------  --------
 3 P  s               0.0       0.0       0.0       0.0     100.0       0.0
 4 S  s               0.0       0.0       0.0     100.0       0.0       0.0
 8 S  s             100.0       0.0       0.0       0.0       0.0       0.0
10 S  s               0.0     100.0       0.0       0.0       0.0       0.0
11 P  s               0.0       0.0       0.0       0.0       0.0     100.0
12 S  s               0.0       0.0     100.0       0.0       0.0       0.0

                      6         7         8         9        10        11   
                 -18.99592 -18.99019 -18.98534 -18.98409 -10.10299 -10.10100
                   2.00000   2.00000   2.00000   2.00000   2.00000   2.00000
                  --------  --------  --------  --------  --------  --------
 1 C  s               0.0       0.0       0.0       0.0       0.0      99.4
 2 O  s               0.0       0.0      99.9       0.0       0.0       0.0
 2 O  dz2             0.0       0.0       0.0       0.0       0.0       0.2
 5 O  s              99.9       0.0       0.0       0.0       0.0       0.0
 5 O  dxz             0.0       0.0       0.0       0.0       0.2       0.0
 6 C  s               0.0       0.0       0.0       0.0      99.4       0.0
13 O  s               0.0       0.0       0.0      99.9       0.0       0.0
16 O  s               0.0      99.9       0.0       0.0       0.0       0.0

                     12        13        14        15        16        17   
                 -10.10056 -10.09925 -10.09297 -10.02968 -10.02791 -10.02530
                   2.00000   2.00000   2.00000   2.00000   2.00000   2.00000
                  --------  --------  --------  --------  --------  --------
 0 C  s               0.0       0.0       0.0       0.0      99.7       0.0
 7 C  s               0.0       0.0       0.0      99.7       0.0       0.0
 9 C  s              99.6       0.0       0.0       0.0       0.0       0.0
13 O  py              0.0       0.0       0.1       0.0       0.0       0.0
13 O  dx2y2           0.0       0.0       0.2       0.0       0.0       0.0
14 C  s               0.0       0.0      99.4       0.0       0.0       0.0
15 C  s               0.0       0.0       0.0       0.0       0.0      99.7
[...]
34 H  py              0.0       0.0       0.0       0.2       0.0       0.0
36 H  s               0.0       0.0       0.4       0.1       0.0       0.0
36 H  pz              0.0       0.0       0.3       0.0       0.0       0.0
36 H  px              0.0       0.0       0.6       0.1       0.0       0.0
37 H  s               0.0       0.0       0.4       0.0       0.0       0.0
37 H  pz              0.0       0.0       1.2       0.1       0.0       0.0
39 H  px              0.0       0.0       0.1       0.0       0.0       0.0

                    522       523       524       525       526       527   
                  18.88340  18.91455  19.06133  19.17720  21.94156  21.94950
                   0.00000   0.00000   0.00000   0.00000   0.00000   0.00000
                  --------  --------  --------  --------  --------  --------
 0 C  s               0.0       0.0       0.0       0.0      29.7       0.0
 1 C  s               0.0       0.0       0.0       0.0       2.1       0.0
 3 P  py              0.0       0.2       0.1       0.0       0.0       0.0
 4 S  s              12.4      77.2       6.2       3.0       0.0       0.0
 4 S  py              0.0       0.1       0.0       0.0       0.0       0.0
 7 C  s               0.0       0.0       0.0       0.0      66.3       0.2
 8 S  s               8.8       0.9      36.6      52.8       0.0       0.0
 9 C  s               0.0       0.0       0.0       0.9       1.2       1.1
10 S  s               1.7       7.6      52.1      37.6       0.0       0.0
11 P  s               0.2       0.0       0.0       0.1       0.0       0.0
11 P  pz              0.1       0.0       0.0       0.0       0.0       0.0
12 S  s              76.1      13.3       4.4       5.0       0.0       0.0
14 C  s               0.1       0.0       0.0       0.0       0.0       0.4
15 C  s               0.0       0.0       0.0       0.0       0.2      26.9
17 C  s               0.0       0.0       0.0       0.0       0.0       0.4
18 C  s               0.0       0.0       0.0       0.0       0.1      70.6

                    528       529       530       531       532       533   
                  21.98065  21.99132  22.05138  22.05162  22.05746  22.07566
                   0.00000   0.00000   0.00000   0.00000   0.00000   0.00000
                  --------  --------  --------  --------  --------  --------
 0 C  s               0.2      58.7       5.9       0.6       3.6       0.9
 1 C  s               1.0       1.6      15.8      48.3       0.1      24.7
 6 C  s               0.0       7.7       6.8       4.7      79.5       0.7
 7 C  s               0.6      29.8       0.0       1.0       1.5       0.2
 9 C  s               0.1       0.3      19.2       7.5       0.2      18.2
14 C  s               0.2       0.1       3.3       4.0       0.6      52.7
15 C  s              70.3       0.8       0.1       0.4       0.0       0.4
17 C  s               0.7       0.5      48.5      31.4      13.9       1.2
18 C  s              26.7       0.0       0.0       1.6       0.1       0.5

                    534       535       536       537       538   
                  22.09560  43.81610  43.82865  43.89267  43.92191
                   0.00000   0.00000   0.00000   0.00000   0.00000
                  --------  --------  --------  --------  --------
 0 C  s               0.1       0.0       0.0       0.0       0.0
 1 C  s               5.9       0.0       0.0       0.0       0.0
 2 O  s               0.0       2.3       3.8      77.5      16.2
 5 O  s               0.0      77.3      18.4       0.1       4.1
 9 C  s              51.5       0.0       0.0       0.0       0.0
10 S  s               0.1       0.0       0.0       0.0       0.0
13 O  s               0.0       5.6       0.1      19.7      74.5
14 C  s              38.4       0.0       0.0       0.0       0.0
15 C  s               0.5       0.0       0.0       0.0       0.0
16 O  s               0.0      14.7      77.6       2.5       5.1
17 C  s               2.8       0.0       0.0       0.0       0.0


                      *****************************
                      * MAYER POPULATION ANALYSIS *
                      *****************************

  NA   - Mulliken gross atomic population
  ZA   - Total nuclear charge
  QA   - Mulliken gross atomic charge
  VA   - Mayer's total valence
  BVA  - Mayer's bonded valence
  FA   - Mayer's free valence

  ATOM       NA         ZA         QA         VA         BVA        FA
  0 C      6.4375     6.0000    -0.4375     3.7958     3.7958    -0.0000
  1 C      6.1546     6.0000    -0.1546     3.6766     3.6766    -0.0000
  2 O      8.2443     8.0000    -0.2443     1.8490     1.8490     0.0000
  3 P     14.3294    15.0000     0.6706     5.1489     5.1489     0.0000
  4 S     16.4603    16.0000    -0.4603     2.0467     2.0467    -0.0000
  5 O      8.3160     8.0000    -0.3160     1.7897     1.7897     0.0000
  6 C      6.1187     6.0000    -0.1187     3.6949     3.6949     0.0000
  7 C      6.4661     6.0000    -0.4661     3.8260     3.8260     0.0000
  8 S     16.1397    16.0000    -0.1397     2.1894     2.1894    -0.0000
  9 C      6.2230     6.0000    -0.2230     3.6973     3.6973    -0.0000
 10 S     16.1408    16.0000    -0.1408     2.2048     2.2048    -0.0000
 11 P     14.3041    15.0000     0.6959     5.1568     5.1568     0.0000
 12 S     16.4895    16.0000    -0.4895     2.0222     2.0222    -0.0000
 13 O      8.2623     8.0000    -0.2623     1.8597     1.8597    -0.0000
 14 C      6.1481     6.0000    -0.1481     3.6498     3.6498    -0.0000
 15 C      6.4448     6.0000    -0.4448     3.7870     3.7870    -0.0000
 16 O      8.3029     8.0000    -0.3029     1.8136     1.8136     0.0000
 17 C      6.1356     6.0000    -0.1356     3.7032     3.7032    -0.0000
 18 C      6.4545     6.0000    -0.4545     3.8177     3.8177     0.0000
 19 H      0.8328     1.0000     0.1672     0.9589     0.9589     0.0000
 20 H      0.8352     1.0000     0.1648     0.9616     0.9616     0.0000
 21 H      0.8546     1.0000     0.1454     0.9627     0.9627    -0.0000
 22 H      0.8437     1.0000     0.1563     0.9523     0.9523     0.0000
 23 H      0.8454     1.0000     0.1546     0.9497     0.9497    -0.0000
 24 H      0.8413     1.0000     0.1587     0.9579     0.9579     0.0000
 25 H      0.8497     1.0000     0.1503     0.9513     0.9513     0.0000
 26 H      0.8172     1.0000     0.1828     0.9562     0.9562     0.0000
 27 H      0.8532     1.0000     0.1468     0.9645     0.9645     0.0000
 28 H      0.8496     1.0000     0.1504     0.9619     0.9619     0.0000
 29 H      0.7901     1.0000     0.2099     0.9487     0.9487    -0.0000
 30 H      0.7925     1.0000     0.2075     0.9505     0.9505    -0.0000
 31 H      0.8489     1.0000     0.1511     0.9514     0.9514    -0.0000
 32 H      0.8241     1.0000     0.1759     0.9562     0.9562    -0.0000
 33 H      0.8468     1.0000     0.1532     0.9617     0.9617     0.0000
 34 H      0.8541     1.0000     0.1459     0.9644     0.9644    -0.0000
 35 H      0.8320     1.0000     0.1680     0.9613     0.9613     0.0000
 36 H      0.8455     1.0000     0.1545     0.9588     0.9588     0.0000
 37 H      0.8497     1.0000     0.1503     0.9513     0.9513    -0.0000
 38 H      0.8179     1.0000     0.1821     0.9563     0.9563     0.0000
 39 H      0.8552     1.0000     0.1448     0.9642     0.9642     0.0000
 40 H      0.8485     1.0000     0.1515     0.9628     0.9628     0.0000

  Mayer bond orders larger than 0.100000
B(  0-C ,  1-C ) :   0.9334 B(  0-C , 19-H ) :   0.9674 B(  0-C , 20-H ) :   0.9545 
B(  0-C , 21-H ) :   0.9632 B(  1-C ,  2-O ) :   0.7795 B(  1-C , 22-H ) :   0.9699 
B(  1-C , 23-H ) :   0.9606 B(  2-O ,  3-P ) :   1.1463 B(  3-P ,  4-S ) :   1.7657 
B(  3-P ,  5-O ) :   1.0440 B(  3-P ,  8-S ) :   1.0783 B(  5-O ,  6-C ) :   0.7710 
B(  6-C ,  7-C ) :   0.9477 B(  6-C , 24-H ) :   0.9627 B(  6-C , 25-H ) :   0.9634 
B(  7-C , 26-H ) :   0.9601 B(  7-C , 27-H ) :   0.9634 B(  7-C , 28-H ) :   0.9750 
B(  8-S ,  9-C ) :   0.9003 B(  9-C , 10-S ) :   0.9077 B(  9-C , 29-H ) :   0.9074 
B(  9-C , 30-H ) :   0.9073 B( 10-S , 11-P ) :   1.0878 B( 11-P , 12-S ) :   1.7289 
B( 11-P , 13-O ) :   1.1640 B( 11-P , 16-O ) :   1.0758 B( 13-O , 14-C ) :   0.7790 
B( 14-C , 15-C ) :   0.9270 B( 14-C , 31-H ) :   0.9630 B( 14-C , 32-H ) :   0.9619 
B( 15-C , 33-H ) :   0.9731 B( 15-C , 34-H ) :   0.9648 B( 15-C , 35-H ) :   0.9601 
B( 16-O , 17-C ) :   0.7823 B( 17-C , 18-C ) :   0.9537 B( 17-C , 36-H ) :   0.9633 
B( 17-C , 37-H ) :   0.9635 B( 18-C , 38-H ) :   0.9563 B( 18-C , 39-H ) :   0.9649 
B( 18-C , 40-H ) :   0.9745 

-------
TIMINGS
-------

Total SCF time: 0 days 0 hours 1 min 15 sec 

Total time                  ....      75.084 sec
Sum of individual times     ....      74.498 sec  ( 99.2%)

SCF preparation             ....       0.364 sec  (  0.5%)
Fock matrix formation       ....      70.546 sec  ( 94.0%)
  Startup                   ....       0.137 sec  (  0.2% of F)
  Split-RI-J                ....      23.779 sec  ( 33.7% of F)
  XC integration            ....      45.114 sec  ( 63.9% of F)
    XC Preparation          ....       0.000 sec  (  0.0% of XC)
    Basis function eval.    ....       7.071 sec  ( 15.7% of XC)
    Density eval.           ....      16.645 sec  ( 36.9% of XC)
    XC-Functional eval.     ....       3.196 sec  (  7.1% of XC)
    XC-Potential eval.      ....      16.863 sec  ( 37.4% of XC)
Diagonalization             ....       0.000 sec  (  0.0%)
Density matrix formation    ....       0.879 sec  (  1.2%)
Total Energy calculation    ....       0.051 sec  (  0.1%)
Population analysis         ....       0.473 sec  (  0.6%)
Orbital Transformation      ....       0.250 sec  (  0.3%)
Orbital Orthonormalization  ....       0.000 sec  (  0.0%)
DIIS solution               ....       1.717 sec  (  2.3%)
  MO trafo                  ....       0.000 sec  (  0.0 % of DIIS)
  Orb grad                  ....       0.000 sec  (  0.0 % of DIIS)
  Energy W gradient         ....       0.000 sec  (  0.0 % of DIIS)
  DIIS error                ....       0.116 sec  (  6.8 % of DIIS)
  DIIS work                 ....       1.433 sec  ( 83.5 % of DIIS)
  Form Q                    ....       0.000 sec  (  0.0 % of DIIS)
  Form QpQm                 ....       0.000 sec  (  0.0 % of DIIS)
  Exp/Cayley                ....       0.000 sec  (  0.0 % of DIIS)
  Orb update                ....       0.000 sec  (  0.0 % of DIIS)
  Wake-sleep                ....       0.032 sec  (  1.8 % of DIIS)
SOSCF solution              ....       0.217 sec  (  0.3%)
  MO trafo                  ....       0.168 sec  ( 77.3 % of SOSCF)
  Orb grad                  ....       0.003 sec  (  1.6 % of SOSCF)
  Rot update                ....       0.000 sec  (  0.1 % of SOSCF)
  Step                      ....       0.045 sec  ( 20.9 % of SOSCF)
Finished LeanSCF after  75.3 sec

Maximum memory used throughout the entire LEANSCF-calculation: 72.7 MB


-------------------------------------------------------------------------------
                          DFT DISPERSION CORRECTION                            
                                                                               
                                DFTD4 V3.4.0                                   
-------------------------------------------------------------------------------
The R2SCAN3C composite method is recognized
Using three-body term ABC
Active option DFTDOPT                   ...         5   

-------------------------   ----------------
Dispersion correction           -0.021518075
-------------------------   ----------------

------------------   -----------------
gCP correction             0.046271416
------------------   -----------------

-------------------------   --------------------
FINAL SINGLE POINT ENERGY     -2932.459395187151
-------------------------   --------------------


------------------------------------------------------------------------------
                              ORCA PROPERTY CALCULATIONS
------------------------------------------------------------------------------

GBWName                                 ... sp_gas.gbw
Number of atoms                         ...     41
Number of basis functions               ...    539
Max core memory                         ...   1024 MB

Electric properties:
Dipole moment                           ... YES
Quadrupole moment                       ...  NO
Static polarizability (Dipole/Dipole)   ...  NO
Static polarizability (Dipole/Quad.)    ...  NO
Static polarizability (Quad./Quad.)     ...  NO
Static polarizability (Velocity)        ...  NO

Atomic electric properties:
Dipole moment                           ...  NO
Quadrupole moment                       ...  NO
Static polarizability                   ...  NO

Choice of electric origin               ... Center of mass
Position of electric origin             ...     0.000001     0.000000     0.000001

General magnetic properties:
Magnetizability                         ...  NO

EPR properties:
g-Tensor (aka g-matrix)                 ...  NO
Zero-Field splitting spin-orbit         ...  NO
Zero-field splitting spin-spin          ...  NO
Hyperfine couplings                     ...  NO (   0 nuclei)
Quadrupole couplings                    ...  NO (   0 nuclei)
Contact density                         ...  NO (   0 nuclei)

NMR properties:
Chemical shifts                         ...  NO (   0 nuclei)
Spin-rotation constants                 ...  NO (   0 nuclei)
Spin-spin couplings                     ...  NO (   0 nuclei,    0 pairs)

Choice of magnetic origin               ... GIAO
Position of magnetic origin             ...     0.000000     0.000000     0.000000

Properties with geometric perturbations:
SCF Hessian                             ...  NO
IR spectrum                             ...  NO
VCD spectrum                            ...  NO
X-ray spectroscopy properties:
SCF XES/XAS/RIXS spectra                ...  NO


-------------
DIPOLE MOMENT
-------------

Method             : SCF
Type of density    : Electron Density
Multiplicity       :   1
Irrep              :   0
Energy             : -2932.4841485275351260 Eh
Relativity type    : 
Basis              : AO
                                X                 Y                 Z
Electronic contribution:     -0.708875148      -5.905705406     -12.672504310
Nuclear contribution   :      1.013555289       6.588607931      13.792281719
                        -----------------------------------------
Total Dipole Moment    :      0.304680141       0.682902525       1.119777409
                        -----------------------------------------
Magnitude (a.u.)       :      1.346509299
Magnitude (Debye)      :      3.422554643



--------------------
Rotational spectrum 
--------------------
 
Rotational constants in cm-1:             0.014269             0.004629             0.004539 
Rotational constants in MHz :           427.764660           138.779082           136.061038 

Dipole components along the rotational axes: 
x,y,z [a.u.] :    -0.343301    -1.255891    -0.343466 
x,y,z [Debye]:    -0.872603    -3.192221    -0.873022 

 

Dipole moment calculation done in   0.0 sec 

Maximum memory used throughout the entire PROP-calculation: 51.3 MB

--------------------------------
SUGGESTED CITATIONS FOR THIS RUN
--------------------------------

Below you find a list of papers that are relevant to this ORCA run
We neither can nor want to force you to cite these papers, but we appreciate if you do
You receive ORCA, which is the product of decades of hard work by many enthusiastic individuals, for free
The only thing we kindly ask in return is that you cite our papers,
We deeply appreciate it, if you show your appreciation for ORCA by not just citing the generic ORCA reference.

Please note that relegating all ORCA citations to the supporting information does *not* help us.
SI sections are not indexed - citations you put there will not count into any citation statistics
But we need these citations in order to attract the funding resources that allow us to do what we are doing

Therefore, if you are a happy ORCA user, please consider citing a few of the papers listed below in the main body of your paper

In addition to the list printed below, the program has created the file sp_gas.bibtex that contains the list in bibtex format
You can import this file easily into all common literature databanks and citation aid programs


List of essential papers. We consider these as the minimum necessary citations

  1. Neese,F.
     Software update: the ORCA program system, version 5.0
     WIRES Comput. Molec. Sci., 2022 12(1)e1606
     doi.org/10.1002/wcms.1606
  2. Grimme,S.; Hansen,A.; Ehlert,S.; Mewes,J.
     r2SCAN-3c: A 'Swiss army knife' composite electronic-structure method
     J. Chem. Phys., 2021 154 064103
     doi.org/10.1063/5.0040021

List of papers to cite with high priority. The work reported in these papers was absolutely
necessary for this run to complete.
Our perspective: the developers of density functionals and basis sets usually get cited in chemistry papers
Good! But without the algorithms to do something with them, the functionals or basis sets would not do anything.
Hence, in our opinion, the algorithm design and method developments papers are equally worthy of getting cited

  1. Neese,F.
     An improvement of the resolution of the identity approximation for the formation of the Coulomb matrix
     J. Comp. Chem., 2003 24(14)1740-1747
     doi.org/10.1002/jcc.10318
  2. Neese,F.
     The SHARK Integral Generation and Digestion System
     J. Comp. Chem., 2022  1-16
     doi.org/10.1002/jcc.26942
  3. Lehtola,S.; Steigemann,C.; Oliveira,M.; Marques,M.
     Recent developments in Libxc - A comprehensive library of functionals for density functional theory
     Software X, 2018 7 
     doi.org/10.1016/j.softx.2017.11.002
  4. Caldeweyher,E.; Bannwarth,C.; Grimme,S.
     Extension of the D3 dispersion coefficient model
     J. Chem. Phys., 2017 147 034112-XXXX
     doi.org/10.1063/1.4993215
  5. Caldeweyher,E.; Ehlert,S.; Hansen,A.; Neugebauer,H.; Spicher,S.; Bannwarth,C.; Grimme,S.
     A generally applicable atomic-charge dependent London dispersion correction
     J. Chem. Phys., 2019 150 154122-XXXX
     doi.org/10.1063/1.5090222
  6. Caldeweyher,E.; Mewes,J.; Ehlert,S.; Grimme,S.
     Extension and evaluation of the D4 London-dispersion model for periodic systems
     Phys. Chem. Chem. Phys., 2020 22(16)8499-8512
     doi.org/10.1039/D0CP00502A

List of suggested additional citations. These are papers that are important in the 'surrounding' of 
of this run, or papers that preceded the highly important papers. If you like your results we are grateful for a citation.

  1. Neese,F.
     The ORCA program system
     WIRES Comput. Molec. Sci., 2012 2(1)73-78
     doi.org/10.1002/wcms.81
  2. Neese,F.
     Software update: the ORCA program system, version 4.0
     WIRES Comput. Molec. Sci., 2018 8(1)1-6
     doi.org/10.1002/wcms.1327
  3. Neese,F.; Wennmohs,F.; Becker,U.; Riplinger,C.
     The ORCA quantum chemistry program package
     J. Chem. Phys., 2020 152 Art. No. L224108
     doi.org/10.1063/5.0004608

List of optional additional citations

  1. Neese,F.
     Approximate second-order SCF convergence for spin unrestricted wavefunctions
     Chem. Phys. Lett., 2000 325(1-3)93-98
     doi.org/10.1016/s0009-2614(00)00662-x

Timings for individual modules:

Sum of individual times          ...       79.054 sec (=   1.318 min)
Startup calculation              ...        3.030 sec (=   0.051 min)   3.8 %
SCF iterations                   ...       75.879 sec (=   1.265 min)  96.0 %
Property calculations            ...        0.145 sec (=   0.002 min)   0.2 %
                             ****ORCA TERMINATED NORMALLY****
TOTAL RUN TIME: 0 days 0 hours 1 minutes 19 seconds 693 msec
