 Entering Gaussian System
 *********************************************
 Gaussian 98:
 frequency output generated by the xtb code
 *********************************************
                         Standard orientation:
 --------------------------------------------------------------------
  Center     Atomic     Atomic              Coordinates (Angstroms)
  Number     Number      Type              X           Y           Z
 --------------------------------------------------------------------
    1          6             0        0.530510   -2.480538    2.147977
    2          6             0        1.610194   -1.436257    2.349402
    3          8             0        1.398282   -0.323243    1.448350
    4         15             0        2.292341   -0.074762    0.170010
    5         16             0        3.011990   -1.650973   -0.752582
    6          8             0        3.405475    0.891369    0.769185
    7          6             0        4.558626    1.309335    0.009313
    8          6             0        5.626258    1.762452    0.985433
    9         16             0        1.063490    1.225628   -0.947354
   10          6             0        0.302425   -0.021369   -2.026065
   11         16             0       -0.719409   -1.222510   -1.133439
   12         15             0       -2.145541    0.142989   -0.375908
   13         16             0       -2.657030    1.619942   -1.564328
   14          8             0       -1.509176    0.532724    1.017104
   15          6             0       -1.710549    1.819746    1.632797
   16          6             0       -3.072583    1.907472    2.288620
   17          8             0       -3.334546   -0.802557    0.084882
   18          6             0       -4.262808   -1.374906   -0.860942
   19          6             0       -5.403599   -1.991526   -0.076367
   20          1             0       -0.451283   -2.020949    2.232389
   21          1             0        0.620223   -2.928327    1.160180
   22          1             0        0.635039   -3.254515    2.901608
   23          1             0        2.602981   -1.860332    2.173680
   24          1             0        1.567926   -1.001785    3.349439
   25          1             0        4.902248    0.464456   -0.597013
   26          1             0        4.251500    2.124255   -0.651283
   27          1             0        6.487356    2.118210    0.429035
   28          1             0        5.242820    2.566135    1.607376
   29          1             0        5.928361    0.936576    1.623189
   30          1             0        1.079798   -0.595660   -2.528940
   31          1             0       -0.311730    0.529964   -2.737425
   32          1             0       -0.899432    1.895470    2.358546
   33          1             0       -1.594574    2.596328    0.869085
   34          1             0       -3.205071    1.090427    2.992575
   35          1             0       -3.159153    2.854712    2.811859
   36          1             0       -3.851060    1.848447    1.529061
   37          1             0       -4.614018   -0.580104   -1.527292
   38          1             0       -3.733686   -2.127535   -1.452195
   39          1             0       -5.917410   -1.229367    0.502264
   40          1             0       -6.104182   -2.448969   -0.767402
   41          1             0       -5.019846   -2.749085    0.600671
 --------------------------------------------------------------------
     1 basis functions        1 primitive gaussians
     1 alpha electrons        1 beta electrons
 
 Harmonic frequencies (cm**-1), IR intensities (km*mol⁻¹),
 Raman scattering activities (A**4/amu), Raman depolarization ratios,
 reduced masses (AMU), force constants (mDyne/A) and normal coordinates:
                      1                      2                      3
                        a                      a                      a 
 Frequencies --    46.4067                47.4272                48.7899
 Red. masses --    23.2584                21.0339                16.1928
 Frc consts  --     0.0000                 0.0000                 0.0000
 IR Inten    --     2.7109                 1.9577                 2.2489
 Raman Activ --     0.0000                 0.0000                 0.0000
 Depolar     --     0.0000                 0.0000                 0.0000
 Atom AN      X      Y      Z        X      Y      Z        X      Y      Z
   1   6    -0.03   0.07   0.04     0.10  -0.13  -0.01    -0.15  -0.00   0.01
   2   6    -0.05   0.08   0.09     0.15  -0.18  -0.05    -0.15   0.02  -0.12
   3   8    -0.02   0.11   0.11     0.15  -0.18  -0.02    -0.22  -0.07  -0.24
   4  15    -0.07   0.02   0.10     0.18  -0.09  -0.00    -0.09   0.03  -0.15
   5  16    -0.42  -0.10   0.03     0.19   0.06  -0.26     0.12   0.14  -0.18
   6   8     0.10  -0.14   0.04     0.14  -0.11   0.06    -0.15   0.00   0.08
   7   6     0.06  -0.17  -0.04     0.10  -0.02   0.06    -0.01  -0.02   0.24
   8   6     0.10  -0.13  -0.10     0.08  -0.00   0.06    -0.10  -0.14   0.39
   9  16     0.09   0.25   0.20     0.10   0.02   0.22     0.04   0.06  -0.25
  10   6     0.06   0.26  -0.02    -0.01   0.06   0.13    -0.01   0.01  -0.10
  11  16     0.19   0.21  -0.24    -0.03   0.11   0.20     0.11   0.00  -0.03
  12  15     0.02  -0.04  -0.08    -0.17   0.08  -0.03     0.10  -0.04   0.05
  13  16    -0.32  -0.11  -0.01    -0.27  -0.14  -0.26    -0.11  -0.16  -0.00
  14   8     0.05   0.01  -0.09    -0.13   0.22  -0.06     0.14   0.06  -0.02
  15   6     0.04   0.02  -0.09    -0.20   0.20  -0.10     0.09   0.07  -0.05
  16   6     0.06   0.01  -0.05    -0.20   0.13  -0.09     0.09   0.06  -0.05
  17   8     0.16  -0.18  -0.01    -0.08   0.04   0.04     0.15  -0.07   0.14
  18   6     0.09  -0.16   0.04    -0.05  -0.04   0.06     0.05  -0.04   0.18
  19   6     0.09  -0.09   0.09    -0.04  -0.04   0.09     0.03   0.08   0.24
  20   1    -0.01   0.02   0.00     0.03  -0.03   0.02    -0.04   0.00   0.01
  21   1     0.00   0.03   0.01     0.01  -0.03  -0.01    -0.06  -0.02   0.01
  22   1    -0.01   0.02   0.01     0.03  -0.04  -0.01    -0.03   0.02   0.02
  23   1    -0.01   0.03   0.04     0.04  -0.06  -0.03    -0.04   0.00  -0.04
  24   1    -0.02   0.02   0.03     0.06  -0.06  -0.01    -0.03   0.03  -0.04
  25   1     0.01  -0.06  -0.00     0.04   0.00   0.01     0.00  -0.00   0.07
  26   1     0.01  -0.06  -0.02     0.02  -0.01   0.02     0.03   0.01   0.07
  27   1     0.02  -0.05  -0.04     0.02   0.01   0.02    -0.00  -0.04   0.15
  28   1     0.04  -0.03  -0.04     0.02  -0.01   0.02    -0.03  -0.04   0.11
  29   1     0.03  -0.03  -0.02     0.03  -0.00   0.02    -0.06  -0.06   0.11
  30   1     0.02   0.10  -0.03    -0.01   0.02   0.03    -0.01   0.00  -0.04
  31   1     0.01   0.09   0.02    -0.00   0.03   0.04    -0.02  -0.01  -0.02
  32   1     0.02   0.01  -0.03    -0.06   0.08  -0.03     0.03   0.03  -0.02
  33   1     0.00   0.00  -0.03    -0.07   0.05  -0.04     0.02   0.01  -0.02
  34   1     0.02   0.01  -0.01    -0.04   0.04  -0.02     0.03   0.02  -0.01
  35   1     0.02   0.00  -0.02    -0.07   0.04  -0.03     0.02   0.02  -0.02
  36   1     0.01  -0.00  -0.01    -0.06   0.02  -0.02     0.03   0.01  -0.01
  37   1     0.03  -0.05   0.01    -0.02  -0.02   0.01     0.02  -0.01   0.05
  38   1     0.01  -0.06   0.01    -0.01  -0.01   0.03    -0.01  -0.03   0.06
  39   1     0.04  -0.02   0.02    -0.01  -0.01   0.02     0.03   0.04   0.06
  40   1     0.02  -0.03   0.03    -0.01  -0.02   0.03    -0.00   0.03   0.08
  41   1     0.02  -0.02   0.03    -0.01  -0.00   0.03    -0.00   0.02   0.08
                      4                      5                      6
                        a                      a                      a 
 Frequencies --    53.5916                54.5889                55.3235
 Red. masses --    17.7973                16.1758                14.8098
 Frc consts  --     0.0000                 0.0000                 0.0000
 IR Inten    --     0.5678                 0.0494                 3.3182
 Raman Activ --     0.0000                 0.0000                 0.0000
 Depolar     --     0.0000                 0.0000                 0.0000
 Atom AN      X      Y      Z        X      Y      Z        X      Y      Z
   1   6     0.05   0.02  -0.02     0.01  -0.19  -0.11    -0.15   0.10  -0.16
   2   6     0.09  -0.03   0.02    -0.02  -0.19   0.01    -0.10   0.02  -0.04
   3   8     0.11   0.04   0.11    -0.00  -0.14   0.11     0.06   0.09   0.00
   4  15     0.04   0.15   0.09    -0.04  -0.11   0.15     0.13   0.01   0.01
   5  16     0.15   0.25   0.01     0.05  -0.06   0.15     0.15  -0.11   0.23
   6   8    -0.00   0.18  -0.00    -0.07  -0.03   0.12     0.08   0.04  -0.02
   7   6     0.05   0.04   0.01    -0.18   0.14   0.02     0.05   0.04  -0.04
   8   6     0.15  -0.20   0.02    -0.18   0.31  -0.07     0.07   0.04  -0.07
   9  16    -0.23   0.01   0.22    -0.03  -0.10   0.14     0.25   0.00  -0.14
  10   6     0.00  -0.01   0.04     0.05  -0.00  -0.03     0.05   0.02  -0.04
  11  16    -0.04  -0.14  -0.14    -0.13  -0.00  -0.28     0.09   0.06  -0.02
  12  15    -0.06  -0.19  -0.08     0.03   0.09  -0.16     0.00  -0.03  -0.04
  13  16    -0.11  -0.18  -0.04    -0.05   0.07  -0.16    -0.17  -0.08  -0.04
  14   8    -0.03  -0.18  -0.05     0.18   0.07  -0.19     0.06   0.02  -0.07
  15   6     0.18  -0.09  -0.10     0.16   0.03  -0.10    -0.20  -0.09   0.08
  16   6     0.22   0.12  -0.04     0.22  -0.03   0.02    -0.22  -0.40   0.10
  17   8    -0.04  -0.13  -0.06     0.04   0.12   0.03     0.05  -0.06   0.01
  18   6    -0.17   0.06  -0.02    -0.04   0.05   0.13    -0.13   0.10   0.08
  19   6    -0.27   0.29   0.01     0.07  -0.00   0.27    -0.18   0.30   0.16
  20   1     0.02   0.02   0.01    -0.00  -0.06  -0.03    -0.04   0.04  -0.06
  21   1     0.00   0.02  -0.01     0.01  -0.03  -0.04    -0.03   0.04  -0.05
  22   1     0.01  -0.01  -0.02    -0.00  -0.07  -0.05    -0.07   0.02  -0.05
  23   1     0.02  -0.02  -0.01    -0.00  -0.05   0.00    -0.03  -0.01   0.00
  24   1     0.04  -0.03   0.01    -0.02  -0.08   0.01    -0.04  -0.01  -0.01
  25   1    -0.03   0.01  -0.02    -0.03   0.05   0.00     0.01   0.01  -0.01
  26   1     0.05   0.04   0.02    -0.10   0.03   0.01     0.01   0.01  -0.01
  27   1     0.05  -0.08   0.01    -0.07   0.11  -0.04     0.02   0.01  -0.03
  28   1     0.08  -0.06   0.03    -0.07   0.08  -0.02     0.02   0.01  -0.02
  29   1     0.01  -0.09  -0.02    -0.01   0.11  -0.02     0.03   0.01  -0.02
  30   1     0.02   0.01   0.03     0.02  -0.00   0.01     0.00  -0.00  -0.02
  31   1     0.01  -0.00   0.00     0.04   0.01  -0.02     0.01   0.01  -0.00
  32   1     0.06  -0.05  -0.04     0.07   0.01  -0.05    -0.06  -0.00   0.03
  33   1     0.07  -0.04  -0.04     0.02   0.02  -0.03    -0.10   0.00   0.05
  34   1     0.04   0.05   0.00     0.09  -0.02   0.00    -0.02  -0.15   0.00
  35   1     0.11   0.04  -0.02     0.07  -0.02   0.02    -0.11  -0.14   0.06
  36   1     0.05   0.05   0.00     0.04  -0.01   0.03    -0.06  -0.13   0.03
  37   1    -0.01   0.03  -0.01    -0.04   0.01   0.05    -0.01   0.05   0.03
  38   1    -0.09  -0.02  -0.01    -0.02   0.02   0.02    -0.09   0.00   0.01
  39   1    -0.04   0.12  -0.00     0.03  -0.01   0.09    -0.01   0.11   0.05
  40   1    -0.10   0.11   0.01     0.01  -0.01   0.10    -0.08   0.11   0.06
  41   1    -0.12   0.07   0.01     0.05   0.01   0.07    -0.07   0.08   0.05
                      7                      8                      9
                        a                      a                      a 
 Frequencies --    62.4577                68.0743                62.6680
 Red. masses --    17.7911                19.9113                13.1427
 Frc consts  --     0.0000                 0.0000                 0.0000
 IR Inten    --     2.3635                 4.1153                 1.7141
 Raman Activ --     0.0000                 0.0000                 0.0000
 Depolar     --     0.0000                 0.0000                 0.0000
 Atom AN      X      Y      Z        X      Y      Z        X      Y      Z
   1   6     0.19   0.04   0.05     0.32  -0.13   0.09     0.14   0.09   0.53
   2   6     0.08   0.15   0.06     0.13   0.07   0.07     0.18   0.13   0.13
   3   8     0.02   0.10  -0.01    -0.08   0.01   0.04    -0.01  -0.10  -0.10
   4  15     0.06   0.06  -0.01    -0.18   0.07   0.02     0.06  -0.12  -0.09
   5  16     0.17  -0.02   0.21    -0.29   0.11  -0.15     0.02  -0.09  -0.18
   6   8    -0.00   0.11  -0.04    -0.08  -0.01   0.01     0.05  -0.14   0.02
   7   6     0.13  -0.07   0.07    -0.05  -0.05   0.01     0.04  -0.03   0.07
   8   6     0.14  -0.30   0.17    -0.01  -0.16   0.02    -0.12   0.26   0.11
   9  16     0.00  -0.10  -0.14    -0.19   0.08   0.06     0.09  -0.04   0.00
  10   6    -0.03  -0.06  -0.06     0.00  -0.02   0.03     0.01   0.05  -0.05
  11  16    -0.28   0.04  -0.18     0.11  -0.07   0.10    -0.05   0.04  -0.21
  12  15    -0.16   0.13  -0.13     0.14   0.03  -0.08    -0.05  -0.02  -0.07
  13  16    -0.22   0.19  -0.04     0.32  -0.08  -0.30    -0.10   0.10   0.11
  14   8    -0.00   0.05  -0.13     0.11   0.08  -0.08    -0.02  -0.10  -0.04
  15   6    -0.00  -0.02  -0.00    -0.12  -0.01   0.03     0.01  -0.11   0.01
  16   6     0.07  -0.15   0.16    -0.12  -0.29   0.05     0.00  -0.09  -0.00
  17   8    -0.11   0.12  -0.02     0.03   0.13  -0.00    -0.02  -0.05  -0.08
  18   6    -0.04  -0.04   0.02    -0.03   0.11   0.06    -0.09   0.04  -0.05
  19   6     0.12  -0.28   0.07     0.01   0.13   0.13    -0.14   0.17  -0.01
  20   1     0.04  -0.02   0.01     0.07  -0.09   0.03     0.05   0.03   0.18
  21   1     0.07   0.01   0.02     0.11  -0.03   0.03    -0.01  -0.02   0.17
  22   1     0.07   0.02   0.02     0.13  -0.03   0.03     0.08   0.07   0.19
  23   1     0.04   0.07   0.03     0.06   0.07   0.03     0.04   0.03   0.01
  24   1    -0.00   0.05   0.01     0.01   0.03   0.02     0.10   0.10   0.01
  25   1     0.01  -0.03   0.02    -0.03  -0.01  -0.01     0.06  -0.01   0.05
  26   1     0.09   0.01   0.03    -0.00   0.00   0.02    -0.01  -0.04  -0.01
  27   1     0.06  -0.11   0.07     0.00  -0.05   0.01    -0.04   0.09   0.04
  28   1     0.06  -0.08   0.06     0.01  -0.05   0.02    -0.09   0.08  -0.01
  29   1    -0.00  -0.11   0.04    -0.01  -0.06  -0.01    -0.02   0.11   0.07
  30   1    -0.01  -0.04   0.00     0.02   0.01   0.02    -0.00   0.01  -0.02
  31   1     0.02  -0.01  -0.03    -0.01  -0.02   0.00     0.01   0.03  -0.01
  32   1     0.02  -0.01  -0.03    -0.04   0.02   0.01     0.00  -0.04   0.01
  33   1    -0.04   0.01   0.01    -0.07   0.02   0.02     0.01  -0.02   0.01
  34   1     0.06  -0.06   0.04     0.00  -0.11  -0.01    -0.01  -0.03  -0.00
  35   1     0.02  -0.05   0.07    -0.08  -0.10   0.04     0.01  -0.03   0.00
  36   1    -0.00  -0.04   0.07    -0.04  -0.10   0.02     0.00  -0.02  -0.00
  37   1    -0.07  -0.02   0.02    -0.02   0.03   0.02    -0.01   0.02  -0.02
  38   1     0.02   0.02  -0.01    -0.02   0.03   0.01    -0.05  -0.01  -0.01
  39   1     0.01  -0.11   0.04     0.01   0.04   0.04    -0.02   0.07  -0.01
  40   1     0.04  -0.10   0.03    -0.01   0.03   0.05    -0.05   0.06   0.00
  41   1     0.09  -0.07   0.00     0.01   0.04   0.04    -0.06   0.05   0.01
                     10                     11                     12
                        a                      a                      a 
 Frequencies --    63.8309                70.7951                85.1963
 Red. masses --    12.9912                13.1957                12.9330
 Frc consts  --     0.0000                 0.0000                 0.0000
 IR Inten    --     3.4562                 1.4838                 1.0672
 Raman Activ --     0.0000                 0.0000                 0.0000
 Depolar     --     0.0000                 0.0000                 0.0000
 Atom AN      X      Y      Z        X      Y      Z        X      Y      Z
   1   6     0.46  -0.25  -0.28     0.14  -0.08  -0.07     0.06  -0.12   0.26
   2   6     0.05   0.12   0.02     0.05  -0.01   0.02     0.04  -0.07   0.04
   3   8    -0.08   0.07  -0.03     0.03  -0.00   0.04    -0.13  -0.17  -0.03
   4  15    -0.04  -0.02  -0.02    -0.00   0.00   0.02    -0.10  -0.07   0.05
   5  16    -0.09  -0.16   0.17     0.06   0.01   0.07     0.22   0.03   0.13
   6   8    -0.02  -0.04   0.01    -0.02   0.05  -0.02    -0.16   0.04   0.08
   7   6     0.01  -0.03   0.06     0.01  -0.01  -0.01    -0.30   0.17  -0.10
   8   6    -0.09   0.12   0.10     0.03  -0.08  -0.00     0.03  -0.25  -0.26
   9  16     0.13   0.00  -0.18    -0.07  -0.05   0.03     0.06  -0.02  -0.07
  10   6    -0.02  -0.00  -0.03     0.01  -0.00  -0.05     0.02   0.02  -0.06
  11  16     0.04   0.04   0.09    -0.10  -0.01  -0.21     0.06   0.08  -0.01
  12  15    -0.04  -0.02   0.07     0.06   0.01   0.05     0.06   0.07   0.04
  13  16    -0.20  -0.08   0.08     0.02   0.19   0.28    -0.21   0.01   0.07
  14   8    -0.06   0.02   0.05     0.11  -0.06   0.02     0.06   0.12  -0.00
  15   6     0.04   0.06  -0.02    -0.05  -0.06   0.01    -0.04   0.10  -0.00
  16   6     0.07   0.16   0.03    -0.32   0.04  -0.57    -0.03  -0.01   0.04
  17   8     0.01  -0.09   0.02     0.06  -0.00   0.07     0.12  -0.04   0.02
  18   6     0.01   0.02  -0.05     0.00  -0.00   0.10     0.19  -0.04  -0.06
  19   6    -0.13   0.17  -0.14     0.03   0.02   0.16     0.01   0.12  -0.20
  20   1     0.08  -0.17  -0.14     0.03  -0.04  -0.03     0.01  -0.04   0.10
  21   1     0.24  -0.05  -0.08     0.06  -0.01  -0.02    -0.02  -0.05   0.08
  22   1     0.16  -0.07  -0.08     0.04  -0.03  -0.02     0.05  -0.02   0.08
  23   1     0.07   0.13   0.09     0.03   0.02   0.02     0.01  -0.01  -0.02
  24   1    -0.11   0.03   0.00    -0.01  -0.01   0.01     0.04   0.00   0.00
  25   1     0.03  -0.02   0.04    -0.01  -0.01  -0.00    -0.15   0.10  -0.13
  26   1     0.00  -0.03  -0.01     0.01   0.00  -0.00    -0.12   0.12   0.07
  27   1    -0.02   0.04   0.04     0.01  -0.03  -0.00    -0.03  -0.05  -0.11
  28   1    -0.06   0.04   0.00     0.02  -0.02   0.00     0.09  -0.11   0.03
  29   1    -0.02   0.05   0.05    -0.00  -0.03  -0.00     0.03  -0.14  -0.17
  30   1    -0.02  -0.01  -0.02     0.01  -0.00  -0.00     0.00   0.00  -0.02
  31   1    -0.02  -0.00  -0.00     0.02   0.01  -0.02     0.00   0.01  -0.01
  32   1     0.02   0.02  -0.02    -0.10  -0.05   0.10    -0.01   0.05  -0.01
  33   1     0.01   0.00  -0.02     0.10  -0.01   0.03    -0.04   0.03  -0.00
  34   1     0.02   0.06   0.02    -0.20   0.01  -0.19     0.02  -0.01   0.01
  35   1     0.04   0.05  -0.00    -0.13   0.01  -0.17    -0.02  -0.01   0.01
  36   1     0.01   0.05   0.02    -0.00   0.04  -0.26    -0.01  -0.02   0.02
  37   1     0.05   0.01  -0.03    -0.00  -0.00   0.03     0.10  -0.02  -0.05
  38   1    -0.01  -0.02   0.00    -0.01  -0.00   0.03     0.06  -0.04   0.02
  39   1    -0.03   0.07  -0.06     0.01   0.01   0.05    -0.00   0.06  -0.10
  40   1    -0.03   0.07  -0.06     0.00   0.00   0.06     0.02   0.04  -0.08
  41   1    -0.08   0.04  -0.03     0.02   0.01   0.05    -0.05   0.04  -0.02
                     13                     14                     15
                        a                      a                      a 
 Frequencies --   103.3842                92.4283               110.9381
 Red. masses --    15.6552                10.6159                13.5227
 Frc consts  --     0.0000                 0.0000                 0.0000
 IR Inten    --    12.4274                 4.0259                 3.3183
 Raman Activ --     0.0000                 0.0000                 0.0000
 Depolar     --     0.0000                 0.0000                 0.0000
 Atom AN      X      Y      Z        X      Y      Z        X      Y      Z
   1   6     0.06  -0.08   0.03    -0.00   0.03   0.06     0.01   0.09  -0.03
   2   6    -0.08   0.06   0.01     0.04  -0.00   0.00     0.17  -0.07  -0.07
   3   8    -0.17  -0.05  -0.12     0.03   0.01   0.02     0.21   0.06   0.08
   4  15    -0.01  -0.02   0.00     0.00  -0.00  -0.00     0.08  -0.02  -0.06
   5  16     0.14   0.02   0.05    -0.10  -0.05  -0.00    -0.37  -0.26   0.01
   6   8    -0.02  -0.07   0.12     0.00  -0.01   0.00     0.05   0.01  -0.06
   7   6    -0.13   0.06  -0.01    -0.03   0.10   0.01    -0.06   0.47   0.06
   8   6     0.04  -0.09  -0.13    -0.00  -0.01   0.03     0.01  -0.07   0.24
   9  16     0.24   0.13  -0.07     0.05   0.00  -0.04     0.10  -0.04  -0.10
  10   6     0.03   0.12  -0.02    -0.02  -0.01   0.02    -0.01  -0.01  -0.03
  11  16     0.19   0.11   0.03     0.07  -0.04   0.11    -0.01   0.01  -0.01
  12  15    -0.09  -0.09  -0.08     0.05  -0.04   0.07    -0.03  -0.01  -0.02
  13  16     0.26   0.07  -0.03    -0.25  -0.20   0.00     0.07   0.02  -0.02
  14   8    -0.29  -0.17   0.08     0.19   0.02  -0.03    -0.06  -0.03   0.01
  15   6    -0.03  -0.09  -0.00     0.10  -0.01   0.00    -0.00  -0.01   0.00
  16   6    -0.00   0.17   0.03     0.03  -0.02  -0.14    -0.00   0.05  -0.01
  17   8    -0.09  -0.09  -0.19     0.02  -0.00   0.07    -0.02  -0.01  -0.02
  18   6    -0.31   0.02   0.01    -0.19   0.50  -0.05     0.01  -0.12   0.02
  19   6    -0.03  -0.15   0.28     0.10  -0.15  -0.16    -0.04   0.02   0.06
  20   1     0.00  -0.06  -0.01     0.01   0.02   0.03     0.02   0.06   0.04
  21   1     0.05  -0.04   0.02    -0.02   0.01   0.02    -0.05   0.05  -0.02
  22   1     0.04  -0.01   0.02     0.01   0.01   0.02    -0.00   0.00  -0.03
  23   1    -0.00   0.05   0.03     0.01  -0.01  -0.02     0.03  -0.05  -0.07
  24   1    -0.05   0.04  -0.01     0.03  -0.00   0.00     0.11  -0.05  -0.01
  25   1    -0.07   0.04  -0.05    -0.01   0.05  -0.03    -0.03   0.24  -0.13
  26   1    -0.07   0.05   0.05    -0.02   0.05   0.04    -0.05   0.24   0.16
  27   1    -0.02  -0.01  -0.07    -0.01   0.02   0.01    -0.02   0.09   0.11
  28   1     0.05  -0.05   0.01     0.00  -0.03   0.04     0.00  -0.13   0.22
  29   1     0.04  -0.05  -0.09     0.01  -0.03  -0.03     0.03  -0.13  -0.08
  30   1    -0.01   0.04  -0.03    -0.01   0.00  -0.01    -0.01  -0.01  -0.02
  31   1    -0.01   0.04   0.02    -0.02  -0.00   0.01    -0.01   0.00  -0.00
  32   1    -0.00  -0.05  -0.01     0.01  -0.01   0.03    -0.00  -0.01   0.00
  33   1     0.02  -0.04  -0.01     0.05   0.01   0.01     0.01  -0.01  -0.00
  34   1    -0.03   0.07   0.02    -0.02  -0.02  -0.06    -0.01   0.02  -0.00
  35   1     0.05   0.06  -0.01    -0.01  -0.01  -0.03     0.01   0.02  -0.00
  36   1    -0.01   0.07   0.02     0.03   0.01  -0.06    -0.00   0.03  -0.01
  37   1    -0.16   0.03   0.07    -0.13   0.26   0.16     0.02  -0.06  -0.03
  38   1    -0.13   0.04  -0.07    -0.08   0.27  -0.20     0.01  -0.06   0.04
  39   1     0.03  -0.08   0.16     0.05  -0.17   0.14    -0.01   0.03  -0.02
  40   1    -0.06  -0.03   0.13    -0.01   0.07  -0.08    -0.01  -0.02   0.03
  41   1     0.07  -0.06   0.02     0.10  -0.16  -0.22    -0.02   0.03   0.05
                     16                     17                     18
                        a                      a                      a 
 Frequencies --   123.6264               134.8453               153.1077
 Red. masses --    14.0380                14.1682                23.8409
 Frc consts  --     0.0000                 0.0000                 0.0000
 IR Inten    --     7.2754                 4.7758                 6.7004
 Raman Activ --     0.0000                 0.0000                 0.0000
 Depolar     --     0.0000                 0.0000                 0.0000
 Atom AN      X      Y      Z        X      Y      Z        X      Y      Z
   1   6     0.02  -0.05   0.08     0.00  -0.02   0.04     0.02   0.05  -0.02
   2   6     0.28  -0.26  -0.24     0.05  -0.04  -0.09    -0.08   0.15   0.05
   3   8     0.06  -0.08   0.04    -0.07  -0.02  -0.05    -0.00   0.00  -0.14
   4  15    -0.12   0.07  -0.06    -0.03   0.06  -0.01     0.06  -0.13  -0.17
   5  16     0.00  -0.13   0.38     0.01  -0.00   0.12     0.24  -0.24   0.12
   6   8    -0.14   0.19  -0.17    -0.01   0.01   0.04     0.01  -0.04  -0.15
   7   6     0.06  -0.16  -0.04    -0.01  -0.04   0.00     0.01   0.09  -0.05
   8   6    -0.10   0.00   0.06     0.01   0.02  -0.05    -0.04  -0.03   0.06
   9  16    -0.10   0.10  -0.08     0.15   0.15  -0.07    -0.20   0.05   0.28
  10   6    -0.05   0.10  -0.10    -0.10   0.11   0.05    -0.17   0.25  -0.04
  11  16     0.14   0.10  -0.05    -0.04   0.13   0.16    -0.13   0.09  -0.32
  12  15     0.05  -0.01   0.01    -0.15   0.08   0.01     0.04  -0.02   0.18
  13  16     0.06  -0.01  -0.00    -0.05  -0.14  -0.31     0.21  -0.28  -0.20
  14   8    -0.11   0.02   0.07     0.11  -0.11  -0.05    -0.02   0.02   0.14
  15   6    -0.09   0.06  -0.01     0.27  -0.25   0.30    -0.05   0.05   0.08
  16   6    -0.05   0.08   0.06     0.07  -0.05  -0.13    -0.06   0.05   0.07
  17   8     0.08  -0.08  -0.06    -0.18   0.19   0.08     0.01   0.02   0.15
  18   6    -0.03   0.04  -0.02     0.04  -0.10   0.04     0.05   0.07   0.05
  19   6     0.03   0.00   0.05    -0.06  -0.03  -0.05     0.02   0.00  -0.06
  20   1     0.04   0.03   0.16     0.01  -0.01   0.06    -0.01  -0.00  -0.07
  21   1    -0.14   0.02  -0.00    -0.04   0.00   0.01     0.06  -0.01   0.01
  22   1     0.06  -0.05  -0.02     0.03  -0.01   0.00    -0.02   0.04   0.02
  23   1     0.04  -0.12  -0.22     0.00  -0.02  -0.07    -0.01   0.05   0.08
  24   1     0.24  -0.13  -0.04     0.06  -0.02  -0.02    -0.09   0.08  -0.00
  25   1     0.03  -0.11   0.08    -0.01  -0.02   0.01     0.01   0.05  -0.04
  26   1     0.08  -0.09  -0.10    -0.00  -0.03  -0.01     0.00   0.05   0.02
  27   1     0.02  -0.07   0.04     0.00  -0.01  -0.03    -0.01   0.03   0.04
  28   1    -0.04   0.06  -0.07     0.01   0.02  -0.03    -0.03  -0.04   0.05
  29   1    -0.10   0.04   0.11     0.00   0.02   0.00    -0.00  -0.03  -0.02
  30   1    -0.01   0.04  -0.05    -0.05   0.03  -0.02    -0.06   0.11  -0.06
  31   1    -0.03   0.03  -0.01    -0.05   0.04   0.04    -0.07   0.11   0.03
  32   1    -0.02   0.03  -0.02     0.02  -0.21   0.17    -0.02   0.02   0.03
  33   1    -0.04   0.00  -0.02     0.22  -0.01   0.17    -0.01   0.01   0.02
  34   1    -0.00   0.04   0.03    -0.12  -0.07  -0.13    -0.02   0.02   0.03
  35   1    -0.01   0.03   0.00     0.05  -0.06   0.05    -0.02   0.02   0.01
  36   1    -0.03   0.01   0.03     0.09   0.13  -0.12    -0.02   0.01   0.02
  37   1    -0.02   0.03   0.02     0.03  -0.07  -0.05     0.02   0.03   0.03
  38   1    -0.03   0.02  -0.04     0.06  -0.05   0.08     0.03   0.04   0.01
  39   1     0.04  -0.01   0.05    -0.07   0.02  -0.09    -0.00  -0.02  -0.00
  40   1    -0.02   0.03   0.03     0.04  -0.07  -0.03     0.02   0.02  -0.04
  41   1     0.02  -0.02  -0.02    -0.04   0.05   0.06    -0.01  -0.02  -0.03
                     19                     20                     21
                        a                      a                      a 
 Frequencies --   175.1250               167.4401               192.7591
 Red. masses --    25.0459                15.6759                16.3321
 Frc consts  --     0.0000                 0.0000                 0.0000
 IR Inten    --    10.4274                 9.1356                35.8985
 Raman Activ --     0.0000                 0.0000                 0.0000
 Depolar     --     0.0000                 0.0000                 0.0000
 Atom AN      X      Y      Z        X      Y      Z        X      Y      Z
   1   6    -0.01   0.02  -0.02     0.02  -0.02   0.02    -0.02   0.01   0.00
   2   6    -0.06   0.07  -0.04     0.05  -0.02  -0.13    -0.01  -0.05   0.28
   3   8    -0.03  -0.03  -0.17    -0.11  -0.01  -0.09     0.27   0.03   0.36
   4  15    -0.01  -0.07  -0.21     0.03   0.11   0.02    -0.10  -0.18   0.10
   5  16     0.15  -0.23   0.14    -0.06   0.03   0.11     0.12   0.09  -0.20
   6   8    -0.03  -0.01  -0.18     0.06  -0.04   0.15    -0.19   0.15  -0.21
   7   6     0.01   0.06  -0.07     0.01  -0.01   0.06    -0.08  -0.03  -0.10
   8   6    -0.07  -0.03   0.06     0.09   0.02  -0.05    -0.21  -0.10   0.07
   9  16    -0.25   0.13   0.28     0.18   0.16  -0.05     0.24  -0.07  -0.12
  10   6    -0.08   0.07   0.14    -0.14   0.12   0.07    -0.19   0.18  -0.10
  11  16     0.26  -0.05   0.41    -0.14  -0.04  -0.06     0.13   0.13   0.06
  12  15    -0.01  -0.00  -0.18    -0.13  -0.18   0.11    -0.07  -0.04   0.02
  13  16    -0.11   0.25   0.15     0.26  -0.02   0.17     0.09   0.01   0.02
  14   8     0.12  -0.00  -0.19     0.19   0.00  -0.09     0.06  -0.01  -0.04
  15   6     0.09  -0.03  -0.15    -0.02   0.09  -0.33     0.03   0.00  -0.07
  16   6     0.10  -0.13  -0.12     0.08  -0.16  -0.12     0.04  -0.05  -0.05
  17   8    -0.03   0.04  -0.12    -0.22   0.07   0.21    -0.08   0.02   0.04
  18   6    -0.04  -0.06  -0.05    -0.06  -0.02   0.08    -0.05  -0.03   0.02
  19   6    -0.01  -0.00   0.04    -0.17  -0.10  -0.13    -0.07  -0.05  -0.03
  20   1    -0.01   0.00  -0.05     0.01  -0.01   0.06    -0.00   0.02  -0.07
  21   1     0.03  -0.03   0.01    -0.05   0.01  -0.00     0.06   0.00   0.01
  22   1    -0.02   0.03   0.03     0.05  -0.01  -0.01    -0.08  -0.00   0.01
  23   1    -0.01   0.02   0.02     0.01  -0.01  -0.09     0.00  -0.02   0.14
  24   1    -0.04   0.05  -0.02     0.06  -0.02  -0.03    -0.06  -0.02   0.08
  25   1     0.01   0.03  -0.03    -0.01  -0.00   0.01    -0.02  -0.03  -0.00
  26   1     0.01   0.03  -0.00    -0.02  -0.01   0.02     0.02  -0.01  -0.05
  27   1    -0.01   0.02   0.05     0.01   0.01  -0.04    -0.00  -0.09   0.07
  28   1    -0.04  -0.04   0.04     0.04   0.01  -0.01    -0.07   0.01  -0.03
  29   1    -0.03  -0.03  -0.01     0.05   0.01  -0.02    -0.15  -0.02   0.07
  30   1    -0.02   0.06   0.01    -0.06   0.04  -0.03    -0.10   0.07  -0.13
  31   1    -0.06   0.00   0.06    -0.06   0.06   0.06    -0.11   0.10   0.05
  32   1     0.03  -0.00  -0.05     0.03   0.14  -0.14     0.01   0.02  -0.03
  33   1     0.01  -0.00  -0.04    -0.11  -0.01  -0.15    -0.01  -0.00  -0.03
  34   1     0.05  -0.05  -0.04     0.13   0.00   0.04     0.03  -0.01   0.00
  35   1     0.01  -0.04  -0.03    -0.05  -0.01  -0.11    -0.01  -0.01  -0.03
  36   1     0.03  -0.05  -0.03    -0.01  -0.19   0.00     0.01  -0.04  -0.01
  37   1    -0.02  -0.04  -0.03    -0.00  -0.02   0.01    -0.01  -0.01  -0.00
  38   1    -0.01  -0.03   0.00     0.02   0.00   0.05    -0.00  -0.01   0.01
  39   1    -0.01   0.01  -0.01    -0.10  -0.04  -0.07    -0.04  -0.02  -0.03
  40   1     0.00  -0.03   0.03     0.00  -0.04  -0.08     0.00  -0.03  -0.02
  41   1     0.01   0.03   0.04    -0.07  -0.02  -0.01    -0.02  -0.00   0.01
                     22                     23                     24
                        a                      a                      a 
 Frequencies --   209.4575               202.3281               214.4500
 Red. masses --     9.1510                 6.2168                 4.7773
 Frc consts  --     0.0000                 0.0000                 0.0000
 IR Inten    --    13.2196                 4.0634                 1.0174
 Raman Activ --     0.0000                 0.0000                 0.0000
 Depolar     --     0.0000                 0.0000                 0.0000
 Atom AN      X      Y      Z        X      Y      Z        X      Y      Z
   1   6     0.04   0.19  -0.11     0.01   0.02  -0.02    -0.00  -0.01   0.01
   2   6     0.13   0.08  -0.04     0.02   0.00  -0.01    -0.01  -0.01   0.01
   3   8     0.02   0.21   0.17     0.01   0.02   0.03    -0.00  -0.01  -0.00
   4  15    -0.17  -0.07   0.02    -0.03  -0.01   0.00     0.02   0.01   0.02
   5  16     0.24   0.11   0.02     0.03   0.01   0.00    -0.02   0.01   0.01
   6   8     0.05  -0.33   0.08     0.00  -0.05   0.01     0.02   0.01   0.03
   7   6    -0.05  -0.22   0.01    -0.01  -0.03  -0.00     0.02   0.01   0.03
   8   6    -0.13  -0.04   0.00    -0.03  -0.01   0.00     0.05   0.02  -0.01
   9  16    -0.09  -0.00  -0.06    -0.02   0.01  -0.01    -0.02  -0.04  -0.02
  10   6    -0.08   0.01  -0.04     0.07  -0.00  -0.05    -0.09   0.04  -0.04
  11  16     0.00  -0.01   0.04     0.15  -0.05  -0.08     0.09  -0.13  -0.07
  12  15    -0.01   0.00  -0.01     0.12  -0.02   0.03     0.03  -0.13  -0.04
  13  16     0.02   0.03   0.00    -0.16  -0.12   0.04     0.06   0.01   0.14
  14   8     0.01   0.03  -0.02    -0.04  -0.13   0.12    -0.00   0.16  -0.10
  15   6     0.00   0.01  -0.01    -0.04  -0.05  -0.01    -0.08   0.13  -0.07
  16   6     0.00   0.00  -0.01    -0.02   0.03   0.01    -0.03   0.06   0.06
  17   8     0.02  -0.03  -0.01    -0.11   0.23  -0.05     0.01  -0.06   0.04
  18   6     0.01  -0.03  -0.00    -0.07   0.20  -0.05    -0.06   0.06   0.02
  19   6    -0.00   0.01   0.00     0.08   0.02   0.03    -0.05  -0.04  -0.03
  20   1     0.02   0.05   0.13     0.00   0.01   0.01    -0.00  -0.00  -0.00
  21   1    -0.09   0.19  -0.10    -0.01   0.02  -0.01     0.00  -0.01   0.01
  22   1     0.08  -0.05  -0.15     0.00  -0.00  -0.02    -0.00   0.00   0.01
  23   1     0.02   0.02  -0.07     0.00  -0.00  -0.01    -0.00  -0.00   0.00
  24   1     0.09  -0.02   0.01     0.01  -0.01   0.00    -0.00  -0.00   0.00
  25   1     0.01  -0.05   0.00     0.00  -0.01  -0.00     0.00   0.00   0.01
  26   1    -0.05  -0.08  -0.00    -0.01  -0.01  -0.00     0.00  -0.00   0.01
  27   1    -0.18   0.34   0.01    -0.03   0.05   0.00     0.01  -0.00  -0.02
  28   1    -0.20  -0.25   0.21    -0.03  -0.04   0.03     0.02   0.01  -0.01
  29   1     0.23  -0.07  -0.20     0.03  -0.01  -0.03     0.02   0.01   0.00
  30   1    -0.03   0.01  -0.03     0.03   0.00  -0.01    -0.04   0.04  -0.06
  31   1    -0.04   0.01   0.01     0.02  -0.01  -0.02    -0.06   0.03   0.03
  32   1     0.00  -0.00  -0.00    -0.01   0.01  -0.01    -0.01   0.03  -0.03
  33   1     0.00   0.01   0.00    -0.02  -0.04  -0.03    -0.04   0.05  -0.01
  34   1    -0.01  -0.02  -0.02     0.04   0.10   0.12    -0.14  -0.26  -0.33
  35   1     0.01  -0.01   0.02    -0.05   0.08  -0.13     0.18  -0.19   0.43
  36   1     0.00   0.03  -0.00    -0.01  -0.14   0.02    -0.04   0.48   0.01
  37   1     0.01  -0.01  -0.00    -0.05   0.05  -0.00    -0.02   0.04   0.03
  38   1     0.00  -0.01   0.00    -0.01   0.08  -0.03    -0.03   0.03  -0.02
  39   1     0.04  -0.00   0.04    -0.28   0.04  -0.30    -0.15  -0.01  -0.13
  40   1    -0.03   0.06  -0.00     0.25  -0.42   0.06     0.09  -0.17  -0.01
  41   1    -0.02  -0.04  -0.04     0.15   0.33   0.30     0.02   0.11   0.10
                     25                     26                     27
                        a                      a                      a 
 Frequencies --   223.8759               242.2329               240.5104
 Red. masses --     6.4868                11.6212                 5.6677
 Frc consts  --     0.0000                 0.0000                 0.0000
 IR Inten    --     2.1716                 2.7945                 7.2348
 Raman Activ --     0.0000                 0.0000                 0.0000
 Depolar     --     0.0000                 0.0000                 0.0000
 Atom AN      X      Y      Z        X      Y      Z        X      Y      Z
   1   6     0.06   0.23  -0.14     0.01   0.03  -0.02    -0.05  -0.17   0.09
   2   6     0.11   0.16  -0.07     0.02   0.02  -0.01    -0.25   0.04   0.10
   3   8    -0.03   0.18   0.01     0.02   0.02  -0.01    -0.10  -0.03  -0.06
   4  15    -0.02  -0.12  -0.03    -0.08  -0.03  -0.08     0.09  -0.01   0.04
   5  16     0.11  -0.07  -0.08     0.05  -0.04  -0.02    -0.06  -0.02  -0.07
   6   8    -0.02  -0.22   0.17    -0.08   0.01  -0.17    -0.02   0.24  -0.20
   7   6    -0.20   0.08   0.06    -0.07  -0.03  -0.13     0.13   0.05  -0.08
   8   6    -0.09  -0.06  -0.02    -0.22  -0.09   0.03     0.05   0.03   0.03
   9  16     0.01  -0.06   0.11     0.08   0.17   0.11     0.10  -0.08   0.09
  10   6    -0.01   0.00   0.04     0.53  -0.16   0.09     0.00   0.01   0.04
  11  16    -0.01  -0.04   0.02     0.03   0.19  -0.08    -0.03   0.02   0.02
  12  15     0.01  -0.00  -0.01    -0.12  -0.01   0.08    -0.00   0.00   0.01
  13  16    -0.01   0.00   0.01     0.09  -0.02   0.01     0.01  -0.00  -0.00
  14   8    -0.00   0.00  -0.00     0.04   0.05  -0.02     0.01   0.00  -0.00
  15   6    -0.00   0.00  -0.00     0.01   0.04  -0.01     0.01   0.00  -0.01
  16   6    -0.00  -0.00   0.00     0.02  -0.02  -0.00     0.01  -0.01  -0.01
  17   8     0.01  -0.00  -0.02    -0.07  -0.05   0.16     0.03  -0.04  -0.02
  18   6     0.01   0.00  -0.02    -0.10  -0.02   0.12    -0.00   0.01  -0.02
  19   6     0.02   0.01   0.01    -0.19  -0.12  -0.08     0.01   0.01   0.01
  20   1     0.02   0.04   0.18     0.01   0.01  -0.00    -0.06  -0.22   0.45
  21   1    -0.12   0.25  -0.14    -0.00   0.02  -0.01    -0.24   0.26  -0.14
  22   1     0.14  -0.07  -0.20     0.00   0.00  -0.01     0.33  -0.27  -0.25
  23   1     0.02   0.04  -0.06     0.01   0.01  -0.00    -0.05   0.03   0.08
  24   1     0.07   0.02  -0.01     0.01   0.01  -0.00    -0.12   0.03   0.02
  25   1    -0.06   0.06  -0.04    -0.01  -0.01  -0.03     0.04  -0.01   0.00
  26   1    -0.10   0.05   0.07    -0.01  -0.00  -0.04     0.08   0.01  -0.04
  27   1     0.12  -0.38  -0.02    -0.04   0.00   0.07    -0.00   0.09   0.03
  28   1     0.15   0.23  -0.21    -0.10  -0.05   0.02    -0.03  -0.05   0.05
  29   1    -0.30   0.04   0.20    -0.08  -0.04  -0.00     0.06  -0.01  -0.04
  30   1    -0.00   0.01   0.00     0.22  -0.13   0.22    -0.01   0.00  -0.00
  31   1    -0.01   0.01   0.02     0.27  -0.13  -0.14    -0.00   0.01   0.02
  32   1    -0.00   0.00  -0.00     0.01   0.01  -0.01     0.00   0.00  -0.00
  33   1    -0.00   0.00  -0.00    -0.00   0.01  -0.00     0.00   0.00  -0.00
  34   1    -0.00  -0.01  -0.01    -0.01  -0.05  -0.06     0.00  -0.00  -0.00
  35   1     0.00  -0.01   0.01     0.02  -0.04   0.07    -0.00  -0.00  -0.01
  36   1    -0.00   0.01   0.00     0.00   0.06  -0.01     0.00  -0.01  -0.00
  37   1     0.00   0.00  -0.00    -0.02   0.01   0.04    -0.00   0.01   0.00
  38   1     0.00   0.00  -0.01    -0.02   0.01   0.03    -0.01   0.00  -0.01
  39   1     0.01   0.01  -0.00    -0.12  -0.05  -0.05    -0.01   0.01  -0.01
  40   1     0.01  -0.01   0.01     0.00  -0.05  -0.07     0.01  -0.02   0.01
  41   1     0.01   0.01   0.01    -0.08  -0.03  -0.00     0.01   0.02   0.02
                     28                     29                     30
                        a                      a                      a 
 Frequencies --   270.0830               285.1556               298.8531
 Red. masses --    16.4323                18.2057                16.7723
 Frc consts  --     0.0000                 0.0000                 0.0000
 IR Inten    --    22.0170                 5.8833                 4.7865
 Raman Activ --     0.0000                 0.0000                 0.0000
 Depolar     --     0.0000                 0.0000                 0.0000
 Atom AN      X      Y      Z        X      Y      Z        X      Y      Z
   1   6    -0.00  -0.02   0.01     0.04   0.11  -0.06     0.05   0.16  -0.09
   2   6    -0.02  -0.00   0.01     0.09   0.06  -0.12     0.10   0.10  -0.11
   3   8    -0.00  -0.00   0.00    -0.09   0.03  -0.10    -0.10   0.01  -0.14
   4  15     0.00  -0.00   0.00     0.06   0.00   0.02     0.14  -0.05   0.04
   5  16    -0.00  -0.00  -0.00    -0.06  -0.01  -0.05    -0.10  -0.08  -0.10
   6   8    -0.00   0.01  -0.03    -0.18   0.23  -0.04    -0.23   0.31   0.12
   7   6     0.01   0.00  -0.02    -0.11  -0.09  -0.08    -0.08  -0.09   0.10
   8   6    -0.01  -0.00   0.00    -0.20  -0.09  -0.01     0.02  -0.01  -0.05
   9  16     0.02   0.03   0.01     0.43   0.04   0.22     0.08  -0.32   0.22
  10   6     0.09   0.02  -0.05    -0.03   0.02   0.29    -0.00   0.03  -0.06
  11  16     0.32  -0.20  -0.16    -0.31  -0.17   0.01     0.24  -0.09  -0.07
  12  15     0.13  -0.08  -0.06     0.05  -0.03   0.01     0.03  -0.02  -0.10
  13  16    -0.18  -0.05   0.10    -0.04  -0.07   0.02     0.01   0.10   0.00
  14   8    -0.10  -0.14   0.07    -0.05  -0.11   0.07     0.06   0.19  -0.14
  15   6    -0.10  -0.06  -0.06    -0.03  -0.02  -0.10     0.01   0.03   0.20
  16   6    -0.05   0.06   0.04     0.01  -0.02  -0.02    -0.05   0.09   0.08
  17   8    -0.33   0.58   0.11     0.03   0.02  -0.10     0.01  -0.03   0.07
  18   6     0.09  -0.03   0.08     0.11   0.05  -0.14    -0.09  -0.04   0.13
  19   6     0.01   0.00  -0.01     0.22   0.13   0.07    -0.20  -0.12  -0.07
  20   1    -0.00  -0.02   0.04     0.02   0.07  -0.08     0.03   0.08  -0.05
  21   1    -0.02   0.02  -0.01     0.04  -0.02   0.01     0.02   0.04  -0.02
  22   1     0.03  -0.02  -0.02    -0.04   0.07   0.03    -0.02   0.05  -0.02
  23   1    -0.00   0.00   0.01     0.02   0.02  -0.07     0.02   0.03  -0.06
  24   1    -0.01   0.00   0.00     0.06   0.01  -0.03     0.06   0.02  -0.03
  25   1     0.00   0.00  -0.00    -0.05  -0.07   0.02    -0.06  -0.08   0.08
  26   1     0.00   0.00  -0.01     0.01  -0.05  -0.07     0.02  -0.06  -0.03
  27   1    -0.00   0.00   0.01    -0.07   0.05   0.03    -0.05   0.07  -0.06
  28   1    -0.01  -0.00   0.00    -0.11  -0.08   0.04    -0.00  -0.04   0.03
  29   1    -0.01  -0.00   0.00    -0.02  -0.04  -0.04     0.10   0.00  -0.06
  30   1     0.04   0.03  -0.02    -0.03   0.00   0.06    -0.02   0.04  -0.08
  31   1     0.01   0.00  -0.01    -0.00   0.03   0.10    -0.03   0.05   0.04
  32   1    -0.02   0.01  -0.03     0.00   0.03  -0.05    -0.02  -0.07   0.09
  33   1    -0.04  -0.04  -0.04    -0.03  -0.03  -0.06     0.05   0.06   0.11
  34   1    -0.04  -0.01  -0.02    -0.01  -0.05  -0.06    -0.01   0.10   0.11
  35   1     0.05  -0.00   0.06     0.04  -0.04   0.07    -0.05   0.08  -0.09
  36   1    -0.04   0.10   0.03    -0.01   0.07   0.00     0.00  -0.08   0.01
  37   1     0.02  -0.09  -0.07     0.03   0.01  -0.04    -0.02  -0.01   0.04
  38   1     0.11  -0.03   0.13     0.03   0.01  -0.04    -0.03  -0.01   0.03
  39   1     0.14  -0.02   0.14     0.11   0.06   0.03    -0.11  -0.06  -0.03
  40   1    -0.10   0.20  -0.03     0.01   0.03   0.08    -0.01  -0.03  -0.08
  41   1    -0.06  -0.15  -0.14     0.10   0.06   0.02    -0.09  -0.05  -0.02
                     31                     32                     33
                        a                      a                      a 
 Frequencies --   313.3509               336.1118               349.8931
 Red. masses --    18.8192                16.1299                18.9961
 Frc consts  --     0.0000                 0.0000                 0.0000
 IR Inten    --     6.9461                19.2257                 3.2190
 Raman Activ --     0.0000                 0.0000                 0.0000
 Depolar     --     0.0000                 0.0000                 0.0000
 Atom AN      X      Y      Z        X      Y      Z        X      Y      Z
   1   6     0.02   0.10  -0.06     0.00  -0.01   0.00    -0.01   0.07  -0.03
   2   6     0.06   0.04  -0.00    -0.00  -0.00  -0.01     0.03  -0.03   0.23
   3   8     0.00  -0.03  -0.05    -0.02   0.01   0.00     0.34  -0.17   0.02
   4  15     0.07  -0.07   0.00    -0.00   0.00   0.01     0.03  -0.02  -0.22
   5  16    -0.04  -0.11  -0.08     0.00   0.02   0.00     0.04  -0.25  -0.06
   6   8    -0.17   0.18   0.14     0.02  -0.01  -0.02    -0.25   0.14   0.20
   7   6    -0.04  -0.05   0.17     0.01   0.01  -0.02    -0.13  -0.09   0.25
   8   6     0.13   0.05  -0.05    -0.01  -0.00   0.00     0.11   0.03  -0.06
   9  16    -0.18  -0.26   0.03     0.02  -0.01   0.01    -0.08   0.43  -0.18
  10   6     0.07  -0.01  -0.19    -0.04  -0.00   0.02     0.02   0.00   0.11
  11  16     0.07   0.44   0.13     0.03  -0.02   0.08    -0.11  -0.14  -0.01
  12  15    -0.08   0.11   0.17    -0.13  -0.01  -0.26    -0.01  -0.08  -0.07
  13  16     0.00  -0.07  -0.05     0.00   0.25  -0.16     0.01   0.00   0.03
  14   8    -0.08  -0.22   0.20    -0.28  -0.28  -0.05     0.01   0.03  -0.08
  15   6     0.04  -0.03  -0.24    -0.09  -0.23  -0.13    -0.03  -0.03   0.04
  16   6     0.10  -0.16  -0.13    -0.02   0.02   0.01    -0.03   0.05   0.04
  17   8    -0.05   0.05  -0.01     0.24  -0.10   0.45     0.01  -0.02   0.03
  18   6     0.03   0.01  -0.04     0.23   0.20   0.30     0.04   0.02  -0.01
  19   6     0.07   0.04   0.03     0.06   0.05  -0.09     0.05   0.03   0.00
  20   1     0.02   0.05  -0.02    -0.00  -0.00   0.00     0.00   0.02   0.04
  21   1     0.00   0.05  -0.03    -0.00  -0.01   0.00    -0.02   0.12  -0.05
  22   1    -0.02   0.01  -0.03     0.00   0.00   0.00    -0.01  -0.06  -0.09
  23   1     0.02   0.01   0.00    -0.00   0.00  -0.01     0.02  -0.03   0.17
  24   1     0.02   0.02  -0.00     0.00  -0.00  -0.00    -0.08   0.04   0.04
  25   1    -0.03  -0.05   0.08     0.00   0.00  -0.01    -0.06  -0.07   0.11
  26   1     0.01  -0.03   0.01     0.00   0.00  -0.00    -0.01  -0.05   0.02
  27   1    -0.02   0.04  -0.09     0.00  -0.00   0.01    -0.04   0.02  -0.12
  28   1     0.06   0.00   0.01    -0.01  -0.00  -0.00     0.08   0.01   0.00
  29   1     0.12   0.03  -0.04    -0.01  -0.00   0.00     0.13   0.03  -0.03
  30   1     0.02  -0.04  -0.01    -0.02   0.01  -0.01     0.04  -0.01   0.08
  31   1     0.05  -0.01  -0.08    -0.02   0.00   0.02     0.02  -0.05  -0.02
  32   1     0.04   0.09  -0.11    -0.01  -0.06  -0.06    -0.01  -0.03   0.02
  33   1    -0.05  -0.07  -0.14    -0.03  -0.08  -0.05     0.00   0.01   0.03
  34   1     0.04  -0.13  -0.14    -0.02   0.03   0.03    -0.02   0.04   0.03
  35   1     0.04  -0.11   0.08     0.06   0.02  -0.02     0.01   0.03  -0.01
  36   1     0.02   0.04  -0.03    -0.04   0.03   0.04    -0.02   0.01   0.02
  37   1     0.01  -0.01  -0.02     0.09   0.11   0.13     0.01   0.01   0.00
  38   1     0.02   0.00   0.00     0.06   0.09   0.04     0.01   0.01  -0.01
  39   1     0.04   0.02   0.02    -0.06  -0.02  -0.06     0.02   0.01   0.00
  40   1    -0.00   0.02   0.03     0.10   0.01  -0.11     0.01   0.00   0.01
  41   1     0.03   0.01   0.00    -0.02   0.01  -0.01     0.02   0.01   0.00
                     34                     35                     36
                        a                      a                      a 
 Frequencies --   380.8180               386.4708               419.9605
 Red. masses --    18.1810                19.2852                19.0072
 Frc consts  --     0.0000                 0.0000                 0.0000
 IR Inten    --    15.1737                 3.4342                32.2022
 Raman Activ --     0.0000                 0.0000                 0.0000
 Depolar     --     0.0000                 0.0000                 0.0000
 Atom AN      X      Y      Z        X      Y      Z        X      Y      Z
   1   6    -0.02  -0.01   0.01    -0.00   0.00  -0.00     0.00   0.04  -0.02
   2   6    -0.03  -0.00   0.07    -0.01   0.01   0.01     0.03  -0.01   0.06
   3   8     0.22  -0.15  -0.16     0.05  -0.06  -0.08     0.01  -0.10  -0.03
   4  15     0.43   0.27  -0.00     0.18   0.11   0.03    -0.06   0.03  -0.04
   5  16    -0.12   0.04   0.09    -0.06   0.04   0.04    -0.02   0.03   0.03
   6   8     0.16  -0.00   0.27     0.09  -0.01   0.11    -0.00  -0.01  -0.02
   7   6    -0.15  -0.12  -0.16    -0.05  -0.04  -0.09     0.01   0.00   0.00
   8   6    -0.35  -0.15  -0.02    -0.15  -0.06  -0.01     0.01   0.01   0.00
   9  16    -0.12  -0.00  -0.08    -0.10  -0.12  -0.01     0.07   0.05   0.02
  10   6    -0.08  -0.00  -0.05     0.05  -0.00  -0.12     0.01  -0.04   0.01
  11  16    -0.01  -0.01   0.01     0.12   0.16  -0.00     0.25  -0.36  -0.19
  12  15     0.17   0.13   0.02    -0.41  -0.28  -0.02    -0.28   0.13   0.19
  13  16    -0.05   0.04  -0.07     0.12  -0.09   0.15    -0.02   0.12  -0.09
  14   8    -0.02  -0.07   0.14     0.02   0.15  -0.29    -0.40   0.14   0.17
  15   6     0.02   0.01  -0.04    -0.02  -0.02   0.06     0.22   0.25   0.06
  16   6     0.02  -0.03  -0.03    -0.02   0.05   0.04     0.13  -0.21  -0.14
  17   8     0.09   0.01  -0.07    -0.22  -0.04   0.16    -0.03  -0.09   0.07
  18   6    -0.06  -0.04   0.08     0.13   0.08  -0.18     0.02   0.02  -0.03
  19   6    -0.13  -0.08  -0.02     0.30   0.18   0.04     0.06   0.04   0.01
  20   1    -0.01  -0.02   0.04    -0.00  -0.00   0.01     0.01   0.03  -0.01
  21   1    -0.02   0.04  -0.02    -0.00   0.01  -0.01     0.00   0.04  -0.02
  22   1     0.02  -0.03  -0.03     0.01  -0.01  -0.01    -0.02  -0.01  -0.03
  23   1    -0.00  -0.02   0.10    -0.00  -0.00   0.03     0.01  -0.00   0.04
  24   1    -0.07   0.05  -0.00    -0.02   0.02  -0.01    -0.01   0.01   0.01
  25   1    -0.06  -0.05  -0.04    -0.02  -0.02  -0.02     0.01   0.00  -0.00
  26   1    -0.07  -0.05  -0.05    -0.03  -0.02  -0.02     0.00   0.00   0.00
  27   1    -0.05  -0.02   0.09    -0.02  -0.01   0.05     0.00   0.00  -0.00
  28   1    -0.17  -0.07  -0.01    -0.08  -0.03  -0.01     0.01   0.00   0.00
  29   1    -0.16  -0.06  -0.00    -0.07  -0.03   0.00     0.01   0.00   0.00
  30   1    -0.03   0.01  -0.04     0.01  -0.02  -0.01     0.01   0.04  -0.04
  31   1    -0.04   0.01   0.01     0.03   0.00  -0.04    -0.03  -0.00   0.04
  32   1     0.01   0.04  -0.02    -0.01  -0.08   0.04     0.06   0.02   0.02
  33   1    -0.01  -0.02  -0.04     0.03   0.04   0.07     0.09   0.07   0.03
  34   1     0.01  -0.03  -0.03    -0.02   0.05   0.05     0.11  -0.13  -0.10
  35   1    -0.00  -0.02   0.02     0.00   0.04  -0.03    -0.15  -0.11   0.00
  36   1     0.01  -0.00  -0.01    -0.01  -0.01   0.01     0.11  -0.15  -0.11
  37   1    -0.02  -0.01   0.02     0.05   0.03  -0.05     0.01   0.02   0.01
  38   1    -0.03  -0.02   0.02     0.06   0.04  -0.04     0.00   0.02  -0.02
  39   1    -0.07  -0.04  -0.01     0.15   0.09   0.03     0.03   0.02   0.00
  40   1    -0.01  -0.01  -0.05     0.01   0.02   0.11     0.00  -0.00   0.02
  41   1    -0.07  -0.04  -0.01     0.15   0.09   0.02     0.03   0.02   0.01
                     37                     38                     39
                        a                      a                      a 
 Frequencies --   419.9394               467.8220               480.6647
 Red. masses --    13.9892                25.0512                24.3920
 Frc consts  --     0.0000                 0.0000                 0.0000
 IR Inten    --    18.8669               264.0888                62.4379
 Raman Activ --     0.0000                 0.0000                 0.0000
 Depolar     --     0.0000                 0.0000                 0.0000
 Atom AN      X      Y      Z        X      Y      Z        X      Y      Z
   1   6    -0.05  -0.29   0.15     0.03   0.06  -0.03     0.02   0.03  -0.02
   2   6    -0.21   0.03  -0.28     0.05   0.00  -0.00     0.03   0.00  -0.01
   3   8     0.19   0.56   0.21    -0.28  -0.00   0.03    -0.18   0.01   0.02
   4  15     0.18   0.00  -0.09     0.23  -0.23   0.45     0.15  -0.14   0.30
   5  16     0.08  -0.19  -0.15     0.07  -0.18  -0.17     0.05  -0.15  -0.12
   6   8    -0.08   0.07   0.14     0.06   0.14   0.00     0.04   0.10   0.01
   7   6    -0.11  -0.06   0.08     0.06   0.03  -0.10     0.04   0.02  -0.07
   8   6    -0.05  -0.03  -0.03    -0.03  -0.01   0.01    -0.02  -0.01   0.01
   9  16    -0.05   0.04   0.01    -0.21   0.26  -0.21    -0.13   0.20  -0.13
  10   6     0.01   0.01   0.00    -0.00   0.07  -0.00    -0.01  -0.01   0.01
  11  16     0.03  -0.06  -0.03    -0.13   0.09   0.06     0.18  -0.23  -0.09
  12  15    -0.05   0.01   0.03     0.17  -0.14  -0.18    -0.27   0.20   0.29
  13  16     0.00   0.02  -0.01     0.03  -0.10   0.13    -0.04   0.20  -0.22
  14   8    -0.08   0.03   0.02    -0.29   0.12  -0.04     0.39  -0.14   0.06
  15   6     0.04   0.05   0.01     0.09   0.09   0.04    -0.11  -0.10  -0.05
  16   6     0.02  -0.04  -0.03     0.06  -0.08  -0.05    -0.07   0.09   0.06
  17   8    -0.01  -0.01   0.02     0.02   0.07   0.00    -0.04  -0.14   0.02
  18   6     0.01   0.01  -0.01     0.02   0.03   0.06    -0.03  -0.04  -0.09
  19   6     0.01   0.01   0.00    -0.01  -0.01  -0.01     0.02   0.01   0.01
  20   1    -0.06  -0.19   0.05     0.02   0.04  -0.03     0.01   0.03  -0.02
  21   1    -0.03  -0.22   0.11     0.02   0.02  -0.01     0.01   0.01  -0.01
  22   1     0.13   0.04   0.15    -0.03   0.01  -0.01    -0.02   0.01  -0.01
  23   1    -0.07  -0.00  -0.13     0.01   0.02  -0.07     0.01   0.01  -0.05
  24   1    -0.01  -0.06  -0.05     0.06  -0.03   0.01     0.04  -0.02   0.01
  25   1    -0.05  -0.03   0.04     0.01   0.00  -0.02     0.00  -0.00  -0.01
  26   1    -0.03  -0.03   0.00     0.02   0.01  -0.03     0.01   0.00  -0.02
  27   1    -0.03  -0.01  -0.03     0.02   0.01   0.05     0.01   0.01   0.03
  28   1    -0.00  -0.01  -0.00    -0.04  -0.02   0.00    -0.03  -0.01   0.00
  29   1     0.01  -0.00  -0.01    -0.04  -0.01   0.00    -0.03  -0.01   0.00
  30   1     0.01   0.01   0.00     0.01  -0.01   0.05     0.02   0.03  -0.00
  31   1     0.00  -0.01  -0.00     0.01  -0.03  -0.05    -0.02  -0.03   0.00
  32   1     0.01  -0.00   0.00     0.03  -0.04   0.02    -0.03   0.07  -0.03
  33   1     0.02   0.02   0.01     0.06   0.05   0.04    -0.08  -0.06  -0.05
  34   1     0.02  -0.02  -0.02     0.05  -0.04  -0.03    -0.06   0.05   0.04
  35   1    -0.03  -0.02  -0.00    -0.07  -0.04  -0.01     0.08   0.04   0.01
  36   1     0.02  -0.03  -0.02     0.05  -0.07  -0.04    -0.06   0.09   0.05
  37   1     0.00   0.00   0.00     0.00   0.00   0.01     0.00   0.00  -0.02
  38   1     0.00   0.00  -0.00     0.01   0.01   0.02    -0.01  -0.01  -0.03
  39   1     0.01   0.00   0.00    -0.02  -0.01  -0.00     0.03   0.02   0.01
  40   1     0.00   0.00   0.01     0.01   0.01  -0.02    -0.02  -0.01   0.04
  41   1     0.01   0.01   0.00    -0.01  -0.01  -0.00     0.03   0.02   0.01
                     40                     41                     42
                        a                      a                      a 
 Frequencies --   621.8792               629.4141               667.1934
 Red. masses --    26.2013                26.6142                18.1350
 Frc consts  --     0.0000                 0.0000                 0.0000
 IR Inten    --   227.1924                36.5279                 7.7321
 Raman Activ --     0.0000                 0.0000                 0.0000
 Depolar     --     0.0000                 0.0000                 0.0000
 Atom AN      X      Y      Z        X      Y      Z        X      Y      Z
   1   6    -0.01  -0.01   0.00    -0.01  -0.02   0.00    -0.00  -0.00   0.00
   2   6     0.02  -0.05   0.09     0.03  -0.08   0.14     0.01  -0.01   0.02
   3   8    -0.12  -0.00   0.09    -0.19  -0.01   0.15    -0.00   0.01   0.00
   4  15    -0.13   0.28  -0.03    -0.23   0.47  -0.08    -0.01   0.07   0.00
   5  16     0.11  -0.25  -0.14     0.18  -0.39  -0.21     0.02  -0.03  -0.01
   6   8     0.08   0.07   0.11     0.13   0.09   0.17    -0.01  -0.03  -0.02
   7   6     0.04   0.02  -0.06     0.07   0.03  -0.09    -0.00  -0.01   0.01
   8   6    -0.01  -0.00  -0.00    -0.01  -0.00  -0.01     0.00  -0.00   0.00
   9  16     0.05   0.01   0.06     0.06  -0.07   0.07    -0.16  -0.28  -0.30
  10   6    -0.09  -0.14  -0.00    -0.01  -0.04  -0.06    -0.05   0.08   0.76
  11  16     0.08  -0.03  -0.06    -0.04   0.07   0.02     0.20   0.22  -0.23
  12  15    -0.21   0.47  -0.00     0.15  -0.31  -0.02    -0.00  -0.03   0.02
  13  16     0.13  -0.37   0.29    -0.08   0.22  -0.17    -0.01   0.01  -0.01
  14   8    -0.10   0.01  -0.22     0.06  -0.01   0.14    -0.01  -0.01  -0.00
  15   6    -0.04  -0.13  -0.09     0.03   0.09   0.06    -0.00   0.01   0.00
  16   6     0.01  -0.01  -0.01    -0.01   0.01   0.01    -0.00   0.00  -0.00
  17   8     0.17   0.09  -0.16    -0.10  -0.05   0.10     0.02   0.03  -0.02
  18   6     0.04   0.03   0.09    -0.02  -0.02  -0.06     0.00   0.01   0.01
  19   6    -0.02  -0.01   0.01     0.01   0.01  -0.00    -0.00  -0.00   0.00
  20   1     0.01   0.02  -0.02     0.01   0.03  -0.02     0.00   0.00  -0.00
  21   1     0.01   0.02  -0.01     0.02   0.03  -0.02    -0.00   0.00  -0.00
  22   1    -0.04  -0.02  -0.02    -0.06  -0.04  -0.03    -0.01  -0.00  -0.00
  23   1     0.00  -0.00  -0.01     0.01  -0.00  -0.01     0.00  -0.00   0.00
  24   1     0.03  -0.03   0.03     0.04  -0.05   0.05     0.00  -0.00   0.00
  25   1    -0.00  -0.01  -0.01    -0.00  -0.01  -0.01     0.00   0.00   0.00
  26   1     0.01  -0.00  -0.02     0.01  -0.00  -0.03    -0.00  -0.00   0.01
  27   1     0.02   0.01   0.04     0.03   0.01   0.06    -0.00  -0.00  -0.01
  28   1    -0.03  -0.01  -0.00    -0.04  -0.02  -0.00     0.00   0.00  -0.00
  29   1    -0.03  -0.01  -0.00    -0.04  -0.02  -0.00     0.01   0.00   0.00
  30   1    -0.02  -0.00  -0.03    -0.01  -0.02  -0.02    -0.04   0.02   0.16
  31   1    -0.03  -0.01   0.02     0.00   0.02  -0.00     0.00   0.02   0.19
  32   1    -0.01  -0.08  -0.02     0.01   0.05   0.01     0.00  -0.00   0.00
  33   1     0.00  -0.01   0.01    -0.00   0.01  -0.00     0.00   0.00   0.00
  34   1    -0.01   0.02   0.02     0.01  -0.01  -0.01     0.00  -0.00  -0.00
  35   1     0.06   0.01  -0.02    -0.04  -0.01   0.01    -0.00  -0.00   0.00
  36   1    -0.03   0.02   0.02     0.02  -0.01  -0.02    -0.00  -0.00  -0.00
  37   1    -0.01  -0.01   0.01     0.00   0.00  -0.01    -0.00  -0.00   0.00
  38   1    -0.00  -0.00   0.03     0.00   0.00  -0.02     0.00   0.00   0.01
  39   1    -0.04  -0.02  -0.00     0.03   0.01   0.00    -0.01  -0.00  -0.00
  40   1     0.03   0.02  -0.05    -0.02  -0.01   0.03     0.01   0.00  -0.01
  41   1    -0.04  -0.03  -0.01     0.02   0.02   0.00    -0.01  -0.00  -0.00
                     43                     44                     45
                        a                      a                      a 
 Frequencies --   697.6389               749.7518               755.5533
 Red. masses --    16.4907                18.7065                18.9356
 Frc consts  --     0.0000                 0.0000                 0.0000
 IR Inten    --    45.7272               284.8774                80.4642
 Raman Activ --     0.0000                 0.0000                 0.0000
 Depolar     --     0.0000                 0.0000                 0.0000
 Atom AN      X      Y      Z        X      Y      Z        X      Y      Z
   1   6    -0.01  -0.01   0.00     0.02   0.06  -0.03     0.02   0.06  -0.03
   2   6     0.01  -0.02   0.05    -0.04   0.10  -0.23    -0.03   0.08  -0.18
   3   8    -0.05   0.01   0.03     0.29  -0.10  -0.15     0.24  -0.08  -0.11
   4  15    -0.02   0.10  -0.05    -0.38  -0.11   0.20    -0.32  -0.11   0.14
   5  16     0.02  -0.04  -0.02     0.03  -0.06  -0.04     0.02  -0.04  -0.02
   6   8     0.00  -0.01   0.01     0.12   0.14   0.22     0.11   0.12   0.20
   7   6     0.01   0.00  -0.01     0.08   0.05  -0.11     0.07   0.05  -0.10
   8   6     0.00   0.00  -0.00     0.04   0.01  -0.01     0.03   0.01  -0.01
   9  16    -0.10  -0.23  -0.16    -0.01  -0.03  -0.03     0.01  -0.01  -0.01
  10   6     0.51   0.62  -0.02     0.04   0.06   0.01    -0.00  -0.01   0.02
  11  16    -0.19  -0.27   0.19    -0.01  -0.02   0.02    -0.00   0.02  -0.02
  12  15    -0.02   0.11   0.04    -0.26  -0.06  -0.29     0.33   0.08   0.34
  13  16     0.01  -0.04   0.02     0.03  -0.07   0.06    -0.03   0.08  -0.07
  14   8    -0.02   0.01  -0.05     0.17  -0.11   0.23    -0.22   0.13  -0.28
  15   6    -0.01  -0.04  -0.03     0.06   0.16   0.12    -0.08  -0.19  -0.15
  16   6     0.01  -0.01  -0.01    -0.04   0.04   0.04     0.05  -0.05  -0.05
  17   8     0.00  -0.02  -0.01     0.10   0.07  -0.11    -0.12  -0.09   0.15
  18   6     0.01  -0.00   0.01     0.04   0.03   0.08    -0.05  -0.04  -0.10
  19   6     0.00  -0.00   0.00     0.02   0.01   0.01    -0.03  -0.02  -0.01
  20   1     0.00   0.01  -0.01    -0.00  -0.01   0.06    -0.01  -0.02   0.04
  21   1     0.01   0.01  -0.00    -0.06  -0.07   0.03    -0.05  -0.06   0.02
  22   1    -0.02  -0.02  -0.01     0.11   0.09   0.06     0.09   0.08   0.04
  23   1     0.00  -0.00  -0.00     0.01   0.02   0.08     0.01   0.01   0.06
  24   1     0.01  -0.01   0.02    -0.13   0.07  -0.09    -0.10   0.06  -0.07
  25   1     0.00  -0.00  -0.00    -0.01  -0.02   0.00    -0.00  -0.02   0.00
  26   1    -0.00   0.00   0.00     0.01  -0.01  -0.06     0.01  -0.01  -0.05
  27   1     0.00   0.00   0.00     0.06   0.02   0.10     0.06   0.02   0.09
  28   1    -0.00  -0.00  -0.00    -0.05  -0.03   0.01    -0.04  -0.03   0.01
  29   1    -0.00   0.00   0.00    -0.06  -0.03  -0.01    -0.06  -0.03  -0.01
  30   1     0.08   0.16  -0.09     0.01   0.02  -0.01    -0.00  -0.00   0.00
  31   1     0.05   0.16   0.06     0.00   0.02   0.01     0.00   0.00   0.01
  32   1    -0.00  -0.02  -0.01     0.03   0.14   0.00    -0.05  -0.17   0.00
  33   1    -0.00  -0.00   0.00    -0.04  -0.01  -0.03     0.05   0.01   0.04
  34   1    -0.00   0.01   0.01    -0.02  -0.02  -0.02     0.02   0.02   0.03
  35   1     0.02   0.00  -0.01    -0.10  -0.01   0.03     0.13   0.01  -0.04
  36   1    -0.01   0.01   0.01     0.04  -0.01  -0.04    -0.05   0.01   0.05
  37   1     0.00   0.00   0.00    -0.00  -0.01   0.01     0.00   0.01  -0.01
  38   1    -0.00   0.00  -0.00    -0.00  -0.00   0.03    -0.00   0.00  -0.03
  39   1     0.00   0.00  -0.00    -0.03  -0.02  -0.00     0.04   0.02   0.00
  40   1     0.00   0.00  -0.00     0.05   0.02  -0.05    -0.06  -0.03   0.07
  41   1    -0.00  -0.00   0.00    -0.03  -0.02  -0.01     0.03   0.03   0.01
                     46                     47                     48
                        a                      a                      a 
 Frequencies --   780.7661               788.3502               803.1441
 Red. masses --    20.3446                19.8524                 5.8482
 Frc consts  --     0.0000                 0.0000                 0.0000
 IR Inten    --   277.6672               293.9084                 4.2728
 Raman Activ --     0.0000                 0.0000                 0.0000
 Depolar     --     0.0000                 0.0000                 0.0000
 Atom AN      X      Y      Z        X      Y      Z        X      Y      Z
   1   6    -0.02  -0.05   0.02    -0.00  -0.01   0.00     0.00   0.00   0.00
   2   6     0.02  -0.05   0.16     0.00  -0.01   0.03    -0.00  -0.00   0.00
   3   8    -0.17   0.11   0.12    -0.03   0.02   0.02     0.00   0.00  -0.01
   4  15    -0.00  -0.42  -0.46     0.01  -0.07  -0.08     0.01  -0.04   0.01
   5  16    -0.08   0.18   0.10    -0.01   0.03   0.02     0.00  -0.00  -0.00
   6   8     0.14   0.23   0.41     0.02   0.03   0.07     0.00   0.01  -0.03
   7   6     0.13   0.10  -0.19     0.02   0.02  -0.03    -0.02  -0.00   0.02
   8   6     0.06   0.03  -0.04     0.01   0.00  -0.01    -0.01  -0.00   0.00
   9  16    -0.03   0.02  -0.01    -0.01  -0.01  -0.01    -0.08   0.13  -0.00
  10   6     0.01  -0.00   0.04    -0.04   0.01   0.05     0.39  -0.37   0.06
  11  16     0.01   0.01  -0.01     0.03  -0.01  -0.01    -0.08   0.13  -0.03
  12  15    -0.05  -0.07   0.05     0.17   0.40  -0.42     0.01  -0.02  -0.02
  13  16    -0.01   0.02  -0.02     0.05  -0.15   0.12     0.00  -0.01   0.01
  14   8     0.00   0.01  -0.01     0.06  -0.08   0.13     0.00   0.00   0.01
  15   6    -0.00  -0.00  -0.00     0.04   0.05   0.06     0.00   0.00   0.00
  16   6     0.00  -0.00  -0.00    -0.02   0.02   0.02     0.00   0.00  -0.00
  17   8     0.05   0.05  -0.08    -0.24  -0.22   0.45    -0.01   0.01   0.04
  18   6     0.02   0.02   0.04    -0.11  -0.11  -0.24    -0.02  -0.01  -0.02
  19   6     0.01   0.01   0.01    -0.06  -0.04  -0.06    -0.01  -0.00  -0.01
  20   1    -0.00   0.00  -0.04    -0.00   0.00  -0.01    -0.00  -0.00  -0.00
  21   1     0.05   0.05  -0.02     0.01   0.01  -0.00     0.00   0.00  -0.00
  22   1    -0.08  -0.07  -0.04    -0.01  -0.01  -0.01    -0.00   0.00   0.00
  23   1    -0.01  -0.01  -0.06    -0.00  -0.00  -0.01    -0.00  -0.00  -0.00
  24   1     0.11  -0.05   0.06     0.02  -0.01   0.01     0.00   0.00  -0.00
  25   1     0.00  -0.04   0.02     0.00  -0.01   0.00     0.00  -0.00   0.01
  26   1     0.01  -0.04  -0.11     0.00  -0.01  -0.02     0.00  -0.00  -0.00
  27   1     0.12   0.04   0.17     0.02   0.01   0.03    -0.01  -0.00  -0.01
  28   1    -0.07  -0.06   0.02    -0.01  -0.01   0.00     0.01   0.00   0.00
  29   1    -0.12  -0.06  -0.03    -0.02  -0.01  -0.01     0.00  -0.00  -0.00
  30   1    -0.00  -0.00   0.00     0.00   0.00   0.03    -0.12   0.10  -0.55
  31   1    -0.00  -0.01   0.01     0.01  -0.01  -0.01    -0.26   0.12   0.49
  32   1     0.00  -0.00  -0.00     0.03   0.09  -0.01    -0.00   0.00   0.00
  33   1    -0.00   0.00   0.00    -0.04  -0.02  -0.03     0.00  -0.00  -0.00
  34   1    -0.00   0.00   0.00    -0.02  -0.01  -0.02     0.00  -0.00  -0.00
  35   1     0.00   0.00  -0.00    -0.05  -0.00   0.01    -0.00  -0.00   0.00
  36   1     0.00   0.00  -0.00     0.03  -0.01  -0.03    -0.00  -0.00   0.00
  37   1    -0.00  -0.01   0.00    -0.00   0.03  -0.00     0.00   0.00  -0.01
  38   1    -0.00  -0.00   0.02     0.02   0.03  -0.09     0.00  -0.00   0.00
  39   1    -0.02  -0.01   0.00     0.13   0.08  -0.00     0.01   0.00   0.00
  40   1     0.03   0.01  -0.03    -0.16  -0.07   0.18    -0.01  -0.01   0.01
  41   1    -0.02  -0.01  -0.00     0.08   0.08   0.03     0.01   0.01  -0.00
                     49                     50                     51
                        a                      a                      a 
 Frequencies --   820.9280               822.1941               827.1065
 Red. masses --     3.1273                 3.0220                 2.1227
 Frc consts  --     0.0000                 0.0000                 0.0000
 IR Inten    --     5.0904                 0.3624                 4.2814
 Raman Activ --     0.0000                 0.0000                 0.0000
 Depolar     --     0.0000                 0.0000                 0.0000
 Atom AN      X      Y      Z        X      Y      Z        X      Y      Z
   1   6     0.05  -0.08  -0.04     0.03  -0.05  -0.02    -0.00   0.00   0.00
   2   6     0.16  -0.16  -0.08     0.10  -0.11  -0.05    -0.01   0.01   0.00
   3   8    -0.13   0.12   0.06    -0.09   0.08   0.04     0.00  -0.00   0.00
   4  15     0.06  -0.02  -0.06     0.04  -0.02  -0.05    -0.01  -0.01  -0.01
   5  16    -0.01   0.01   0.01    -0.01   0.01   0.01    -0.00   0.00   0.00
   6   8    -0.01   0.01   0.01    -0.01   0.01   0.01    -0.01   0.02   0.02
   7   6     0.01  -0.01  -0.00     0.01  -0.01  -0.01     0.03  -0.05  -0.01
   8   6     0.00  -0.01  -0.00     0.00  -0.01  -0.00     0.01  -0.02  -0.00
   9  16    -0.00   0.00   0.01    -0.00  -0.00   0.00     0.00  -0.00  -0.00
  10   6    -0.00  -0.01  -0.00     0.00   0.00  -0.00    -0.01   0.01   0.00
  11  16     0.00   0.00  -0.00     0.00  -0.00   0.00     0.00  -0.00  -0.00
  12  15     0.02  -0.01   0.05    -0.03   0.02  -0.07     0.02   0.02  -0.02
  13  16    -0.00   0.01  -0.01     0.00  -0.01   0.01     0.00  -0.00   0.00
  14   8    -0.06   0.08  -0.07     0.08  -0.11   0.10    -0.01   0.01  -0.00
  15   6     0.05  -0.10   0.10    -0.07   0.15  -0.16     0.01  -0.01   0.01
  16   6     0.04  -0.04   0.04    -0.05   0.05  -0.06     0.00  -0.00   0.00
  17   8     0.00   0.01  -0.01     0.00  -0.01   0.01     0.03  -0.09   0.05
  18   6     0.00  -0.00   0.00    -0.01   0.01  -0.01    -0.14   0.20  -0.04
  19   6     0.00  -0.00   0.00    -0.00   0.00  -0.00    -0.06   0.09  -0.02
  20   1     0.17   0.29   0.15     0.11   0.20   0.10    -0.01  -0.01  -0.00
  21   1    -0.32  -0.12   0.01    -0.21  -0.08   0.01     0.01   0.00  -0.00
  22   1    -0.11   0.04   0.07    -0.08   0.02   0.04     0.00  -0.00  -0.00
  23   1     0.20   0.22   0.27     0.13   0.14   0.18    -0.01  -0.01  -0.01
  24   1    -0.38  -0.05  -0.03    -0.25  -0.04  -0.02     0.01   0.00   0.00
  25   1    -0.02   0.01  -0.03    -0.01   0.01  -0.02    -0.06   0.03  -0.09
  26   1     0.00   0.02   0.03     0.00   0.02   0.02     0.02   0.06   0.09
  27   1    -0.00   0.01   0.00     0.00   0.01   0.00    -0.01   0.03   0.01
  28   1    -0.02   0.00  -0.02    -0.02   0.00  -0.02    -0.08   0.01  -0.07
  29   1     0.01   0.02   0.02     0.01   0.01   0.02     0.04   0.06   0.06
  30   1    -0.00  -0.00  -0.00     0.00   0.00   0.00     0.00   0.00   0.01
  31   1    -0.00  -0.00   0.00    -0.00  -0.00  -0.00     0.00  -0.00  -0.00
  32   1     0.17   0.12  -0.16    -0.25  -0.18   0.25     0.02   0.01  -0.02
  33   1    -0.25  -0.04  -0.04     0.39   0.07   0.06    -0.03  -0.01  -0.00
  34   1    -0.24   0.03   0.01     0.36  -0.05  -0.02    -0.02   0.00  -0.00
  35   1    -0.01   0.04  -0.08     0.02  -0.06   0.12    -0.00   0.00  -0.01
  36   1     0.17   0.05  -0.16    -0.25  -0.07   0.24     0.02   0.00  -0.02
  37   1    -0.01   0.00   0.01     0.02  -0.00  -0.02     0.32  -0.08  -0.35
  38   1     0.00   0.01  -0.01    -0.00  -0.01   0.02    -0.10  -0.29   0.37
  39   1     0.00   0.01  -0.01    -0.01  -0.01   0.01    -0.18  -0.29   0.25
  40   1    -0.00   0.00  -0.00    -0.00  -0.01   0.01     0.06  -0.14   0.03
  41   1    -0.01  -0.00   0.01     0.02   0.00  -0.01     0.37   0.01  -0.23
                     52                     53                     54
                        a                      a                      a 
 Frequencies --   827.9718               915.6803               917.8639
 Red. masses --     2.2829                13.7299                13.1481
 Frc consts  --     0.0000                 0.0000                 0.0000
 IR Inten    --     5.2631               421.2107               335.9572
 Raman Activ --     0.0000                 0.0000                 0.0000
 Depolar     --     0.0000                 0.0000                 0.0000
 Atom AN      X      Y      Z        X      Y      Z        X      Y      Z
   1   6     0.01  -0.01  -0.00    -0.08  -0.19   0.08    -0.00  -0.00   0.00
   2   6     0.02  -0.02  -0.01     0.14  -0.18   0.22     0.01  -0.00   0.00
   3   8    -0.02   0.01  -0.01     0.09   0.37  -0.45    -0.00   0.00  -0.00
   4  15     0.02   0.04   0.03    -0.20  -0.11   0.11    -0.00  -0.00  -0.00
   5  16     0.00  -0.01  -0.01     0.01  -0.01  -0.01    -0.00   0.00   0.00
   6   8     0.04  -0.10  -0.07     0.39   0.20  -0.08     0.00   0.00   0.00
   7   6    -0.13   0.22   0.03    -0.16  -0.05   0.18    -0.00  -0.00  -0.00
   8   6    -0.06   0.10   0.01    -0.14  -0.06   0.01     0.00   0.00  -0.00
   9  16     0.00  -0.00   0.00     0.00  -0.02   0.01    -0.00   0.00   0.00
  10   6    -0.01   0.01  -0.00    -0.01   0.01  -0.00     0.01  -0.01  -0.00
  11  16     0.00  -0.00   0.00    -0.00  -0.00   0.00    -0.00   0.02   0.01
  12  15     0.00   0.01  -0.01     0.00  -0.00  -0.00     0.17   0.13   0.11
  13  16     0.00  -0.00   0.00     0.00  -0.00   0.00    -0.00   0.00  -0.01
  14   8    -0.00   0.00   0.00    -0.00  -0.00  -0.00     0.00  -0.42  -0.38
  15   6    -0.00  -0.00   0.00    -0.00   0.00   0.00     0.08   0.29   0.08
  16   6    -0.00  -0.00   0.00     0.00  -0.00   0.00    -0.14   0.15   0.14
  17   8     0.01  -0.02   0.01     0.01   0.00   0.01    -0.35  -0.24  -0.12
  18   6    -0.03   0.05  -0.01    -0.00  -0.00  -0.01     0.11   0.07   0.20
  19   6    -0.01   0.02  -0.00    -0.00  -0.00  -0.00     0.12   0.07   0.03
  20   1     0.02   0.03   0.02     0.01   0.04  -0.04    -0.00   0.00  -0.00
  21   1    -0.03  -0.01   0.00     0.03   0.07  -0.03    -0.00  -0.00   0.00
  22   1    -0.01   0.00   0.01    -0.20  -0.17  -0.08    -0.00  -0.00  -0.00
  23   1     0.02   0.02   0.03     0.04  -0.01  -0.00     0.00   0.00   0.00
  24   1    -0.04  -0.00  -0.00     0.07   0.08  -0.01    -0.00  -0.00  -0.00
  25   1     0.24  -0.12   0.40    -0.01   0.01   0.02     0.00  -0.00   0.00
  26   1    -0.07  -0.28  -0.38     0.05   0.02   0.04    -0.00  -0.00  -0.00
  27   1     0.04  -0.15  -0.03    -0.12  -0.04  -0.15     0.00   0.00   0.00
  28   1     0.33  -0.04   0.29     0.04   0.03  -0.01    -0.00  -0.00   0.00
  29   1    -0.17  -0.25  -0.28     0.06   0.03   0.01    -0.00  -0.00  -0.00
  30   1     0.00  -0.00   0.01     0.00  -0.00   0.01    -0.01  -0.00  -0.01
  31   1     0.00  -0.00  -0.01     0.01   0.00  -0.01    -0.00   0.00   0.01
  32   1     0.00   0.00  -0.00     0.00   0.00  -0.00     0.09  -0.02  -0.06
  33   1    -0.00  -0.00  -0.00    -0.00   0.00   0.00     0.03   0.01  -0.04
  34   1    -0.00  -0.00  -0.00    -0.00   0.00   0.00     0.02  -0.05  -0.06
  35   1     0.00   0.00  -0.00    -0.00   0.00  -0.00    -0.31  -0.03   0.11
  36   1     0.00   0.00  -0.00     0.00   0.00  -0.00     0.05  -0.06  -0.05
  37   1     0.08  -0.02  -0.08     0.00   0.00  -0.00    -0.01  -0.01   0.03
  38   1    -0.02  -0.07   0.09     0.00   0.00  -0.00    -0.04  -0.02   0.03
  39   1    -0.04  -0.07   0.06     0.00   0.00   0.00    -0.05  -0.03  -0.01
  40   1     0.01  -0.03   0.01    -0.00  -0.00   0.00     0.13   0.07  -0.12
  41   1     0.09   0.00  -0.05     0.00   0.00   0.00    -0.04  -0.03  -0.01
                     55                     56                     57
                        a                      a                      a 
 Frequencies --   943.2290               944.4705              1033.5817
 Red. masses --    12.0716                12.2437                 8.2972
 Frc consts  --     0.0000                 0.0000                 0.0000
 IR Inten    --   133.8496               136.9542               168.3273
 Raman Activ --     0.0000                 0.0000                 0.0000
 Depolar     --     0.0000                 0.0000                 0.0000
 Atom AN      X      Y      Z        X      Y      Z        X      Y      Z
   1   6     0.02   0.04  -0.02    -0.07  -0.15   0.07     0.19   0.36  -0.11
   2   6    -0.03   0.02  -0.03     0.11  -0.08   0.12    -0.14  -0.48   0.22
   3   8    -0.03  -0.06   0.08     0.13   0.26  -0.31    -0.08   0.18  -0.19
   4  15    -0.01  -0.03  -0.05     0.02   0.09   0.17     0.00   0.00  -0.01
   5  16    -0.00   0.00   0.00     0.01  -0.01  -0.01    -0.00   0.00   0.00
   6   8     0.13   0.07  -0.02    -0.48  -0.25   0.08     0.05   0.01  -0.07
   7   6    -0.04  -0.01   0.06     0.12   0.03  -0.22    -0.19  -0.07   0.01
   8   6    -0.07  -0.03   0.00     0.24   0.10  -0.01     0.16   0.06   0.03
   9  16    -0.01   0.00  -0.01     0.01   0.00   0.02     0.00  -0.01   0.01
  10   6    -0.00  -0.01   0.02    -0.00  -0.02  -0.01    -0.00   0.00  -0.00
  11  16     0.02  -0.00  -0.02     0.00   0.00  -0.00     0.00  -0.00   0.00
  12  15     0.07   0.08  -0.16     0.02   0.02  -0.04    -0.00   0.00  -0.00
  13  16     0.01  -0.01   0.01     0.00  -0.00   0.00     0.00  -0.00   0.00
  14   8     0.04   0.27   0.27     0.01   0.07   0.07     0.00   0.01   0.01
  15   6    -0.08  -0.15  -0.01    -0.02  -0.04  -0.00     0.01  -0.02  -0.02
  16   6     0.13  -0.12  -0.12     0.04  -0.03  -0.03    -0.01   0.01   0.01
  17   8    -0.45  -0.31  -0.15    -0.12  -0.08  -0.04     0.00  -0.00   0.00
  18   6     0.09   0.06   0.24     0.02   0.01   0.06    -0.01  -0.00  -0.00
  19   6     0.21   0.13   0.04     0.06   0.03   0.01     0.01   0.00   0.00
  20   1    -0.00  -0.01   0.01     0.01   0.03  -0.04    -0.01  -0.07   0.08
  21   1    -0.01  -0.02   0.01     0.02   0.06  -0.03     0.03  -0.09   0.06
  22   1     0.04   0.03   0.02    -0.16  -0.14  -0.07     0.34   0.27   0.12
  23   1    -0.01   0.00  -0.00     0.03   0.00   0.00    -0.08  -0.20   0.04
  24   1    -0.01  -0.02   0.01     0.05   0.09  -0.02    -0.09  -0.17   0.07
  25   1     0.01   0.01   0.01    -0.04  -0.03  -0.04    -0.09  -0.03  -0.01
  26   1     0.02   0.01   0.01    -0.09  -0.04  -0.04    -0.07  -0.04  -0.01
  27   1    -0.06  -0.02  -0.07     0.20   0.08   0.25     0.11   0.05   0.14
  28   1     0.02   0.01  -0.00    -0.07  -0.05   0.01    -0.04  -0.03   0.02
  29   1     0.03   0.01   0.00    -0.10  -0.03   0.00    -0.04  -0.00   0.02
  30   1    -0.01  -0.01  -0.01    -0.00   0.00  -0.01    -0.00  -0.00   0.00
  31   1     0.00   0.01   0.01    -0.01  -0.01   0.01     0.00   0.00  -0.00
  32   1    -0.08   0.04   0.06    -0.02   0.01   0.02     0.01  -0.01  -0.01
  33   1    -0.04   0.01   0.03    -0.01   0.00   0.01     0.01  -0.00  -0.00
  34   1    -0.02   0.04   0.04    -0.01   0.01   0.01     0.00  -0.00  -0.00
  35   1     0.25   0.02  -0.09     0.07   0.01  -0.03    -0.02  -0.00   0.01
  36   1    -0.04   0.05   0.04    -0.01   0.02   0.01    -0.00  -0.01  -0.00
  37   1    -0.05  -0.04   0.03    -0.01  -0.01   0.01    -0.00  -0.00  -0.00
  38   1    -0.08  -0.04   0.03    -0.02  -0.01   0.01    -0.00  -0.00  -0.00
  39   1    -0.09  -0.04  -0.02    -0.02  -0.01  -0.00    -0.00  -0.00  -0.00
  40   1     0.22   0.11  -0.21     0.06   0.03  -0.06     0.01   0.00  -0.01
  41   1    -0.07  -0.06  -0.02    -0.02  -0.01  -0.01    -0.00  -0.00  -0.00
                     58                     59                     60
                        a                      a                      a 
 Frequencies --  1038.3770              1049.1137              1052.1961
 Red. masses --     8.4509                 9.5925                 9.7940
 Frc consts  --     0.0000                 0.0000                 0.0000
 IR Inten    --   212.2938                85.8913                74.3385
 Raman Activ --     0.0000                 0.0000                 0.0000
 Depolar     --     0.0000                 0.0000                 0.0000
 Atom AN      X      Y      Z        X      Y      Z        X      Y      Z
   1   6    -0.01  -0.02   0.00    -0.07  -0.13   0.03    -0.01  -0.01  -0.00
   2   6     0.01   0.02  -0.01     0.05   0.21  -0.09     0.01   0.01   0.00
   3   8     0.01  -0.01   0.01    -0.01  -0.12   0.12     0.00  -0.00  -0.00
   4  15    -0.00   0.00   0.00     0.01   0.01  -0.02    -0.00  -0.00   0.00
   5  16     0.00  -0.00  -0.00     0.00  -0.00  -0.00     0.00  -0.00   0.00
   6   8    -0.00  -0.00   0.00     0.25   0.09  -0.20    -0.00  -0.00   0.00
   7   6     0.01   0.00   0.00    -0.54  -0.21   0.01     0.01   0.00  -0.00
   8   6    -0.01  -0.00  -0.00     0.37   0.14   0.12    -0.00  -0.00  -0.00
   9  16     0.00  -0.00  -0.00    -0.01   0.00  -0.01    -0.00   0.00   0.00
  10   6    -0.00   0.00   0.00    -0.00   0.00   0.00     0.00  -0.00   0.00
  11  16     0.00  -0.01  -0.01     0.00  -0.00   0.00     0.01  -0.00  -0.01
  12  15     0.00   0.01  -0.01     0.00   0.00  -0.00    -0.01  -0.01  -0.03
  13  16    -0.00  -0.00   0.00    -0.00  -0.00   0.00    -0.00   0.00  -0.00
  14   8     0.02   0.22   0.11    -0.00   0.00   0.00     0.05   0.25   0.15
  15   6     0.20  -0.32  -0.25     0.00  -0.00  -0.00     0.16  -0.30  -0.21
  16   6    -0.20   0.18   0.18    -0.00   0.00   0.00    -0.15   0.14   0.14
  17   8     0.09   0.05   0.15     0.00   0.00   0.00    -0.17  -0.11  -0.20
  18   6    -0.33  -0.19  -0.07    -0.00  -0.00  -0.00     0.41   0.24   0.08
  19   6     0.26   0.15  -0.02     0.00   0.00   0.00    -0.29  -0.16   0.06
  20   1    -0.00   0.00  -0.00     0.00   0.02  -0.02    -0.00  -0.00   0.00
  21   1    -0.00   0.00  -0.00    -0.03   0.02  -0.02    -0.00  -0.00  -0.00
  22   1    -0.01  -0.01  -0.00    -0.11  -0.08  -0.03    -0.00  -0.00  -0.00
  23   1     0.00   0.01  -0.00     0.03   0.08  -0.02     0.00   0.00   0.00
  24   1     0.00   0.01  -0.00     0.03   0.04  -0.01     0.00   0.00  -0.00
  25   1     0.00   0.00   0.00    -0.20  -0.06  -0.04     0.00   0.00   0.00
  26   1     0.00   0.00   0.00    -0.17  -0.09  -0.04     0.00   0.00   0.00
  27   1    -0.01  -0.00  -0.01     0.22   0.10   0.28    -0.00  -0.00  -0.00
  28   1     0.00   0.00  -0.00    -0.05  -0.04   0.05     0.00   0.00  -0.00
  29   1     0.00  -0.00  -0.00    -0.05   0.01   0.07     0.00  -0.00  -0.00
[...]
  33   1     0.00   0.00  -0.00     0.00   0.00   0.00     0.00   0.00  -0.00
  34   1    -0.00  -0.00   0.00     0.00   0.00  -0.00    -0.00  -0.00   0.00
  35   1     0.00  -0.00  -0.00     0.00  -0.00  -0.00    -0.00  -0.00  -0.00
  36   1    -0.00  -0.00  -0.00     0.00  -0.00  -0.00     0.00   0.00   0.00
  37   1    -0.12   0.24  -0.16     0.00  -0.00   0.00     0.00  -0.00   0.00
  38   1     0.45  -0.65  -0.48    -0.00   0.00   0.00    -0.00   0.00   0.00
  39   1    -0.02   0.03   0.02     0.00  -0.00  -0.00     0.00  -0.00  -0.00
  40   1     0.01   0.00   0.01     0.00   0.00   0.00    -0.00  -0.00  -0.00
  41   1     0.00  -0.01   0.00     0.00  -0.00   0.00     0.00  -0.00   0.00
                    103                    104                    105
                        a                      a                      a 
 Frequencies --  2972.7693              2979.5761              2986.3328
 Red. masses --     1.4667                 1.7235                 2.0664
 Frc consts  --     0.0000                 0.0000                 0.0000
 IR Inten    --     0.3089                10.6787                10.9620
 Raman Activ --     0.0000                 0.0000                 0.0000
 Depolar     --     0.0000                 0.0000                 0.0000
 Atom AN      X      Y      Z        X      Y      Z        X      Y      Z
   1   6     0.00  -0.00  -0.00    -0.00  -0.00   0.00     0.00  -0.00   0.00
   2   6    -0.00   0.00   0.00    -0.00   0.00  -0.00    -0.00  -0.00  -0.00
   3   8     0.00  -0.00   0.00     0.00   0.00   0.00     0.00   0.00  -0.00
   4  15    -0.00   0.00  -0.00    -0.00   0.00  -0.00    -0.00   0.00  -0.00
   5  16     0.00   0.00  -0.00    -0.00   0.00   0.00    -0.00   0.00  -0.00
   6   8     0.00  -0.00   0.00    -0.00  -0.00   0.00     0.00  -0.00   0.00
   7   6     0.00  -0.00   0.00    -0.00   0.00  -0.00    -0.00   0.00  -0.00
   8   6     0.00  -0.00  -0.00     0.00  -0.00   0.00     0.00  -0.00   0.00
   9  16    -0.00  -0.00  -0.00     0.00   0.00   0.00     0.00  -0.00   0.00
  10   6     0.02   0.00  -0.20     0.00  -0.00  -0.00     0.24  -0.19   0.03
  11  16     0.00   0.00  -0.00     0.00  -0.00  -0.00     0.00  -0.00  -0.00
  12  15     0.00  -0.00  -0.00    -0.00  -0.00  -0.00    -0.00   0.00   0.00
  13  16    -0.00  -0.00  -0.00    -0.00  -0.00  -0.00    -0.00   0.00   0.00
  14   8    -0.00   0.00   0.00     0.00   0.01   0.01     0.00   0.00   0.00
  15   6    -0.00  -0.00   0.00     0.19   0.01   0.16    -0.00  -0.00  -0.00
  16   6    -0.00   0.00  -0.00    -0.02  -0.00  -0.03     0.00   0.00  -0.00
  17   8    -0.00   0.00   0.00     0.00   0.00   0.00     0.00  -0.00  -0.00
  18   6    -0.00  -0.00   0.00     0.00  -0.00  -0.00    -0.00   0.00   0.00
  19   6    -0.00   0.00  -0.00    -0.00   0.00   0.00     0.00  -0.00   0.00
  20   1    -0.00   0.00  -0.00     0.00  -0.00   0.00    -0.00   0.00   0.00
  21   1    -0.00   0.00   0.00     0.00  -0.00  -0.00     0.00  -0.00  -0.00
  22   1    -0.00   0.00  -0.00    -0.00   0.00  -0.00    -0.00   0.00  -0.00
  23   1     0.00  -0.00  -0.00     0.00  -0.00  -0.00     0.00  -0.00  -0.00
  24   1     0.00  -0.00  -0.00    -0.00   0.00   0.00    -0.00   0.00   0.01
  25   1     0.00  -0.00  -0.00     0.00   0.00  -0.00    -0.00   0.00   0.00
  26   1    -0.00   0.00  -0.00     0.00  -0.00   0.00     0.00  -0.00   0.00
  27   1    -0.00  -0.00   0.00     0.00  -0.00   0.00     0.00   0.00  -0.00
  28   1    -0.00   0.00   0.00    -0.00   0.00   0.00    -0.00   0.00   0.00
  29   1     0.00  -0.00   0.00    -0.00   0.00  -0.00    -0.00   0.00  -0.00
  30   1    -0.49   0.35   0.29    -0.00   0.00   0.00    -0.50   0.36   0.33
  31   1     0.42  -0.37   0.45    -0.00   0.00  -0.00    -0.36   0.32  -0.43
  32   1     0.00   0.00   0.00    -0.70  -0.06  -0.64     0.00   0.00   0.00
  33   1     0.00   0.00  -0.00     0.02  -0.02   0.04    -0.00   0.00  -0.00
  34   1    -0.00  -0.00   0.00    -0.01  -0.01   0.01     0.00  -0.00   0.00
  35   1    -0.00   0.00  -0.00    -0.00   0.02   0.00     0.00   0.00  -0.00
  36   1     0.00   0.00   0.00     0.10   0.01   0.10    -0.00  -0.00  -0.00
  37   1    -0.00   0.00  -0.00    -0.00   0.00  -0.00     0.00   0.00  -0.00
  38   1     0.00  -0.00  -0.00    -0.00   0.00   0.00     0.00  -0.00  -0.00
  39   1    -0.00  -0.00  -0.00     0.00  -0.00  -0.00    -0.00   0.00   0.00
  40   1     0.00   0.00  -0.00    -0.00  -0.00  -0.00     0.00   0.00   0.00
  41   1     0.00  -0.00   0.00     0.00  -0.00   0.00    -0.00   0.00  -0.00
                    106                    107                    108
                        a                      a                      a 
 Frequencies --  3019.1702              3034.5889              3043.8773
 Red. masses --     1.7546                 1.8274                 1.5401
 Frc consts  --     0.0000                 0.0000                 0.0000
 IR Inten    --    44.4487                37.8687                20.2774
 Raman Activ --     0.0000                 0.0000                 0.0000
 Depolar     --     0.0000                 0.0000                 0.0000
 Atom AN      X      Y      Z        X      Y      Z        X      Y      Z
   1   6    -0.00   0.00   0.00     0.08  -0.13  -0.22    -0.21   0.06  -0.01
   2   6     0.00  -0.00   0.00     0.01  -0.02  -0.03    -0.02   0.00   0.00
   3   8    -0.00   0.00   0.00     0.00   0.00  -0.00     0.00   0.00   0.00
   4  15     0.00  -0.00  -0.00    -0.00  -0.00  -0.00    -0.00   0.00  -0.00
   5  16    -0.00  -0.00   0.00     0.00   0.00  -0.00     0.00   0.00   0.00
   6   8    -0.00   0.00   0.00    -0.00  -0.00   0.00    -0.00  -0.00   0.00
   7   6     0.00  -0.00   0.00     0.00   0.00  -0.00     0.00   0.00  -0.00
   8   6    -0.00   0.00   0.00     0.00  -0.00  -0.00    -0.00  -0.00  -0.00
   9  16    -0.00   0.00  -0.00     0.00  -0.00   0.00     0.00  -0.00   0.00
  10   6     0.00   0.00   0.00     0.00  -0.00   0.00     0.00  -0.00   0.00
  11  16    -0.00  -0.00   0.00    -0.00   0.00  -0.00    -0.00  -0.00  -0.00
  12  15    -0.00   0.00   0.00    -0.00   0.00   0.00     0.00  -0.00  -0.00
  13  16     0.00  -0.00  -0.00     0.00  -0.00   0.00     0.00  -0.00   0.00
  14   8     0.00  -0.00  -0.00     0.00  -0.00  -0.00    -0.00   0.00   0.00
  15   6    -0.03   0.00  -0.03    -0.00   0.00  -0.00     0.00   0.00  -0.00
  16   6    -0.18   0.00  -0.19    -0.00  -0.00  -0.00     0.00   0.00   0.00
  17   8     0.00  -0.00  -0.00     0.00   0.00  -0.00    -0.00  -0.00   0.00
  18   6    -0.00   0.00   0.00     0.00  -0.00   0.00    -0.00  -0.00  -0.00
  19   6    -0.00   0.00  -0.00    -0.00  -0.00  -0.00    -0.00   0.00   0.00
  20   1     0.01  -0.00  -0.00    -0.20   0.09  -0.01     0.84  -0.41  -0.08
  21   1     0.00  -0.00  -0.00    -0.08   0.38   0.85    -0.05   0.10   0.21
  22   1    -0.00   0.00  -0.00     0.01   0.00  -0.05    -0.04   0.10  -0.09
  23   1    -0.00   0.00   0.00    -0.02   0.01   0.00     0.04  -0.02  -0.01
  24   1     0.00   0.00  -0.00    -0.01   0.03   0.08    -0.00   0.00   0.01
  25   1    -0.00   0.00   0.00     0.00  -0.00  -0.00    -0.00   0.00   0.00
  26   1    -0.00   0.00  -0.00     0.00  -0.00   0.00     0.00  -0.00   0.00
  27   1     0.00   0.00  -0.00     0.00   0.00  -0.00     0.00   0.00  -0.00
  28   1     0.00  -0.00  -0.00    -0.00   0.00   0.00    -0.00   0.00   0.00
  29   1     0.00  -0.00   0.00     0.00  -0.00  -0.00     0.00  -0.00   0.00
  30   1     0.00  -0.00  -0.00     0.00  -0.00  -0.00    -0.00   0.00   0.00
  31   1    -0.00   0.00  -0.00    -0.00   0.00  -0.00    -0.00   0.00  -0.00
  32   1     0.10   0.01   0.09     0.00   0.00   0.00     0.00   0.00   0.00
  33   1    -0.00  -0.01   0.01     0.00  -0.00   0.00    -0.00  -0.00  -0.00
  34   1    -0.03  -0.05   0.02     0.00   0.00  -0.00    -0.00  -0.00   0.00
  35   1    -0.02  -0.01  -0.03    -0.00  -0.00  -0.00    -0.00   0.00   0.00
  36   1     0.68   0.05   0.67     0.00   0.00   0.00    -0.00  -0.00  -0.00
  37   1    -0.00   0.00  -0.00    -0.00   0.00  -0.00    -0.00   0.00  -0.00
  38   1     0.00  -0.00  -0.00    -0.00   0.00  -0.00    -0.00   0.00   0.00
  39   1     0.00  -0.00  -0.00    -0.00   0.00   0.00     0.01  -0.01  -0.01
  40   1     0.00   0.00   0.00     0.00   0.00   0.00     0.00   0.00   0.00
  41   1     0.00  -0.00   0.00     0.00  -0.00   0.00     0.00  -0.00   0.00
                    109                    110                    111
                        a                      a                      a 
 Frequencies --  3049.0717              3051.8330              3053.7987
 Red. masses --     1.6088                 1.8942                 1.9147
 Frc consts  --     0.0000                 0.0000                 0.0000
 IR Inten    --    15.7160                23.7621                25.5572
 Raman Activ --     0.0000                 0.0000                 0.0000
 Depolar     --     0.0000                 0.0000                 0.0000
 Atom AN      X      Y      Z        X      Y      Z        X      Y      Z
   1   6     0.00   0.00  -0.00     0.00  -0.00   0.00    -0.00  -0.00   0.00
   2   6     0.00  -0.00  -0.00     0.00   0.00   0.00    -0.00   0.00   0.00
   3   8     0.00   0.00  -0.00    -0.00  -0.00   0.00     0.00  -0.00   0.00
   4  15    -0.00  -0.00   0.00     0.00  -0.00   0.00    -0.00   0.00  -0.00
   5  16     0.00  -0.00   0.00    -0.00  -0.00   0.00     0.00  -0.00  -0.00
   6   8     0.00   0.00   0.00    -0.00   0.00  -0.00    -0.00  -0.00   0.00
   7   6    -0.00   0.00   0.00     0.01  -0.02   0.01     0.00  -0.00   0.00
   8   6     0.00   0.00  -0.00     0.10  -0.25   0.08     0.00  -0.01   0.01
   9  16    -0.00   0.00  -0.00     0.00  -0.00   0.00     0.00  -0.00   0.00
  10   6    -0.00   0.00   0.00    -0.00   0.00   0.00    -0.00   0.00  -0.00
  11  16     0.00   0.00  -0.00     0.00  -0.00  -0.00     0.00  -0.00   0.00
  12  15     0.00   0.00  -0.00    -0.00   0.00  -0.00     0.00  -0.00   0.00
  13  16    -0.00   0.00  -0.00     0.00  -0.00   0.00    -0.00  -0.00  -0.00
  14   8    -0.00  -0.00   0.00     0.00  -0.00  -0.00     0.00  -0.00  -0.00
  15   6     0.00   0.01  -0.01    -0.00   0.00  -0.00    -0.00  -0.00  -0.00
  16   6     0.04   0.15  -0.17    -0.00   0.00  -0.00     0.00  -0.01  -0.01
  17   8    -0.00   0.00   0.00    -0.00  -0.00  -0.00    -0.00   0.00   0.00
  18   6     0.00  -0.00  -0.00    -0.00   0.00   0.00     0.01  -0.02  -0.00
  19   6     0.00   0.00   0.00    -0.01   0.01  -0.00     0.15  -0.24  -0.04
  20   1    -0.00   0.00   0.00     0.00  -0.00   0.00     0.01  -0.01  -0.00
  21   1    -0.00   0.00   0.00     0.00  -0.00  -0.00    -0.00   0.00   0.00
  22   1     0.00  -0.01   0.01    -0.00   0.01  -0.01    -0.00   0.01  -0.01
  23   1    -0.00   0.00   0.00    -0.00   0.00   0.00     0.00  -0.00  -0.00
  24   1    -0.00   0.00   0.00     0.00  -0.00  -0.00     0.00  -0.00  -0.00
  25   1     0.00  -0.00  -0.00    -0.01   0.02   0.01     0.00   0.00   0.00
  26   1    -0.00   0.00  -0.00    -0.01   0.04  -0.03    -0.00   0.00  -0.00
  27   1    -0.00  -0.00   0.00    -0.00  -0.04   0.02    -0.01  -0.00   0.00
  28   1     0.00  -0.00  -0.00    -0.13   0.26   0.23     0.01  -0.01  -0.01
  29   1     0.00  -0.00   0.00    -0.23   0.67  -0.52    -0.01   0.04  -0.03
  30   1     0.00  -0.00  -0.00     0.00  -0.00  -0.00     0.00  -0.00  -0.00
  31   1     0.00  -0.00   0.00     0.00  -0.00   0.00     0.00  -0.00   0.00
  32   1     0.01   0.00   0.01     0.00   0.00   0.00     0.00  -0.00   0.00
  33   1    -0.00  -0.03   0.03    -0.00  -0.00   0.00     0.00  -0.00  -0.00
  34   1    -0.10  -0.72   0.61    -0.00  -0.00   0.00    -0.00  -0.00  -0.00
  35   1    -0.01   0.16   0.06     0.00  -0.00  -0.00    -0.00   0.05   0.03
  36   1    -0.04   0.02  -0.07     0.00   0.00   0.00     0.00  -0.00   0.00
  37   1     0.00   0.00   0.00     0.00  -0.00   0.00    -0.01   0.02  -0.02
  38   1    -0.00   0.00   0.00     0.00  -0.00  -0.00    -0.02   0.03   0.02
  39   1     0.01  -0.01  -0.01     0.01  -0.02  -0.02    -0.39   0.60   0.46
  40   1    -0.01  -0.00  -0.01    -0.00   0.00  -0.00     0.01  -0.04  -0.02
  41   1     0.00   0.00   0.00     0.01  -0.02   0.02    -0.15   0.28  -0.29
                    112                    113                    114
                        a                      a                      a 
 Frequencies --  3055.2171              3056.3987              3057.0516
 Red. masses --     1.4623                 1.4562                 1.7643
 Frc consts  --     0.0000                 0.0000                 0.0000
 IR Inten    --    13.5756                13.8103                10.2865
 Raman Activ --     0.0000                 0.0000                 0.0000
 Depolar     --     0.0000                 0.0000                 0.0000
 Atom AN      X      Y      Z        X      Y      Z        X      Y      Z
   1   6    -0.00   0.00  -0.00     0.00  -0.01   0.00    -0.00   0.00  -0.00
   2   6     0.00  -0.00  -0.00     0.00  -0.00   0.00    -0.00  -0.00  -0.00
   3   8    -0.00  -0.00  -0.00    -0.00  -0.00   0.00    -0.00   0.00  -0.00
   4  15    -0.00  -0.00   0.00     0.00   0.00  -0.00     0.00  -0.00   0.00
   5  16     0.00   0.00   0.00    -0.00   0.00   0.00    -0.00   0.00   0.00
   6   8     0.00   0.00  -0.00    -0.00   0.00   0.00     0.00   0.00  -0.00
   7   6    -0.00   0.01   0.01     0.00   0.00   0.00    -0.00   0.00   0.00
   8   6    -0.03   0.11   0.17     0.00   0.00   0.01     0.00   0.00   0.00
   9  16     0.00   0.00   0.00    -0.00  -0.00   0.00     0.00   0.00   0.00
  10   6     0.00  -0.00  -0.00    -0.00   0.00  -0.00     0.00  -0.00   0.00
  11  16     0.00   0.00   0.00    -0.00  -0.00   0.00     0.00   0.00  -0.00
  12  15    -0.00  -0.00  -0.00     0.00   0.00  -0.00    -0.00   0.00  -0.00
  13  16     0.00   0.00   0.00    -0.00  -0.00   0.00     0.00   0.00  -0.00
  14   8     0.00   0.00   0.00    -0.00  -0.00   0.00    -0.00  -0.00   0.00
  15   6     0.00  -0.00  -0.00     0.00   0.00   0.00     0.00   0.01   0.00
  16   6     0.00  -0.01  -0.00    -0.00   0.07   0.03    -0.01   0.24   0.09
  17   8     0.00   0.00   0.00    -0.00  -0.00   0.00    -0.00   0.00   0.00
  18   6    -0.00   0.00  -0.00    -0.00  -0.01   0.01     0.00   0.00  -0.00
  19   6    -0.01   0.01  -0.01    -0.00  -0.09   0.16     0.01   0.02  -0.05
  20   1     0.00  -0.00  -0.00    -0.01   0.00   0.00     0.00  -0.00  -0.00
  21   1    -0.00   0.00   0.00     0.00  -0.00   0.00    -0.00  -0.00  -0.00
  22   1     0.00  -0.00   0.00    -0.00   0.02  -0.02     0.00  -0.00   0.00
  23   1    -0.00   0.00   0.00    -0.00   0.00   0.00    -0.00  -0.00   0.00
  24   1     0.00  -0.00   0.00     0.00  -0.00  -0.00    -0.00   0.00   0.00
  25   1     0.01  -0.03  -0.02     0.00  -0.00  -0.00     0.00  -0.00  -0.00
  26   1    -0.00   0.01  -0.00    -0.00   0.00  -0.00     0.00  -0.00   0.00
  27   1    -0.12  -0.03   0.10    -0.01  -0.00   0.01    -0.00  -0.00   0.00
  28   1     0.32  -0.66  -0.49     0.01  -0.03  -0.02     0.00  -0.01  -0.01
  29   1    -0.11   0.31  -0.20    -0.01   0.02  -0.01    -0.00   0.00  -0.00
  30   1    -0.00   0.00   0.00     0.00  -0.00  -0.00    -0.00   0.00   0.00
  31   1    -0.00   0.00  -0.00     0.00  -0.00   0.00    -0.00   0.00  -0.00
  32   1    -0.00  -0.00  -0.00    -0.00  -0.00  -0.00    -0.01  -0.00  -0.01
  33   1    -0.00  -0.00   0.00    -0.00  -0.00   0.00    -0.00  -0.01   0.01
  34   1     0.00   0.00  -0.00    -0.01  -0.03   0.03    -0.02  -0.09   0.11
  35   1    -0.00   0.02   0.01     0.02  -0.25  -0.14     0.07  -0.79  -0.44
  36   1    -0.00  -0.00  -0.00     0.00   0.01   0.00    -0.01   0.03  -0.00
  37   1     0.00  -0.00   0.00    -0.01   0.02  -0.02     0.00  -0.01   0.00
  38   1     0.00  -0.00  -0.00     0.00  -0.01  -0.00    -0.00   0.01   0.00
  39   1     0.01  -0.01  -0.01     0.19  -0.30  -0.20    -0.08   0.13   0.09
  40   1    -0.00  -0.00  -0.00     0.12   0.06   0.13    -0.05  -0.03  -0.06
  41   1     0.02  -0.04   0.03    -0.30   0.57  -0.50     0.09  -0.16   0.14
                    115                    116                    117
                        a                      a                      a 
 Frequencies --  3059.1303              3062.3077              3062.4767
 Red. masses --     1.8036                 1.8199                 1.8404
 Frc consts  --     0.0000                 0.0000                 0.0000
 IR Inten    --    13.5493                12.5374                 9.7313
 Raman Activ --     0.0000                 0.0000                 0.0000
 Depolar     --     0.0000                 0.0000                 0.0000
 Atom AN      X      Y      Z        X      Y      Z        X      Y      Z
   1   6     0.05  -0.19   0.19    -0.00  -0.00   0.00    -0.00   0.00   0.00
   2   6     0.00  -0.00   0.01    -0.00  -0.00  -0.00    -0.00   0.00   0.00
   3   8    -0.00   0.00  -0.00     0.00   0.00   0.00     0.00   0.00  -0.00
   4  15     0.00  -0.00  -0.00    -0.00  -0.00  -0.00    -0.00  -0.00  -0.00
   5  16    -0.00  -0.00  -0.00    -0.00   0.00   0.00    -0.00  -0.00  -0.00
   6   8    -0.00  -0.00   0.00    -0.00   0.00   0.00    -0.00   0.00   0.00
   7   6    -0.00   0.00  -0.00     0.00   0.00  -0.01     0.00   0.00  -0.00
   8   6    -0.00   0.00   0.00     0.19   0.07  -0.15     0.07   0.02  -0.05
   9  16    -0.00   0.00  -0.00     0.00   0.00   0.00    -0.00   0.00  -0.00
  10   6    -0.00   0.00  -0.00     0.00  -0.00   0.00    -0.00   0.00   0.00
  11  16     0.00  -0.00   0.00     0.00   0.00  -0.00    -0.00  -0.00   0.00
  12  15    -0.00   0.00  -0.00    -0.00  -0.00   0.00     0.00   0.00  -0.00
  13  16     0.00   0.00  -0.00     0.00   0.00  -0.00    -0.00  -0.00   0.00
  14   8     0.00  -0.00   0.00     0.00   0.00  -0.00    -0.00  -0.00   0.00
  15   6    -0.00  -0.00  -0.00    -0.00  -0.00   0.00     0.00   0.00   0.00
  16   6     0.00   0.00  -0.00    -0.00  -0.00  -0.00     0.00   0.01   0.00
  17   8     0.00  -0.00  -0.00     0.00   0.00  -0.00    -0.00  -0.00   0.00
  18   6    -0.00   0.00  -0.00     0.00   0.00   0.00    -0.00  -0.00  -0.01
  19   6    -0.00   0.00  -0.01     0.05   0.03   0.07    -0.15  -0.09  -0.19
  20   1    -0.10   0.03   0.03     0.00  -0.00  -0.00     0.00  -0.00  -0.00
  21   1     0.01  -0.04  -0.03    -0.00   0.00   0.00     0.00  -0.00  -0.00
  22   1    -0.09   0.68  -0.67    -0.00   0.00  -0.00     0.00  -0.00   0.00
  23   1    -0.01   0.01   0.00     0.00  -0.00  -0.00     0.00  -0.00  -0.00
  24   1     0.00  -0.01  -0.02    -0.00   0.00   0.00    -0.00  -0.00  -0.00
  25   1     0.00  -0.00  -0.00    -0.00   0.01   0.01    -0.00   0.00   0.00
  26   1     0.00  -0.00   0.00     0.00  -0.01   0.01     0.00  -0.00   0.00
  27   1     0.00   0.00  -0.00    -0.71  -0.30   0.46    -0.25  -0.10   0.16
  28   1     0.00  -0.00  -0.00    -0.02   0.10   0.05    -0.01   0.04   0.02
  29   1     0.00  -0.01   0.00     0.04  -0.05   0.02     0.02  -0.02   0.01
  30   1     0.00  -0.00  -0.00    -0.00   0.00  -0.00     0.00  -0.00  -0.00
  31   1     0.00  -0.00   0.00    -0.00   0.00  -0.00    -0.00   0.00  -0.00
  32   1     0.00   0.00   0.00     0.00   0.00   0.00    -0.00  -0.00  -0.00
  33   1    -0.00  -0.00   0.00     0.00   0.00  -0.00    -0.00  -0.00   0.00
  34   1    -0.00  -0.01   0.01     0.00   0.01  -0.01    -0.00  -0.01   0.01
  35   1    -0.00   0.01   0.00    -0.00   0.01   0.01     0.00  -0.01  -0.01
  36   1    -0.00   0.00  -0.00     0.00  -0.00   0.00    -0.00   0.00  -0.00
  37   1     0.00  -0.00   0.00    -0.00   0.00  -0.00     0.00  -0.01   0.01
  38   1    -0.00  -0.00   0.00     0.00  -0.00  -0.00    -0.01   0.01   0.01
  39   1    -0.00   0.01   0.00     0.02  -0.02  -0.01    -0.07   0.06   0.03
  40   1    -0.00   0.00  -0.00    -0.20  -0.13  -0.20     0.57   0.38   0.57
  41   1     0.01  -0.02   0.02    -0.01   0.04  -0.02     0.04  -0.12   0.07
