41
 energy: -2932.486754378235 gnorm: 0.001300061553 xtb: 6.7.1 (edcfbbe)
C            3.35220541461578       -1.93313848586735        2.13985638823916
C            2.11456297466739       -2.02122683403785        1.28242210640623
O            1.68426002879939       -0.69569138721093        0.81355457074362
P            2.40994822022930        0.06280018466730       -0.40385628754299
S            3.12767703623978       -1.05281163799366       -1.82611059939833
O            3.53959914260698        1.00783102227063        0.24074025213475
C            3.28623655059065        1.78267694858174        1.47213559448264
C            4.57195487873861        2.48442428769996        1.82116004378580
S            0.92527562938010        1.47369614198350       -0.96403328749183
C           -0.10608874661672        0.44310419826768       -2.08035135939663
S           -1.09451173696313       -0.89640129448737       -1.31038506711054
P           -2.55306063486863        0.23817632351177       -0.25602288513783
S           -3.21704253840166        1.81372672911011       -1.18023130557305
O           -1.95887521601056        0.61777799249994        1.18206206094736
C           -1.45703897184864       -0.41461635449458        2.10618148583287
C           -0.61245646373665        0.28302888147024        3.13956195969291
O           -3.59321677337159       -0.92592596738928        0.13114860336153
C           -4.50197891671310       -1.50647190092485       -0.86960519098166
C           -5.55993238065727       -2.27090169687057       -0.11866956666256
H            4.21583013970143       -1.57931622416686        1.56777109651912
H            3.19050873107040       -1.26839747628322        2.99299982574191
H            3.58413282462687       -2.93321346134504        2.52123311772839
H            1.25475768117368       -2.38487459105408        1.84922377662210
H            2.26263277540522       -2.66257294995808        0.40882922409657
H            2.47993451524173        2.49731922051922        1.27629866757593
H            2.97578920792138        1.08835959859030        2.25728280736507
H            4.41576069893362        3.07139040221697        2.73154516629620
H            5.37180206034324        1.76188751859016        2.00846581165344
H            4.87941542632051        3.16252235365571        1.02030663221193
H            0.53604704014443       -0.04637670228110       -2.81825463982810
H           -0.77749520060648        1.14346984831910       -2.58604996416010
H           -2.32405358092250       -0.91023306342871        2.55109698032769
H           -0.87505336394989       -1.14440512248905        1.53455001907963
H           -1.20684959104131        1.00295535480687        3.70949812526314
H           -0.21505019959190       -0.46405664625466        3.83378624923873
H            0.22906212779873        0.80362187020910        2.67338114028203
H           -4.93121902568956       -0.69126118942217       -1.46050996500465
H           -3.91462959809809       -2.15909228670374       -1.52276247103395
H           -6.14400131077112       -1.60343510867305        0.52112180438301
H           -6.23597185990201       -2.73860464868987       -0.84097671011010
H           -5.11346928313208       -3.05814441158715        0.49558372639739
41
 energy: -2932.486761535075 gnorm: 0.001249817563 xtb: 6.7.1 (edcfbbe)
C            3.35150620015799       -1.93051525174525        2.14108551612999
C            2.11254508995946       -2.01906183845830        1.28494407179728
O            1.68177343061664       -0.69486121836861        0.81302512907799
P            2.40802567230200        0.06164423301568       -0.40549771863750
S            3.12650279144496       -1.05395769047734       -1.82791220912098
O            3.53732695382532        1.00777869301661        0.23921620594188
C            3.28450861949464        1.78246773607606        1.47096094804040
C            4.57040301883868        2.48330601529950        1.82092493620283
S            0.92687378941412        1.47612847495821       -0.96590943561557
C           -0.10489844492905        0.44316522528487       -2.08052305033184
S           -1.09719852494004       -0.89592198929728       -1.31503226676626
P           -2.55216016939232        0.23824048214800       -0.25506367423957
S           -3.21386797449425        1.81306571749128       -1.18247196749172
O           -1.95689800414050        0.61597185182942        1.18334691921798
C           -1.45390913650478       -0.41693504988880        2.10715412453960
C           -0.60955318367316        0.28149475264993        3.14034291041325
O           -3.59236479739936       -0.92635448816551        0.13111147650833
C           -4.50209863353992       -1.50532297495853       -0.86978267686958
C           -5.56000367263424       -2.27063984656575       -0.11946778653430
H            4.21347932865703       -1.57595812577176        1.56733999331753
H            3.19111669437603       -1.26654999215212        2.99521200030675
H            3.58516111291819       -2.93018139320176        2.52218977394787
H            1.25311018185911       -2.38090212684075        1.85413275355461
H            2.25918256724025       -2.66279731268223        0.41212467879011
H            2.47862842236495        2.49747645429287        1.27534202173982
H            2.97350435298544        1.08809439814048        2.25585601233397
H            4.41569686894366        3.07013490690147        2.73148168185236
H            5.36947313671609        1.76030615937521        2.00731885064403
H            4.87832050810554        3.16145992614145        1.02042689214039
H            0.53621985448274       -0.04702472134703       -2.81902614869093
H           -0.77506276902794        1.14419607215103       -2.58725946668916
H           -2.32071618208591       -0.91297964462088        2.55256568038083
H           -0.87176155936318       -1.14607732814482        1.53446901037330
H           -1.20420382186353        1.00055247438315        3.71091416716259
H           -0.21135531040658       -0.46540640784883        3.83420251152581
H            0.23117287624448        0.80334932748989        2.67425921888402
H           -4.93124858503775       -0.68943419238514       -1.45974914099851
H           -3.91545311603172       -2.15747176070517       -1.52397489376843
H           -6.14291581567712       -1.60451668251990        0.52241108808236
H           -6.23728154758846       -2.73688049953123       -0.84144639915564
H           -5.11317546145866       -3.05907535162203        0.49257820978672
41
 energy: -2932.486774066305 gnorm: 0.001116699883 xtb: 6.7.1 (edcfbbe)
C            3.35040879932339       -1.92576147025101        2.14278563979104
C            2.10945055154854       -2.01550869837842        1.28894916543812
O            1.67946150993476       -0.69269354514305        0.81268330837841
P            2.40796171401241        0.06113514192976       -0.40647505343023
S            3.12543410036717       -1.05631018088776       -1.82784606154188
O            3.53716984623462        1.00771143949615        0.23907248441136
C            3.28290199999838        1.78242317540740        1.47036320095535
C            4.56908360153854        2.48192673031612        1.82128585499774
S            0.92571009911937        1.47272752995590       -0.96964485981571
C           -0.10749061771603        0.44228681418171       -2.08534853070120
S           -1.09658470812421       -0.89708418119380       -1.31711812223415
P           -2.55000953891182        0.23795389136293       -0.25559426203787
S           -3.21288529809037        1.81513541792830       -1.17823687630615
O           -1.95322754257684        0.61311657590722        1.18312952443548
C           -1.44896359444295       -0.42021639696092        2.10717068600454
C           -0.60510091688670        0.27885099903853        3.14053359655929
O           -3.59057033362611       -0.92680158329038        0.13013675902194
C           -4.50228367193550       -1.50325915890960       -0.87051735061083
C           -5.55968197838415       -2.26982405375166       -0.12050718012147
H            4.21033537741526       -1.57017088272808        1.56693209583511
H            3.19159262601370       -1.26271150943180        2.99805745630646
H            3.58615744692262       -2.92509941858710        2.52321369891752
H            1.25043256299695       -2.37412240886057        1.86141883330590
H            2.25373335182691       -2.66297660622179        0.41784713286549
H            2.47769023529030        2.49781011770697        1.27367938554051
H            2.97026278260573        1.08819325416941        2.25475773143311
H            4.41552221985593        3.06858956620242        2.73196574844938
H            5.36707144356623        1.75804984303820        2.00684322599753
H            4.87769053165448        3.16003716284010        1.02108291674840
H            0.53384368925172       -0.04819125430854       -2.82364566563200
H           -0.77712811772743        1.14404688592888       -2.59204004512048
H           -2.31544318482816       -0.91685120787251        2.55301645856062
H           -0.86652848888984       -1.14862129720291        1.53360812040532
H           -1.20039443507008        0.99649019084393        3.71208229499066
H           -0.20576505228614       -0.46793138890880        3.83384787654044
H            0.23468456300003        0.80248437735768        2.67484011944268
H           -4.93140895139502       -0.68606064213497       -1.45861472393345
H           -3.91692926792344       -2.15464920928618       -1.52657280406204
H           -6.14063778411529       -1.60553653685985        0.52477412680097
H           -6.23898083458221       -2.73336645125958       -0.84225877247349
H           -5.11229987513783       -3.06050479084993        0.48794220925282
41
 energy: -2932.486784312865 gnorm: 0.001630846955 xtb: 6.7.1 (edcfbbe)
C            3.34862282067202       -1.91667860998671        2.14490791380130
C            2.10449843741007       -2.00977841390976        1.29575417223209
O            1.67434483791019       -0.68960760378936        0.81290377700298
P            2.40351042533915        0.06107762787775       -0.40819344272885
S            3.12456481134047       -1.06289224177424       -1.82170705951018
O            3.53398227934678        1.00734632369662        0.23692222850712
C            3.27931946450071        1.78199356760700        1.46808634311080
C            4.56661284003737        2.47871473475898        1.82040251922155
S            0.92464219146973        1.47399020106121       -0.97790839919936
C           -0.10664774276632        0.44106376831980       -2.09312685442455
S           -1.09349505305309       -0.89603670146652       -1.31945255835574
P           -2.54700192582253        0.23585031712749       -0.25498619497283
S           -3.21073617107922        1.81772750313700       -1.16831572465733
O           -1.94782855714473        0.60798474839999        1.18354859618399
C           -1.44106539221355       -0.42589182025080        2.10670078334006
C           -0.59790643014587        0.27364398456771        3.14034053904819
O           -3.58892750100698       -0.92833013560269        0.12998793359153
C           -4.50296452276270       -1.49987200717206       -0.87134677903300
C           -5.55917314630014       -2.26843026713197       -0.12172083412884
H            4.20594207391004       -1.55934245479417        1.56619803685994
H            3.19129137163019       -1.25406924744371        3.00078855973014
H            3.58749532491674       -2.91580666936681        2.52412221876915
H            1.24697104084497       -2.36376507319025        1.87318487100999
H            2.24497156506475       -2.66319211941433        0.42864699661532
H            2.47562045509758        2.49887113160163        1.27036836493753
H            2.96415165245445        1.08829686919171        2.25193945806359
H            4.41353880296058        3.06448924748876        2.73179016274407
H            5.36321359678603        1.75293881355201        2.00543542458450
H            4.87684330005505        3.15736530603281        1.02116444531340
H            0.53486604318024       -0.04949551268314       -2.83118222176276
H           -0.77754961051667        1.14179807421261       -2.59946458709098
H           -2.30662799779987       -0.92404544452340        2.55227079681629
H           -0.85814384645983       -1.15248444470307        1.53176060578861
H           -1.19475232147240        0.98873502485048        3.71357636489796
H           -0.19614603535289       -0.47321884858290        3.83233284757451
H            0.24028948227776        0.80005614156223        2.67488510472069
H           -4.93227183336575       -0.67976235130747       -1.45530337253408
H           -3.91959572012633       -2.14936982458939       -1.53114542920168
H           -6.13668271514237       -1.60656910711042        0.52934425178402
H           -6.24164047767312       -2.72634102861141       -0.84418792474262
H           -5.11112154829238       -3.06365341774403        0.48057616338988
41
 energy: -2932.486793958660 gnorm: 0.001365647218 xtb: 6.7.1 (edcfbbe)
C            3.34680371076837       -1.90855694522020        2.14679744689294
C            2.10060025909162       -2.00469058652643        1.30152203663964
O            1.67052643866211       -0.68663658150071        0.81352121391031
P            2.40172859597356        0.06008410981646       -0.40875224809951
S            3.12065844673946       -1.06819415658421       -1.81981105517030
O            3.53227376903020        1.00715058393829        0.23515233699616
C            3.27663977949470        1.78240249251405        1.46560506582287
C            4.56481786943609        2.47666581167068        1.81980250559239
S            0.92473806658028        1.47220240617790       -0.98363917860542
C           -0.10941187352533        0.43893604459461       -2.09614491037810
S           -1.09573557584030       -0.89960012156522       -1.32410678393991
P           -2.54277034285214        0.23514071849835       -0.25352809813204
S           -3.20646201474015        1.81826951826178       -1.16471107506372
O           -1.94231906358275        0.60439779789971        1.18498300076050
C           -1.43462239655449       -0.43073211083757        2.10575472356100
C           -0.59224589517014        0.26833951100239        3.14012829339732
O           -3.58528807154616       -0.92927860519618        0.12966500184144
C           -4.50215312180168       -1.49626653682077       -0.87187500734995
C           -5.55742758708647       -2.26665851587277       -0.12291859605402
H            4.20241798180804       -1.55048502653923        1.56570529560255
H            3.19055451451062       -1.24496844065591        3.00194243869153
H            3.58793657543649       -2.90739867679406        2.52566065324742
H            1.24450270236227       -2.35517836446324        1.88250083792373
H            2.23820655533887       -2.66225932178692        0.43786936517845
H            2.47443866027629        2.50084511020992        1.26671400291942
H            2.95915880773410        1.08952033337146        2.24922093237146
H            4.41101094527686        3.06146513182152        2.73186926075105
H            5.36022415207936        1.74900558729818        2.00532019271686
H            4.87711051797291        3.15564803041923        1.02152747639926
H            0.53201603963950       -0.05143968961532       -2.83424884928535
H           -0.78001299704297        1.13933997790648       -2.60303744310717
H           -2.29948026304953       -0.93057479630484        2.55012819224811
H           -0.85104337053805       -1.15534863318616        1.52958506333489
H           -1.19043899294835        0.98127803974438        3.71483240047038
H           -0.18829698270406       -0.47889328071925        3.83058473185574
H            0.24462566506052        0.79699151302873        2.67474066140295
H           -4.93259518119395       -0.67333299630831       -1.45113442251545
H           -3.92113525622595       -2.14358143746265       -1.53599842705213
H           -6.13174143071638       -1.60663805627092        0.53322561656358
H           -6.24296877208135       -2.71907026969116       -0.84612419582453
H           -5.10937583397832       -3.06621693161915        0.47406679911519
41
 energy: -2932.486798606903 gnorm: 0.000878013146 xtb: 6.7.1 (edcfbbe)
C            3.34536337176103       -1.90273666284201        2.14860084649133
C            2.09861822994447       -2.00092202730817        1.30484185324562
O            1.66765130249202       -0.68464166689024        0.81306992377145
P            2.40085146213954        0.05827236818587       -0.40992135146710
S            3.11805976130947       -1.07245333472942       -1.82071036110101
O            3.53048139467657        1.00697717730550        0.23243101743282
C            3.27493065514034        1.78324812694785        1.46234073782588
C            4.56345669924196        2.47567732571591        1.81918387497471
S            0.92479454717184        1.47084275217504       -0.98445876240427
C           -0.10836916723294        0.43757574903662       -2.09782948356249
S           -1.09531893437159       -0.89948982184390       -1.32390404765011
P           -2.54120425812832        0.23468377830476       -0.25177771339558
S           -3.20241224894450        1.81816278175670       -1.16480683439219
O           -1.93861191850121        0.60191203973143        1.18598464050594
C           -1.43084072063896       -0.43440923897186        2.10429851586947
C           -0.58911464122006        0.26337823974053        3.14002401645324
O           -3.58389999989641       -0.92964926696520        0.13074830117961
C           -4.50232214483621       -1.49326407828523       -0.87116518954064
C           -5.55691476568639       -2.26568687129584       -0.12363672450919
H            4.19994637952166       -1.54550674265662        1.56542635864974
H            3.19032055229693       -1.23706480720099        3.00224356889597
H            3.58799389384873       -2.90049323849971        2.52922474139005
H            1.24349790228134       -2.34963040552290        1.88815809145064
H            2.23487497400593       -2.66082622878603        0.44295184044082
H            2.47428043741477        2.50313537765529        1.26238795850227
H            2.95536689670294        1.09135573303428        2.24591877481480
H            4.40888556341894        3.05995352302754        2.73147608612583
H            5.35750320827733        1.74676706403848        2.00582766796716
H            4.87824521221513        3.15454614309592        1.02191795631151
H            0.53212667901524       -0.05386158452586       -2.83600154208330
H           -0.77935078338980        1.13773185161337       -2.60456129888710
H           -2.29523618856957       -0.93589501895725        2.54776669262126
H           -0.84650716120485       -1.15752109459529        1.52700332754348
H           -1.18774167934171        0.97479739275094        3.71604780903028
H           -0.18378530447528       -0.48430770495127        3.82906712443701
H            0.24680173401021        0.79381389948614        2.67504333463084
H           -4.93355059074767       -0.66822339691002       -1.44679518237018
H           -3.92240596874828       -2.13813368821247       -1.53860966749215
H           -6.12887016089415       -1.60733563434340        0.53613350332743
H           -6.24456985281836       -2.71415317383319       -0.84719559906864
H           -5.10895628879966       -3.06804777242423        0.46947303306420
41
 energy: -2932.486798606903 gnorm: 0.000878013146 xtb: 6.7.1 (edcfbbe)
C            3.34536337176103       -1.90273666284201        2.14860084649133
C            2.09861822994447       -2.00092202730817        1.30484185324562
O            1.66765130249202       -0.68464166689024        0.81306992377145
P            2.40085146213954        0.05827236818587       -0.40992135146710
S            3.11805976130947       -1.07245333472942       -1.82071036110101
O            3.53048139467657        1.00697717730550        0.23243101743282
C            3.27493065514034        1.78324812694785        1.46234073782588
C            4.56345669924196        2.47567732571591        1.81918387497471
S            0.92479454717184        1.47084275217504       -0.98445876240427
C           -0.10836916723294        0.43757574903662       -2.09782948356249
S           -1.09531893437159       -0.89948982184390       -1.32390404765011
P           -2.54120425812832        0.23468377830476       -0.25177771339558
S           -3.20241224894450        1.81816278175670       -1.16480683439219
O           -1.93861191850121        0.60191203973143        1.18598464050594
C           -1.43084072063896       -0.43440923897186        2.10429851586947
C           -0.58911464122006        0.26337823974053        3.14002401645324
O           -3.58389999989641       -0.92964926696520        0.13074830117961
C           -4.50232214483621       -1.49326407828523       -0.87116518954064
C           -5.55691476568639       -2.26568687129584       -0.12363672450919
H            4.19994637952166       -1.54550674265662        1.56542635864974
H            3.19032055229693       -1.23706480720099        3.00224356889597
H            3.58799389384873       -2.90049323849971        2.52922474139005
H            1.24349790228134       -2.34963040552290        1.88815809145064
H            2.23487497400593       -2.66082622878603        0.44295184044082
H            2.47428043741477        2.50313537765529        1.26238795850227
H            2.95536689670294        1.09135573303428        2.24591877481480
H            4.40888556341894        3.05995352302754        2.73147608612583
H            5.35750320827733        1.74676706403848        2.00582766796716
H            4.87824521221513        3.15454614309592        1.02191795631151
H            0.53212667901524       -0.05386158452586       -2.83600154208330
H           -0.77935078338980        1.13773185161337       -2.60456129888710
H           -2.29523618856957       -0.93589501895725        2.54776669262126
H           -0.84650716120485       -1.15752109459529        1.52700332754348
H           -1.18774167934171        0.97479739275094        3.71604780903028
H           -0.18378530447528       -0.48430770495127        3.82906712443701
H            0.24680173401021        0.79381389948614        2.67504333463084
H           -4.93355059074767       -0.66822339691002       -1.44679518237018
H           -3.92240596874828       -2.13813368821247       -1.53860966749215
H           -6.12887016089415       -1.60733563434340        0.53613350332743
H           -6.24456985281836       -2.71415317383319       -0.84719559906864
H           -5.10895628879966       -3.06804777242423        0.46947303306420
