      -----------------------------------------------------------      
     |                   =====================                   |     
     |                           x T B                           |     
     |                   =====================                   |     
     |                         S. Grimme                         |     
     |          Mulliken Center for Theoretical Chemistry        |     
     |                    University of Bonn                     |     
      -----------------------------------------------------------      

   * xtb version 6.7.1 (edcfbbe) compiled by 'albert@albert-system' on 2024-07-22

   xtb is free software: you can redistribute it and/or modify it under
   the terms of the GNU Lesser General Public License as published by
   the Free Software Foundation, either version 3 of the License, or
   (at your option) any later version.
   
   xtb is distributed in the hope that it will be useful,
   but WITHOUT ANY WARRANTY; without even the implied warranty of
   MERCHANTABILITY or FITNESS FOR A PARTICULAR PURPOSE.  See the
   GNU Lesser General Public License for more details.
   
   Cite this work as:
   * C. Bannwarth, E. Caldeweyher, S. Ehlert, A. Hansen, P. Pracht,
     J. Seibert, S. Spicher, S. Grimme, WIREs Comput. Mol. Sci., 2020, 11,
     e01493. DOI: 10.1002/wcms.1493
   
   for GFN2-xTB:
   * C. Bannwarth, S. Ehlert and S. Grimme., J. Chem. Theory Comput., 2019,
     15, 1652-1671. DOI: 10.1021/acs.jctc.8b01176
   for GFN1-xTB:
   * S. Grimme, C. Bannwarth, P. Shushkov, J. Chem. Theory Comput., 2017,
     13, 1989-2009. DOI: 10.1021/acs.jctc.7b00118
   for GFN0-xTB:
   * P. Pracht, E. Caldeweyher, S. Ehlert, S. Grimme, ChemRxiv, 2019, preprint.
     DOI: 10.26434/chemrxiv.8326202.v1
   for GFN-FF:
   * S. Spicher and S. Grimme, Angew. Chem. Int. Ed., 2020, 59, 15665-15673.
     DOI: 10.1002/anie.202004239
   
   for ALPB and GBSA implicit solvation:
   * S. Ehlert, M. Stahn, S. Spicher, S. Grimme, J. Chem. Theory Comput.,
     2021, 17, 4250-4261. DOI: 10.1021/acs.jctc.1c00471
   
   for ddCOSMO and CPCM-X implicit solvation:
   * M. Stahn, S. Ehlert, S. Grimme, J. Phys. Chem. A,
     2023, XX, XXXX-XXXX. DOI: 10.1021/acs.jpca.3c04382
   
   for DFT-D4:
   * E. Caldeweyher, C. Bannwarth and S. Grimme, J. Chem. Phys., 2017,
     147, 034112. DOI: 10.1063/1.4993215
   * E. Caldeweyher, S. Ehlert, A. Hansen, H. Neugebauer, S. Spicher,
     C. Bannwarth and S. Grimme, J. Chem. Phys., 2019, 150, 154122.
     DOI: 10.1063/1.5090222
   * E. Caldeweyher, J.-M. Mewes, S. Ehlert and S. Grimme, Phys. Chem. Chem. Phys.
     2020, 22, 8499-8512. DOI: 10.1039/D0CP00502A
   
   for sTDA-xTB:
   * S. Grimme and C. Bannwarth, J. Chem. Phys., 2016, 145, 054103.
     DOI: 10.1063/1.4959605
   
   in the mass-spec context:
   * V. Asgeirsson, C. Bauer and S. Grimme, Chem. Sci., 2017, 8, 4879.
     DOI: 10.1039/c7sc00601b
   * J. Koopman and S. Grimme, ACS Omega 2019, 4, 12, 15120-15133.
     DOI: 10.1021/acsomega.9b02011
   
   for metadynamics refer to:
   * S. Grimme, J. Chem. Theory Comput., 2019, 155, 2847-2862
     DOI: 10.1021/acs.jctc.9b00143
   
   for SPH calculations refer to:
   * S. Spicher and S. Grimme, J. Chem. Theory Comput., 2021, 17, 1701-1714
     DOI: 10.1021/acs.jctc.0c01306
   
   for ONIOM refer to:
   * C. Plett, A. Katbashev, S. Ehlert, S. Grimme, M. Bursch,
     Phys. Chem. Chem. Phys., 2023, 25, 17860-17868. DOI: 10.1039/D3CP02178E
   
   for DIPRO refer to:
   * J. Kohn, N. Gildemeister, S. Grimme, D. Fazzi, A. Hansen,
     J. Chem. Phys., 2023, just accepted.
   
   for PTB refer to:
   * S. Grimme, M. Mueller, A. Hansen, J. Chem. Phys., 2023, 158, 124111.
     DOI: 10.1063/5.0137838
   
   with help from (in alphabetical order)
   P. Atkinson, C. Bannwarth, F. Bohle, G. Brandenburg, E. Caldeweyher
   M. Checinski, S. Dohm, S. Ehlert, S. Ehrlich, I. Gerasimov, C. Hölzer
   A. Katbashev, J. Kohn, J. Koopman, C. Lavigne, S. Lehtola, F. März, M. Müller,
   F. Musil, H. Neugebauer, J. Pisarek, C. Plett, P. Pracht, F. Pultar,
   J. Seibert, P. Shushkov, S. Spicher, M. Stahn, M. Steiner, T. Strunk,
   J. Stückrath, T. Rose, and J. Unsleber
   
 * started run on 2025/04/10 at 13:45:02.637     
   ID    Z sym.   atoms
    1    6 C      1, 2, 7, 8, 10, 15, 16, 18, 19
    2    8 O      3, 6, 14, 17
    3   15 P      4, 12
    4   16 S      5, 9, 11, 13
    5    1 H      20-41

           -------------------------------------------------
          |                Calculation Setup                |
           -------------------------------------------------

          program call               : /srv/scratch/z5358697/.xtb/bin/xtb xtb_opt.coord --opt normal --orca -I xtb_opt-xcontrol-inp
          hostname                   : k163
          coordinate file            : xtb_opt.coord
          omp threads                :                    24

           -------------------------------------------------
          |                   Orca driver                   |
           -------------------------------------------------
orca executable           : /apps/z_install_tree/linux-rocky8-ivybridge/gcc-12.2.0/orca-6.0.0-srtngmq3qlimg2qxbl6avaaiffipurdx/bin/orca
orca input file           : xtb_opt.inp
orca input line           : 
orca parallel             : true
orca number of threads    : 24
                         * ORCA takes the control...
  ------------------------------------------------------------------------

                                 *****************
                                 * O   R   C   A *
                                 *****************

                                            #,                                       
                                            ###                                      
                                            ####                                     
                                            #####                                    
                                            ######                                   
                                           ########,                                 
                                     ,,################,,,,,                         
                               ,,#################################,,                 
                          ,,##########################################,,             
                       ,#########################################, ''#####,          
                    ,#############################################,,   '####,        
                  ,##################################################,,,,####,       
                ,###########''''           ''''###############################       
              ,#####''   ,,,,##########,,,,          '''####'''          '####       
            ,##' ,,,,###########################,,,                        '##       
           ' ,,###''''                  '''############,,,                           
         ,,##''                                '''############,,,,        ,,,,,,###''
      ,#''                                            '''#######################'''  
     '                                                          ''''####''''         
             ,#######,   #######,   ,#######,      ##                                
            ,#'     '#,  ##    ##  ,#'     '#,    #''#        ,####,   ,####,        
            ##       ##  ##   ,#'  ##            #'  '#       #'       #'  '#        
            ##       ##  #######   ##           ,######,      #####,   #    #        
            '#,     ,#'  ##    ##  '#,     ,#' ,#      #,     #,   #   #,  ,#        
             '#######'   ##     ##  '#######'  #'      '#     '####' # '####'        



                #########################################################
                #                        -***-                          #
                #          Department of theory and spectroscopy        #
                #                                                       #
                #                      Frank Neese                      #
                #                                                       #
                #     Directorship, Architecture, Infrastructure        #
                #                    SHARK, DRIVERS                     #
                #        Core code/Algorithms in most modules           #
                #                                                       #
                #        Max Planck Institute fuer Kohlenforschung      #
                #                Kaiser Wilhelm Platz 1                 #
                #                 D-45470 Muelheim/Ruhr                 #
                #                      Germany                          #
                #                                                       #
                #                  All rights reserved                  #
                #                        -***-                          #
                #########################################################


                         Program Version 6.0.0  -   RELEASE  -


 With contributions from (in alphabetic order):
   Daniel Aravena         : Magnetic Suceptibility
   Michael Atanasov       : Ab Initio Ligand Field Theory (pilot matlab implementation)
   Alexander A. Auer      : GIAO ZORA, VPT2 properties, NMR spectrum
   Ute Becker             : All parallelization in ORCA, NUMFREQ, NUMCALC
   Giovanni Bistoni       : ED, misc. LED, open-shell LED, HFLD
   Martin Brehm           : Molecular dynamics
   Dmytro Bykov           : pre 5.0 version of the SCF Hessian
   Marcos Casanova-Páez   : Triplet and SCS-CIS(D). UHF-(DLPNO)-IP/EA/STEOM-CCSD. UHF-CVS-IP/STEOM-CCSD
   Vijay G. Chilkuri      : MRCI spin determinant printing, contributions to CSF-ICE
   Pauline Colinet        : FMM embedding
   Dipayan Datta          : RHF DLPNO-CCSD density
   Achintya Kumar Dutta   : EOM-CC, STEOM-CC
   Nicolas Foglia         : Exact transition moments, OPA infrastructure, MCD improvements
   Dmitry Ganyushin       : Spin-Orbit,Spin-Spin,Magnetic field MRCI
   Miquel Garcia          : C-PCM and meta-GGA Hessian, CCSD/C-PCM, Gaussian charge scheme
   Tiago L. C. Gouveia    : GS-ROHF, GS-ROCIS
   Yang Guo               : DLPNO-NEVPT2, F12-NEVPT2, CIM, IAO-localization
   Andreas Hansen         : Spin unrestricted coupled pair/coupled cluster methods
   Ingolf Harden          : AUTO-CI MPn and infrastructure 
   Benjamin Helmich-Paris : MC-RPA, TRAH-(SCF,CASSCF), AVAS, COSX integrals, SCF dyn. polar.
   Lee Huntington         : MR-EOM, pCC
   Robert Izsak           : Overlap fitted RIJCOSX, COSX-SCS-MP3, EOM
   Riya Kayal             : Wick's Theorem for AUTO-CI, AUTO-CI UHF-CCSDT
   Emily Kempfer          : AUTO-CI, RHF CISDT and CCSDT
   Christian Kollmar      : KDIIS, OOCD, Brueckner-CCSD(T), CCSD density, CASPT2, CASPT2-K, improved NEVPT2
   Axel Koslowski         : Symmetry handling
   Simone Kossmann        : Meta GGA functionals, TD-DFT gradient, OOMP2, (MP2 Hessian; deprecated post 5.0)
   Lucas Lang             : DCDCAS
   Marvin Lechner         : AUTO-CI (C++ implementation), FIC-MRCC
   Spencer Leger          : CASSCF response
   Dagmar Lenk            : GEPOL surface, SMD, ORCA-2-JSON
   Dimitrios Liakos       : Extrapolation schemes; Compound Job, initial MDCI parallelization
   Dimitrios Manganas     : Further ROCIS development; embedding schemes. LFT, Crystal Embedding
   Dimitrios Pantazis     : SARC Basis sets
   Anastasios Papadopoulos: AUTO-CI, single reference methods and gradients
   Taras Petrenko         : pre 6.0 DFT Hessian and TD-DFT gradient, (ASA, deprecated), ECA, 1-Electron XAS/XES, NRVS
   Peter Pinski           : DLPNO-MP2, DLPNO-MP2 Gradient
   Christoph Reimann      : Effective Core Potentials
   Marius Retegan         : Local ZFS, SOC
   Christoph Riplinger    : Optimizer, TS searches, QM/MM, DLPNO-CCSD(T), (RO)-DLPNO pert. Triples
   Michael Roemelt        : Original ROCIS implementation
   Masaaki Saitow         : Open-shell DLPNO-CCSD energy and density
   Barbara Sandhoefer     : DKH picture change effects
   Kantharuban Sivalingam : CASSCF convergence/infrastructure, NEVPT2 and variants, FIC-MRCI
   Bernardo de Souza      : ESD, SOC TD-DFT
   Georgi Stoychev        : AutoAux, RI-MP2 NMR, DLPNO-MP2 response, X2C
   Van Anh Tran           : RI-MP2 g-tensors
   Willem Van den Heuvel  : Paramagnetic NMR
   Zikuan Wang            : NOTCH, Electric field optimization 
   Frank Wennmohs         : Technical directorship and infrastructure
   Hang Xu                : AUTO-CI-Response properties 


 We gratefully acknowledge several colleagues who have allowed us to
 interface, adapt or use parts of their codes:
   Stefan Grimme, W. Hujo, H. Kruse, P. Pracht,  : VdW corrections, initial TS optimization,
                  C. Bannwarth, S. Ehlert,         DFT functionals, gCP, sTDA/sTD-DF
                  L. Wittmann, M. Mueller
   Ed Valeev, F. Pavosevic, A. Kumar             : LibInt (2-el integral package), F12 methods
   Garnet Chan, S. Sharma, J. Yang, R. Olivares  : DMRG
   Ulf Ekstrom                                   : XCFun DFT Library
   Mihaly Kallay                                 : mrcc  (arbitrary order and MRCC methods)
   Frank Weinhold                                : gennbo (NPA and NBO analysis)
   Simon Mueller                                 : openCOSMO-RS
   Christopher J. Cramer and Donald G. Truhlar   : smd solvation model
   Lars Goerigk                                  : TD-DFT with DH, B97 family of functionals
   V. Asgeirsson, H. Jonsson                     : NEB implementation
   FAccTs GmbH                                   : IRC, NEB, NEB-TS, DLPNO-Multilevel, CI-OPT
                                                   MM, QMMM, 2- and 3-layer-ONIOM, Crystal-QMMM,
                                                   LR-CPCM, SF, NACMEs, symmetry and pop. for TD-DFT,
                                                   nearIR, NL-DFT gradient (VV10), updates on ESD,
                                                   ML-optimized integration grids, MBIS, APM,
                                                   GOAT, DOCKER, SOLVATOR, interface openCOSMO-RS
   S Lehtola, MJT Oliveira, MAL Marques          : LibXC Library
   Liviu Ungur et al                             : ANISO software


 Your calculation uses the libint2 library for the computation of 2-el integrals
 For citations please refer to: http://libint.valeyev.net

 Your ORCA version has been built with support for libXC version: 6.2.2
 For citations please refer to: https://libxc.gitlab.io

 This ORCA versions uses:
   CBLAS   interface :  Fast vector & matrix operations
   LAPACKE interface :  Fast linear algebra routines
   SCALAPACK package :  Parallel linear algebra routines
   Shared memory     :  Shared parallel matrices
   BLAS/LAPACK       :  OpenBLAS 0.3.27  USE64BITINT DYNAMIC_ARCH NO_AFFINITY SapphireRapids SINGLE_THREADED
        Core in use  :  SapphireRapids
   Copyright (c) 2011-2014, The OpenBLAS Project




***************************************
The coordinates will be read from file: xtb_opt.xyz
***************************************


Your calculation utilizes the geometrical counterpoise correction gCP
Please cite in your paper:
H.Kruse, S. Grimme J.Chem.Phys., 136, (2012), 154101 
   

Your calculation utilizes the atom-pairwise dispersion correction
based on EEQ partial charges (D4)


Your calculation utilizes the SMD solvation module
Please cite in your paper:
A.V. Marenich, C.J. Cramer, D.G. Truhlar J. Phys. Chem. B, 113, (2009), 6378 

================================================================================

----- Orbital basis set information -----
Your calculation utilizes the basis: def2-mTZVPP
   Stefan Grimme, Andreas Hansen, Sebastian Ehlert, and Jan-Michael Mewes 
   J. Chem. Phys. 154, 064103 (2021). DOI: 10.1063/5.0040021

----- AuxJ basis set information -----
Your calculation utilizes the auxiliary basis: def2/J
   F. Weigend, Phys. Chem. Chem. Phys. 8, 1057 (2006).

================================================================================
                                        WARNINGS
                       Please study these warnings very carefully!
================================================================================

WARNING: Old DensityContainer found on disk!
         Will remove this file - 
         If you want to keep old densities, please start your calculation with a different basename. 

Using LibXC functional ID 497 : Re-regularized SCAN exchange by Furness et al
[ 1]  J. W. Furness, A. D. Kaplan, J. Ning, J. P. Perdew, and J. Sun.,  J. Phys. Chem. Lett. 11, 8208-8215 (2020)
[ 2]  J. W. Furness, A. D. Kaplan, J. Ning, J. P. Perdew, and J. Sun.,  J. Phys. Chem. Lett. 11, 9248-9248 (2020)
Using LibXC functional ID 498 : Re-regularized SCAN correlation by Furness et al
[ 1]  J. W. Furness, A. D. Kaplan, J. Ning, J. P. Perdew, and J. Sun.,  J. Phys. Chem. Lett. 11, 8208-8215 (2020)
[ 2]  J. W. Furness, A. D. Kaplan, J. Ning, J. P. Perdew, and J. Sun.,  J. Phys. Chem. Lett. 11, 9248-9248 (2020)
Using LibXC functional ID 497 : Re-regularized SCAN exchange by Furness et al
[ 1]  J. W. Furness, A. D. Kaplan, J. Ning, J. P. Perdew, and J. Sun.,  J. Phys. Chem. Lett. 11, 8208-8215 (2020)
[ 2]  J. W. Furness, A. D. Kaplan, J. Ning, J. P. Perdew, and J. Sun.,  J. Phys. Chem. Lett. 11, 9248-9248 (2020)
Using LibXC functional ID 498 : Re-regularized SCAN correlation by Furness et al
[ 1]  J. W. Furness, A. D. Kaplan, J. Ning, J. P. Perdew, and J. Sun.,  J. Phys. Chem. Lett. 11, 8208-8215 (2020)
[ 2]  J. W. Furness, A. D. Kaplan, J. Ning, J. P. Perdew, and J. Sun.,  J. Phys. Chem. Lett. 11, 9248-9248 (2020)

================================================================================
                                       INPUT FILE
================================================================================
NAME = xtb_opt.inp
|  1> ! r2scan-3c def2/J RI DEFGRID2 scfconv7 ENGRAD tightSCF miniprint
|  2> %cpcm
|  3>     smd true
|  4>     smdsolvent "water"
|  5> end
|  6> * xyzfile 0 1 xtb_opt.xyz
|  7> 
|  8>                          ****END OF INPUT****
================================================================================

                     *******************************
                     * Energy+Gradient Calculation *
                     *******************************

---------------------------------
CARTESIAN COORDINATES (ANGSTROEM)
---------------------------------
  C      4.351234   -2.408142    0.727790
  C      4.654909   -0.961036    0.430595
  O      3.516377   -0.084108    0.739207
  P      2.262057    0.112204   -0.251531
  S      2.580081   -0.102347   -2.161443
  O      1.707441    1.540831    0.234680
  C      2.153537    2.793069   -0.399188
  C      3.583085    3.128376   -0.053994
  S      0.840392   -1.195650    0.613967
  C     -0.380970   -1.328749   -0.752369
  S     -1.326402    0.189636   -1.194569
  P     -2.910852    0.138640    0.199611
  S     -4.128050    1.605475   -0.190970
  O     -2.245774    0.078439    1.664056
  C     -1.499161    1.240778    2.164358
  C     -0.961976    0.875816    3.523087
  O     -3.497828   -1.355049    0.234359
  C     -4.589717   -1.791139   -0.648318
  C     -4.116593   -2.063115   -2.054874
  H      5.270204   -2.988913    0.597161
  H      4.009430   -2.533380    1.759478
  H      3.594082   -2.810337    0.049045
  H      4.934265   -0.805919   -0.615781
  H      5.451089   -0.577974    1.072097
  H      2.001585    2.701132   -1.478901
  H      1.458254    3.535744   -0.003324
  H      3.727733    3.161953    1.029449
  H      4.284715    2.408823   -0.486487
  H      3.815491    4.116422   -0.464122
  H     -1.071416   -2.123367   -0.455282
  H      0.138719   -1.633935   -1.665125
  H     -0.693294    1.466216    1.458017
  H     -2.187317    2.090509    2.215492
  H     -1.774883    0.640644    4.215743
  H     -0.284751    0.019416    3.460664
  H     -0.404528    1.729169    3.921196
  H     -4.952487   -2.700203   -0.164981
  H     -5.378267   -1.033245   -0.619550
  H     -3.269632   -2.755907   -2.057918
  H     -4.939635   -2.523622   -2.611133
  H     -3.828545   -1.144216   -2.572027

----------------------------
CARTESIAN COORDINATES (A.U.)
----------------------------
  NO LB      ZA    FRAG     MASS         X           Y           Z
   0 C     6.0000    0    12.011    8.222640   -4.550729    1.375324
   1 C     6.0000    0    12.011    8.796503   -1.816095    0.813706
   2 O     8.0000    0    15.999    6.644989   -0.158940    1.396899
   3 P    15.0000    0    30.974    4.274668    0.212035   -0.475325
   4 S    16.0000    0    32.060    4.875647   -0.193407   -4.084535
   5 O     8.0000    0    15.999    3.226596    2.911749    0.443480
   6 C     6.0000    0    12.011    4.069595    5.278136   -0.754357
   7 C     6.0000    0    12.011    6.771050    5.911774   -0.102033
   8 S    16.0000    0    32.060    1.588112   -2.259450    1.160229
   9 C     6.0000    0    12.011   -0.719929   -2.510972   -1.421771
  10 S    16.0000    0    32.060   -2.506536    0.358359   -2.257408
  11 P    15.0000    0    30.974   -5.500713    0.261991    0.377210
  12 S    16.0000    0    32.060   -7.800884    3.033908   -0.360881
  13 O     8.0000    0    15.999   -4.243897    0.148228    3.144610
  14 C     6.0000    0    12.011   -2.833004    2.344730    4.090045
  15 C     6.0000    0    12.011   -1.817872    1.655053    6.657670
  16 O     8.0000    0    15.999   -6.609937   -2.560672    0.442874
  17 C     6.0000    0    12.011   -8.673308   -3.384763   -1.225143
  18 C     6.0000    0    12.011   -7.779233   -3.898722   -3.883149
  19 H     1.0000    0     1.008    9.959243   -5.648227    1.128471
  20 H     1.0000    0     1.008    7.576724   -4.787394    3.324931
  21 H     1.0000    0     1.008    6.791831   -5.310767    0.092682
  22 H     1.0000    0     1.008    9.324409   -1.522966   -1.163658
  23 H     1.0000    0     1.008   10.301064   -1.092213    2.025971
  24 H     1.0000    0     1.008    3.782447    5.104399   -2.794717
  25 H     1.0000    0     1.008    2.755701    6.681589   -0.006281
  26 H     1.0000    0     1.008    7.044395    5.975224    1.945377
  27 H     1.0000    0     1.008    8.096937    4.552015   -0.919328
  28 H     1.0000    0     1.008    7.210234    7.778911   -0.877064
  29 H     1.0000    0     1.008   -2.024682   -4.012583   -0.860359
  30 H     1.0000    0     1.008    0.262141   -3.087690   -3.146631
  31 H     1.0000    0     1.008   -1.310135    2.770746    2.755252
  32 H     1.0000    0     1.008   -4.133430    3.950489    4.186672
  33 H     1.0000    0     1.008   -3.354042    1.210642    7.966600
  34 H     1.0000    0     1.008   -0.538101    0.036691    6.539707
  35 H     1.0000    0     1.008   -0.764448    3.267656    7.409986
  36 H     1.0000    0     1.008   -9.358844   -5.102645   -0.311768
  37 H     1.0000    0     1.008  -10.163451   -1.952549   -1.170779
  38 H     1.0000    0     1.008   -6.178709   -5.207910   -3.888902
  39 H     1.0000    0     1.008   -9.334557   -4.768954   -4.934327
  40 H     1.0000    0     1.008   -7.234901   -2.162256   -4.860427

------------------------------------------------------------------------------
                   ___                                                        
                  /   \      - P O W E R E D   B Y -                         
                 /     \                                                     
                 |  |  |   _    _      __       _____    __    __             
                 |  |  |  | |  | |    /  \     |  _  \  |  |  /  |          
                  \  \/   | |  | |   /    \    | | | |  |  | /  /          
                 / \  \   | |__| |  /  /\  \   | |_| |  |  |/  /          
                |  |  |   |  __  | /  /__\  \  |    /   |      \           
                |  |  |   | |  | | |   __   |  |    \   |  |\   \          
                \     /   | |  | | |  |  |  |  | |\  \  |  | \   \       
                 \___/    |_|  |_| |__|  |__|  |_| \__\ |__|  \__/        
                                                                              
                      - O R C A' S   B I G   F R I E N D -                    
                                      &                                       
                       - I N T E G R A L  F E E D E R -                       
                                                                              
 v1 FN, 2020, v2 2021, v3 2022-2024                                           
------------------------------------------------------------------------------


----------------------
SHARK INTEGRAL PACKAGE
----------------------

Number of atoms                             ...     41
Number of basis functions                   ...    539
Number of shells                            ...    253
Maximum angular momentum                    ...      2
Integral batch strategy                     ... SHARK/LIBINT Hybrid
RI-J (if used) integral strategy            ... SPLIT-RIJ (Revised 2003 algorithm where possible)
Printlevel                                  ...      1
Contraction scheme used                     ... SEGMENTED contraction
Prescreening option                         ... SCHWARTZ
   Thresh                                   ... 3.000e-11
   Tcut                                     ... 1.000e-12
   Tpresel                                  ... 1.000e-12 
Coulomb Range Separation                    ... NOT USED
Exchange Range Separation                   ... NOT USED
Multipole approximations                    ... NOT USED
Finite Nucleus Model                        ... NOT USED
CABS basis                                  ... NOT available
Auxiliary Coulomb fitting basis             ... AVAILABLE
   # of basis functions in Aux-J            ...   1185
   # of shells in Aux-J                     ...    407
   Maximum angular momentum in Aux-J        ...      4
Auxiliary J/K fitting basis                 ... NOT available
Auxiliary Correlation fitting basis         ... NOT available
Auxiliary 'external' fitting basis          ... NOT available

Checking pre-screening integrals            ... done (  0.0 sec) Dimension = 253
Check shell pair data                       ... done (  0.0 sec)
Shell pair information
Shell pair cut-off parameter TPreSel        ...   1.0e-12
Total number of shell pairs                 ...     32131
Shell pairs after pre-screening             ...     21377
Total number of primitive shell pairs       ...    124843
Primitive shell pairs kept                  ...     50045
          la=0 lb=0:   6055 shell pairs
          la=1 lb=0:   7763 shell pairs
          la=1 lb=1:   2551 shell pairs
          la=2 lb=0:   2830 shell pairs
          la=2 lb=1:   1829 shell pairs
          la=2 lb=2:    349 shell pairs

Calculating one electron integrals          ... done (  0.1 sec)
Calculating RI/J V-Matrix + Cholesky decomp.... done (  0.1 sec)
Calculating Nuclear repulsion               ... done (  0.0 sec) ENN=   2693.844850686824 Eh

Diagonalization of the overlap matrix:
Smallest eigenvalue                        ... 3.106e-04
Time for diagonalization                   ...    0.034 sec
Threshold for overlap eigenvalues          ... 1.000e-07
Number of eigenvalues below threshold      ... 0
Time for construction of square roots      ...    0.057 sec
Total time needed                          ...    0.100 sec

-------------------
DFT GRID GENERATION
-------------------

General Integration Accuracy     IntAcc      ... 4.388
Radial Grid Type                 RadialGrid  ... OptM3 with GC (2021)
Angular Grid (max. ang.)         AngularGrid ... 4 (Lebedev-302)
Angular grid pruning method      GridPruning ... 4 (adaptive)
Weight generation scheme         WeightScheme... mBecke (2022)
Basis function cutoff            BFCut       ... 1.0000e-11
Integration weight cutoff        WCut        ... 1.0000e-14
Partially contracted basis set               ... off
Rotationally invariant grid construction     ... off
Angular grids for H and He will be reduced by one unit
Diffuse basis detected: some atoms will have their outermost
                        angular grid increased by 1.

Total number of grid points                  ...   192902
Total number of batches                      ...     3033
Average number of points per batch           ...       63
Average number of grid points per atom       ...     4705
Initializing property integral containers    ... done (  0.0 sec)

SHARK setup successfully completed in   3.1 seconds

Maximum memory used throughout the entire STARTUP-calculation: 102.4 MB
Occupation numbers will be reassigned to an Aufbau configuration
             **** ENERGY FILE WAS UPDATED (xtb_opt.en.tmp) ****
Finished Guess after   0.7 sec
Maximum memory used throughout the entire GUESS-calculation: 55.4 MB
--------------------
CPCM SOLVATION MODEL
--------------------
CPCM parameters:
  Epsilon                                         ...      78.3550
  Refrac                                          ...       1.3328
  Rsolv                                           ...       1.3000
  Surface type                                    ... GAUSSIAN VDW
  Discretization scheme                           ... Constant charge density
    Threshold for H atoms                         ...       5.0000 (charges/Ang^2)
    Threshold for non-H atoms                     ...       5.0000 (charges/Ang^2)
  Epsilon function type                           ...         CPCM
Solvent:                                          ... WATER
SMD-CDS solvent descriptors:
  Soln                                            ...       1.3328
  Soln25                                          ...       1.3323
  Sola                                            ...       0.0000
  Solb                                            ...       0.0000
  Solg                                            ...       0.0000
  Solc                                            ...       0.0000
  Solh                                            ...       0.0000
Radii:
  Scheme                                          ... Element-dependent radii
  Radius for C  used is    3.4960 Bohr (=   1.8500 Ang.)
  Radius for O  used is    2.8724 Bohr (=   1.5200 Ang.)
  Radius for P  used is    4.0062 Bohr (=   2.1200 Ang.)
  Radius for S  used is    4.7054 Bohr (=   2.4900 Ang.)
  Radius for H  used is    2.2677 Bohr (=   1.2000 Ang.)
Calculating surface                               ...        done! (  0.0s)
Cavity surface points                             ...         3477
Cavity Volume                                     ...    2823.6034
Cavity Surface-area                               ...    1423.1358
Calculating surface distance matrix               ...        done! (  0.1s)
Performing Cholesky decomposition & store         ...        done! (  0.5s)
Overall time for CPCM initialization              ...                 0.6s

----------------------------------------D-I-I-S--------------------------------------------
Iteration    Energy (Eh)           Delta-E    RMSDP     MaxDP     DIISErr   Damp  Time(sec)
-------------------------------------------------------------------------------------------
               ***  Starting incremental Fock matrix formation  ***
                              *** Initializing SOSCF ***
---------------------------------------S-O-S-C-F--------------------------------------
Iteration    Energy (Eh)           Delta-E    RMSDP     MaxDP     MaxGrad    Time(sec)
--------------------------------------------------------------------------------------
    1    -2932.5222965461225613     0.00e+00  4.14e-07  2.64e-05  1.75e-06    13.5
               *** Restarting incremental Fock matrix formation ***
    2    -2932.5222965479470076    -1.82e-09  5.04e-07  2.52e-05  4.10e-06    13.4
                  *** Gradient check signals convergence ***

               *****************************************************
               *                     SUCCESS                       *
               *           SCF CONVERGED AFTER   2 CYCLES          *
               *****************************************************


SMD CDS free energy correction energy :                 7.34330     Kcal/mol
Total Energy after SMD CDS correction =             -2932.510594261 Eh
             **** ENERGY FILE WAS UPDATED (xtb_opt.en.tmp) ****

----------------
TOTAL SCF ENERGY
----------------

Total Energy       :      -2932.51059426133543 Eh          -79797.67011 eV

Components:
Nuclear Repulsion  :       2693.84485068682443 Eh           73303.24505 eV
Electronic Energy  :      -5626.34018478191410 Eh         -153100.49991 eV
One Electron Energy:      -9409.64318883249871 Eh         -256049.40847 eV
Two Electron Energy:       3783.30300405058460 Eh          102948.90856 eV
CPCM Dielectric    :         -0.02696245285712 Eh              -0.73369 eV
SMD CDS (Gcds)     :          0.01170228661173 Eh               0.31844 eV

Virial components:
Potential Energy   :      -5855.61824442270699 Eh         -159339.47309 eV
Kinetic Energy     :       2923.10765016137202 Eh           79541.80299 eV
Virial Ratio       :          2.00321676285150

DFT components:
N(Alpha)           :      101.000225106833 electrons
N(Beta)            :      101.000225106833 electrons
N(Total)           :      202.000450213665 electrons
E(X)               :     -233.400012566740 Eh       
E(C)               :       -7.104382078799 Eh       
E(XC)              :     -240.504394645539 Eh       

CPCM Solvation Model Properties:
Surface-charge          :         -0.04653405601118
Corrected charge        :          0.00000000000000
Outlying charge corr.   :          0.00010940814575 Eh               0.00298 eV
Free-energy (cav+disp)  :          0.01170228661173 Eh               0.31844 eV

---------------
SCF CONVERGENCE
---------------

  Last Energy change         ...    1.8244e-09  Tolerance :   1.0000e-07
  Last MAX-Density change    ...    2.5228e-05  Tolerance :   1.0000e-07
  Last RMS-Density change    ...    5.0380e-07  Tolerance :   5.0000e-09
  Last DIIS Error            ...    3.4745e-05  Tolerance :   1.0000e-07
  Last Orbital Gradient      ...    4.1037e-06  Tolerance :   1.0000e-04
  Last Orbital Rotation      ...    1.1327e-05  Tolerance :   1.0000e-04


----------------
ORBITAL ENERGIES
----------------

  NO   OCC          E(Eh)            E(eV) 
   0   2.0000     -88.581913     -2410.4364 
   1   2.0000     -88.581909     -2410.4363 
   2   2.0000     -88.532755     -2409.0987 
   3   2.0000     -88.531381     -2409.0613 
   4   2.0000     -76.921315     -2093.1354 
   5   2.0000     -76.921110     -2093.1298 
   6   2.0000     -18.996003      -516.9075 
   7   2.0000     -18.994650      -516.8707 
   8   2.0000     -18.994330      -516.8620 
   9   2.0000     -18.992324      -516.8074 
  10   2.0000     -10.109662      -275.0979 
  11   2.0000     -10.093373      -274.6546 
  12   2.0000     -10.091998      -274.6172 
  13   2.0000     -10.091547      -274.6050 
  14   2.0000     -10.090869      -274.5865 
  15   2.0000     -10.022009      -272.7127 
  16   2.0000     -10.021790      -272.7068 
  17   2.0000     -10.021788      -272.7067 
  18   2.0000     -10.021550      -272.7002 
  19   2.0000      -7.875502      -214.3033 
  20   2.0000      -7.875313      -214.2982 
  21   2.0000      -7.827987      -213.0104 
  22   2.0000      -7.826687      -212.9750 
  23   2.0000      -6.599059      -179.5695 
  24   2.0000      -6.598968      -179.5670 
  25   2.0000      -5.822528      -158.4391 
  26   2.0000      -5.822462      -158.4373 
  27   2.0000      -5.819305      -158.3513 
  28   2.0000      -5.818719      -158.3354 
  29   2.0000      -5.812747      -158.1729 
  30   2.0000      -5.812739      -158.1727 
  31   2.0000      -5.775360      -157.1555 
  32   2.0000      -5.774019      -157.1190 
  33   2.0000      -5.768323      -156.9641 
  34   2.0000      -5.768114      -156.9584 
  35   2.0000      -5.767050      -156.9294 
  36   2.0000      -5.766813      -156.9230 
  37   2.0000      -4.744345      -129.1002 
  38   2.0000      -4.744337      -129.1000 
  39   2.0000      -4.744141      -129.0946 
  40   2.0000      -4.743848      -129.0867 
  41   2.0000      -4.743264      -129.0708 
  42   2.0000      -4.742718      -129.0559 
  43   2.0000      -1.043053       -28.3829 
  44   2.0000      -1.038981       -28.2721 
  45   2.0000      -1.001309       -27.2470 
  46   2.0000      -0.999900       -27.2087 
  47   2.0000      -0.793239       -21.5851 
  48   2.0000      -0.755723       -20.5643 
  49   2.0000      -0.742973       -20.2173 
  50   2.0000      -0.724027       -19.7018 
  51   2.0000      -0.722070       -19.6485 
  52   2.0000      -0.714957       -19.4550 
  53   2.0000      -0.696654       -18.9569 
  54   2.0000      -0.675582       -18.3835 
  55   2.0000      -0.627907       -17.0862 
  56   2.0000      -0.618850       -16.8398 
  57   2.0000      -0.595397       -16.2016 
  58   2.0000      -0.593440       -16.1483 
  59   2.0000      -0.585884       -15.9427 
  60   2.0000      -0.527247       -14.3471 
  61   2.0000      -0.515345       -14.0233 
  62   2.0000      -0.485769       -13.2184 
  63   2.0000      -0.483941       -13.1687 
  64   2.0000      -0.473313       -12.8795 
  65   2.0000      -0.452878       -12.3234 
  66   2.0000      -0.451100       -12.2751 
  67   2.0000      -0.448000       -12.1907 
  68   2.0000      -0.439181       -11.9507 
  69   2.0000      -0.429891       -11.6979 
  70   2.0000      -0.417843       -11.3701 
  71   2.0000      -0.407608       -11.0916 
  72   2.0000      -0.405984       -11.0474 
  73   2.0000      -0.402049       -10.9403 
  74   2.0000      -0.393769       -10.7150 
  75   2.0000      -0.384907       -10.4739 
  76   2.0000      -0.382406       -10.4058 
  77   2.0000      -0.367677       -10.0050 
  78   2.0000      -0.364206        -9.9105 
  79   2.0000      -0.356880        -9.7112 
  80   2.0000      -0.353848        -9.6287 
  81   2.0000      -0.352033        -9.5793 
  82   2.0000      -0.347036        -9.4433 
  83   2.0000      -0.343861        -9.3569 
  84   2.0000      -0.341884        -9.3031 
  85   2.0000      -0.329546        -8.9674 
  86   2.0000      -0.325364        -8.8536 
  87   2.0000      -0.319797        -8.7021 
  88   2.0000      -0.305937        -8.3250 
  89   2.0000      -0.304356        -8.2819 
  90   2.0000      -0.299492        -8.1496 
  91   2.0000      -0.289494        -7.8775 
  92   2.0000      -0.284944        -7.7537 
  93   2.0000      -0.280785        -7.6406 
  94   2.0000      -0.274914        -7.4808 
  95   2.0000      -0.253443        -6.8965 
  96   2.0000      -0.245385        -6.6773 
  97   2.0000      -0.234705        -6.3867 
  98   2.0000      -0.232047        -6.3143 
  99   2.0000      -0.227773        -6.1980 
 100   2.0000      -0.223716        -6.0876 
 101   0.0000      -0.047445        -1.2910 
 102   0.0000      -0.024299        -0.6612 
 103   0.0000      -0.017881        -0.4866 
 104   0.0000      -0.004624        -0.1258 
 105   0.0000       0.001901         0.0517 
 106   0.0000       0.011490         0.3127 
 107   0.0000       0.025160         0.6846 
 108   0.0000       0.029565         0.8045 
 109   0.0000       0.045840         1.2474 
 110   0.0000       0.057310         1.5595 
 111   0.0000       0.070938         1.9303 
*Only the first 10 virtual orbitals were printed.
Total SCF time: 0 days 0 hours 0 min 28 sec 
Finished LeanSCF after  28.7 sec

Maximum memory used throughout the entire LEANSCF-calculation: 139.2 MB


-------------------------------------------------------------------------------
                          DFT DISPERSION CORRECTION                            
                                                                               
                                DFTD4 V3.4.0                                   
-------------------------------------------------------------------------------
-------------------------   ----------------
Dispersion correction           -0.020606838
-------------------------   ----------------

------------------   -----------------
gCP correction             0.044888411
------------------   -----------------

-------------------------   --------------------
FINAL SINGLE POINT ENERGY     -2932.486312688075
-------------------------   --------------------

------------------------------------------------------------------------------
                         ORCA SCF GRADIENT CALCULATION
------------------------------------------------------------------------------

Nuc. rep. gradient        (SHARK) ... done (  0.0 sec)
HCore & Overlap gradient  (SHARK) ... done (  2.0 sec)
Split-RIJ-J gradient      (SHARK) ... done (  9.2 sec)
XC gradient                       ... done ( 21.7 sec)
CPCM gradient                     ... done (  7.8 sec)
SMD gradient                      ... done (  0.0 sec)
Dispersion correction             ... done (  0.0 sec)

-------------------
DISPERSION GRADIENT
-------------------

   1   C   :    0.000093043   -0.000101459    0.000045067
   2   C   :    0.000116671   -0.000065164    0.000026450
   3   O   :    0.000105802   -0.000027362    0.000048466
   4   P   :    0.000176674   -0.000018287   -0.000097791
   5   S   :    0.000103217   -0.000029076   -0.000292791
   6   O   :    0.000071718    0.000117103   -0.000007379
   7   C   :    0.000055082    0.000154775   -0.000033906
   8   C   :    0.000068844    0.000140561    0.000007084
   9   S   :    0.000054814   -0.000239180    0.000043162
  10   C   :    0.000017285   -0.000122769   -0.000071809
  11   S   :   -0.000099520    0.000022840   -0.000198270
  12   P   :   -0.000231578    0.000071801    0.000006282
  13   S   :   -0.000205618    0.000219548   -0.000032121
  14   O   :   -0.000057841    0.000027889    0.000111228
  15   C   :   -0.000059704    0.000079727    0.000142590
  16   C   :   -0.000008412    0.000036288    0.000187449
  17   O   :   -0.000104422   -0.000068873    0.000012308
  18   C   :   -0.000111177   -0.000070501   -0.000021744
  19   C   :   -0.000083630   -0.000084341   -0.000089635
  20   H   :    0.000031764   -0.000033819    0.000011009
  21   H   :    0.000037110   -0.000038015    0.000029905
  22   H   :    0.000043664   -0.000052103    0.000014373
  23   H   :    0.000050029   -0.000026046   -0.000003084
  24   H   :    0.000052395   -0.000019194    0.000029650
  25   H   :    0.000018680    0.000058170   -0.000026789
  26   H   :    0.000017850    0.000078452   -0.000001929
  27   H   :    0.000023470    0.000057222    0.000017376
  28   H   :    0.000026285    0.000057679   -0.000000478
  29   H   :    0.000017237    0.000046184    0.000000723
  30   H   :    0.000010722   -0.000059316   -0.000005347
  31   H   :    0.000012488   -0.000040194   -0.000044007
  32   H   :   -0.000028091    0.000034479    0.000063830
  33   H   :   -0.000023090    0.000037873    0.000051305
  34   H   :    0.000002870    0.000006664    0.000053119
  35   H   :   -0.000007752    0.000002232    0.000085917
  36   H   :   -0.000003125    0.000019203    0.000061051
  37   H   :   -0.000037110   -0.000044697    0.000004018
  38   H   :   -0.000042977   -0.000017619   -0.000004063
  39   H   :   -0.000037868   -0.000053374   -0.000039223
  40   H   :   -0.000027032   -0.000031275   -0.000032310
  41   H   :   -0.000038767   -0.000026026   -0.000049687

Difference to translation invariance:
           :    0.0000000000   -0.0000000000    0.0000000000

Difference to rotation invariance:
           :    0.0000000000    0.0000000000   -0.0000000000

Norm of the Dispersion gradient    ...    0.0008810211
RMS gradient                       ...    0.0000794390
MAX gradient                       ...    0.0002927910
gCP correction                   ... done

------------------
CARTESIAN GRADIENT
------------------

   1   C   :    0.000014055   -0.000026773   -0.000043122
   2   C   :    0.000006910   -0.000038054   -0.000002555
   3   O   :    0.000021455    0.000017441    0.000046695
   4   P   :    0.000098814   -0.000020248    0.000079123
   5   S   :   -0.000057687   -0.000043198   -0.000026914
   6   O   :   -0.000058245   -0.000054588    0.000086916
   7   C   :    0.000184602    0.000183734   -0.000122698
   8   C   :   -0.000150397    0.000003602   -0.000073386
   9   S   :    0.000112873    0.000127579   -0.000088920
  10   C   :   -0.000011933   -0.000071073   -0.000044704
  11   S   :   -0.000023012   -0.000038670    0.000076920
  12   P   :   -0.000040580    0.000158523   -0.000163442
  13   S   :   -0.000020998    0.000013569    0.000039385
  14   O   :    0.000033310   -0.000014684    0.000072070
  15   C   :    0.000037387    0.000017624    0.000049478
  16   C   :   -0.000080739    0.000019937    0.000031939
  17   O   :    0.000013847   -0.000057430    0.000033327
  18   C   :   -0.000045848    0.000047041   -0.000047488
  19   C   :    0.000022053    0.000021019   -0.000004147
  20   H   :    0.000013705    0.000036070    0.000060541
  21   H   :   -0.000034078    0.000021983    0.000049263
  22   H   :    0.000048125   -0.000018743    0.000016266
  23   H   :   -0.000010930   -0.000026750    0.000032606
  24   H   :   -0.000003362   -0.000006501   -0.000010188
  25   H   :    0.000020819   -0.000022521    0.000082603
  26   H   :    0.000041467   -0.000053483    0.000008392
  27   H   :   -0.000025747    0.000028750   -0.000094762
  28   H   :   -0.000044100    0.000068030   -0.000031583
  29   H   :   -0.000071025   -0.000163101    0.000038368
  30   H   :   -0.000029996   -0.000003846   -0.000003524
  31   H   :   -0.000000322   -0.000017822    0.000012148
  32   H   :   -0.000023300   -0.000033946    0.000007842
  33   H   :   -0.000002384   -0.000033025    0.000010447
  34   H   :    0.000036727    0.000004393   -0.000025535
  35   H   :    0.000023726   -0.000051755   -0.000007043
  36   H   :   -0.000009649   -0.000030232   -0.000011461
  37   H   :   -0.000020866    0.000014482   -0.000020104
  38   H   :    0.000042639   -0.000003476   -0.000008752
  39   H   :    0.000000522    0.000037169   -0.000005715
  40   H   :    0.000010105   -0.000012379    0.000014875
  41   H   :   -0.000017942    0.000021352   -0.000013159

Difference to translation invariance:
           :    0.0000000000   -0.0000000000   -0.0000000000

Difference to rotation invariance:
           :   -0.0002898179   -0.0005223099   -0.0006565295

Norm of the Cartesian gradient     ...    0.0006222929
RMS gradient                       ...    0.0000561103
MAX gradient                       ...    0.0001846015

-------
TIMINGS
-------

Total SCF gradient time     ....       46.697 sec

Densities                   ....       0.007 sec  (  0.0%)
One electron gradient       ....       1.987 sec  (  4.3%)
RI-J Coulomb gradient       ....       9.200 sec  ( 19.7%)
XC gradient                 ....      21.746 sec  ( 46.6%)
CPCM gradient               ....       7.842 sec  ( 16.8%)
   A-Matrix (El+Nuc)        ....       0.268 sec  (  0.6%)
   Potential                ....       7.573 sec  ( 16.2%)
SMD gradient                ....       0.022 sec  (  0.0%)

Maximum memory used throughout the entire SCFGRAD-calculation: 84.7 MB

------------------------------------------------------------------------------
                              ORCA PROPERTY CALCULATIONS
------------------------------------------------------------------------------

GBWName                                 ... xtb_opt.gbw
Number of atoms                         ...     41
Number of basis functions               ...    539
Max core memory                         ...   1024 MB

Electric properties:
Dipole moment                           ... YES
Quadrupole moment                       ...  NO
Static polarizability (Dipole/Dipole)   ...  NO
Static polarizability (Dipole/Quad.)    ...  NO
Static polarizability (Quad./Quad.)     ...  NO
Static polarizability (Velocity)        ...  NO

Atomic electric properties:
Dipole moment                           ...  NO
Quadrupole moment                       ...  NO
Static polarizability                   ...  NO

Choice of electric origin               ... Center of mass
Position of electric origin             ...    -0.222534     0.091613    -0.038206

General magnetic properties:
Magnetizability                         ...  NO

EPR properties:
g-Tensor (aka g-matrix)                 ...  NO
Zero-Field splitting spin-orbit         ...  NO
Zero-field splitting spin-spin          ...  NO
Hyperfine couplings                     ...  NO (   0 nuclei)
Quadrupole couplings                    ...  NO (   0 nuclei)
Contact density                         ...  NO (   0 nuclei)

NMR properties:
Chemical shifts                         ...  NO (   0 nuclei)
Spin-rotation constants                 ...  NO (   0 nuclei)
Spin-spin couplings                     ...  NO (   0 nuclei,    0 pairs)

Choice of magnetic origin               ... GIAO
Position of magnetic origin             ...     0.000000     0.000000     0.000000

Properties with geometric perturbations:
SCF Hessian                             ...  NO
IR spectrum                             ...  NO
VCD spectrum                            ...  NO
X-ray spectroscopy properties:
SCF XES/XAS/RIXS spectra                ...  NO


-------------
DIPOLE MOMENT
-------------

Method             : SCF
Type of density    : Electron Density
Multiplicity       :   1
Irrep              :   0
Energy             : -2932.5105942613354273 Eh
Relativity type    : 
Basis              : AO
                                X                 Y                 Z
Electronic contribution:    -10.522974721       1.793513345      -6.156821355
Nuclear contribution   :     12.133041421      -2.799203867       6.730480294
                        -----------------------------------------
Total Dipole Moment    :      1.610066700      -1.005690522       0.573658939
                        -----------------------------------------
Magnitude (a.u.)       :      1.983132064
Magnitude (Debye)      :      5.040721113



--------------------
Rotational spectrum 
--------------------
 
Rotational constants in cm-1:             0.012298             0.004411             0.004160 
Rotational constants in MHz :           368.684991           132.233549           124.708854 

Dipole components along the rotational axes: 
x,y,z [a.u.] :     1.570488    -0.634440     1.031439 
x,y,z [Debye]:     3.991863    -1.612619     2.621710 

 

Dipole moment calculation done in   0.1 sec 

Maximum memory used throughout the entire PROP-calculation: 51.7 MB

--------------------------------
SUGGESTED CITATIONS FOR THIS RUN
--------------------------------

Below you find a list of papers that are relevant to this ORCA run
We neither can nor want to force you to cite these papers, but we appreciate if you do
You receive ORCA, which is the product of decades of hard work by many enthusiastic individuals, for free
The only thing we kindly ask in return is that you cite our papers,
We deeply appreciate it, if you show your appreciation for ORCA by not just citing the generic ORCA reference.

Please note that relegating all ORCA citations to the supporting information does *not* help us.
SI sections are not indexed - citations you put there will not count into any citation statistics
But we need these citations in order to attract the funding resources that allow us to do what we are doing

Therefore, if you are a happy ORCA user, please consider citing a few of the papers listed below in the main body of your paper

In addition to the list printed below, the program has created the file xtb_opt.bibtex that contains the list in bibtex format
You can import this file easily into all common literature databanks and citation aid programs


List of essential papers. We consider these as the minimum necessary citations

  1. Neese,F.
     Software update: the ORCA program system, version 5.0
     WIRES Comput. Molec. Sci., 2022 12(1)e1606
     doi.org/10.1002/wcms.1606
  2. Grimme,S.; Hansen,A.; Ehlert,S.; Mewes,J.
     r2SCAN-3c: A 'Swiss army knife' composite electronic-structure method
     J. Chem. Phys., 2021 154 064103
     doi.org/10.1063/5.0040021

List of papers to cite with high priority. The work reported in these papers was absolutely
necessary for this run to complete.
Our perspective: the developers of density functionals and basis sets usually get cited in chemistry papers
Good! But without the algorithms to do something with them, the functionals or basis sets would not do anything.
Hence, in our opinion, the algorithm design and method developments papers are equally worthy of getting cited

  1. Neese,F.
     An improvement of the resolution of the identity approximation for the formation of the Coulomb matrix
     J. Comp. Chem., 2003 24(14)1740-1747
     doi.org/10.1002/jcc.10318
  2. Garcia-Rates,M.; Neese,F.
     Effect of the Solute Cavity on the Solvation Energy and its Derivatives within the Framework of the Gaussian Charge Scheme
     J. Comput. Chem., 2020 41 922-939
     doi.org/10.1002/jcc.26139
  3. Neese,F.
     The SHARK Integral Generation and Digestion System
     J. Comp. Chem., 2022  1-16
     doi.org/10.1002/jcc.26942
  4. Lehtola,S.; Steigemann,C.; Oliveira,M.; Marques,M.
     Recent developments in Libxc - A comprehensive library of functionals for density functional theory
     Software X, 2018 7 
     doi.org/10.1016/j.softx.2017.11.002
  5. Caldeweyher,E.; Bannwarth,C.; Grimme,S.
     Extension of the D3 dispersion coefficient model
     J. Chem. Phys., 2017 147 034112-XXXX
     doi.org/10.1063/1.4993215
  6. Caldeweyher,E.; Ehlert,S.; Hansen,A.; Neugebauer,H.; Spicher,S.; Bannwarth,C.; Grimme,S.
     A generally applicable atomic-charge dependent London dispersion correction
     J. Chem. Phys., 2019 150 154122-XXXX
     doi.org/10.1063/1.5090222
  7. Caldeweyher,E.; Mewes,J.; Ehlert,S.; Grimme,S.
     Extension and evaluation of the D4 London-dispersion model for periodic systems
     Phys. Chem. Chem. Phys., 2020 22(16)8499-8512
     doi.org/10.1039/D0CP00502A

List of suggested additional citations. These are papers that are important in the 'surrounding' of 
of this run, or papers that preceded the highly important papers. If you like your results we are grateful for a citation.

  1. Neese,F.
     The ORCA program system
     WIRES Comput. Molec. Sci., 2012 2(1)73-78
     doi.org/10.1002/wcms.81
  2. Neese,F.
     Software update: the ORCA program system, version 4.0
     WIRES Comput. Molec. Sci., 2018 8(1)1-6
     doi.org/10.1002/wcms.1327
  3. Neese,F.; Wennmohs,F.; Becker,U.; Riplinger,C.
     The ORCA quantum chemistry program package
     J. Chem. Phys., 2020 152 Art. No. L224108
     doi.org/10.1063/5.0004608

List of optional additional citations

  1. Neese,F.
     Approximate second-order SCF convergence for spin unrestricted wavefunctions
     Chem. Phys. Lett., 2000 325(1-3)93-98
     doi.org/10.1016/s0009-2614(00)00662-x

Timings for individual modules:

Sum of individual times          ...       79.884 sec (=   1.331 min)
Startup calculation              ...        3.180 sec (=   0.053 min)   4.0 %
SCF iterations                   ...       29.559 sec (=   0.493 min)  37.0 %
Property calculations            ...        0.277 sec (=   0.005 min)   0.3 %
SCF Gradient evaluation          ...       46.868 sec (=   0.781 min)  58.7 %
                             ****ORCA TERMINATED NORMALLY****
TOTAL RUN TIME: 0 days 0 hours 1 minutes 20 seconds 735 msec
  ------------------------------------------------------------------------
          * successful ORCA run, taking over control again...

         :::::::::::::::::::::::::::::::::::::::::::::::::::::
         ::                  ORCA SUMMARY                   ::
         :::::::::::::::::::::::::::::::::::::::::::::::::::::
         :: total energy           -2932.486312688075 Eh    ::
         :: gradient norm              0.000622292872 Eh/a0 ::
         :: HOMO-LUMO gap              0.000000000000 eV    ::
         :::::::::::::::::::::::::::::::::::::::::::::::::::::

      ----------------------------------------------------------- 
     |                       L-ANC optimizer                     |
      ----------------------------------------------------------- 
          low memory version by Sebastian Ehlert

          ...................................................
          :                      SETUP                      :
          :.................................................:
          :   energy convergence        0.5000000E-05 Eh    :
          :   grad. convergence         0.1000000E-02 Eh/a0 :
          :   optimization log               true           :
          :   writing optlog all                1     steps :
          :   Hessian reset                     8     steps :
          :   maximium step len.        1.0000000     a0    :
          :   LBFGS images                      8           :
          ...................................................
 * calculating model hessian...
Using Lindh-Hessian (1995)
 Shifting diagonal of input Hessian by   1.002865492206183E-002
 Lowest  eigenvalues of input Hessian
    0.010000    0.000000    0.000000    0.000000    0.000000    0.000000
    0.000000    0.010054    0.010178    0.010510    0.010791    0.011317
    0.011501    0.011677    0.011838    0.012278    0.012900    0.013362
 Highest eigenvalues
    1.297616    1.302935    1.721308    1.791439    1.823197    1.866762
 

........................................................................
.............................. CYCLE    1 ..............................
........................................................................
                         * ORCA takes the control...
  ------------------------------------------------------------------------

                                 *****************
                                 * O   R   C   A *
                                 *****************

                                            #,                                       
                                            ###                                      
                                            ####                                     
                                            #####                                    
                                            ######                                   
                                           ########,                                 
                                     ,,################,,,,,                         
                               ,,#################################,,                 
                          ,,##########################################,,             
                       ,#########################################, ''#####,          
                    ,#############################################,,   '####,        
                  ,##################################################,,,,####,       
                ,###########''''           ''''###############################       
              ,#####''   ,,,,##########,,,,          '''####'''          '####       
            ,##' ,,,,###########################,,,                        '##       
           ' ,,###''''                  '''############,,,                           
         ,,##''                                '''############,,,,        ,,,,,,###''
      ,#''                                            '''#######################'''  
     '                                                          ''''####''''         
             ,#######,   #######,   ,#######,      ##                                
            ,#'     '#,  ##    ##  ,#'     '#,    #''#        ,####,   ,####,        
            ##       ##  ##   ,#'  ##            #'  '#       #'       #'  '#        
            ##       ##  #######   ##           ,######,      #####,   #    #        
            '#,     ,#'  ##    ##  '#,     ,#' ,#      #,     #,   #   #,  ,#        
             '#######'   ##     ##  '#######'  #'      '#     '####' # '####'        



                #########################################################
                #                        -***-                          #
                #          Department of theory and spectroscopy        #
                #                                                       #
                #                      Frank Neese                      #
                #                                                       #
                #     Directorship, Architecture, Infrastructure        #
                #                    SHARK, DRIVERS                     #
                #        Core code/Algorithms in most modules           #
                #                                                       #
                #        Max Planck Institute fuer Kohlenforschung      #
                #                Kaiser Wilhelm Platz 1                 #
                #                 D-45470 Muelheim/Ruhr                 #
                #                      Germany                          #
                #                                                       #
                #                  All rights reserved                  #
                #                        -***-                          #
                #########################################################


                         Program Version 6.0.0  -   RELEASE  -


 With contributions from (in alphabetic order):
   Daniel Aravena         : Magnetic Suceptibility
   Michael Atanasov       : Ab Initio Ligand Field Theory (pilot matlab implementation)
   Alexander A. Auer      : GIAO ZORA, VPT2 properties, NMR spectrum
   Ute Becker             : All parallelization in ORCA, NUMFREQ, NUMCALC
   Giovanni Bistoni       : ED, misc. LED, open-shell LED, HFLD
   Martin Brehm           : Molecular dynamics
   Dmytro Bykov           : pre 5.0 version of the SCF Hessian
   Marcos Casanova-Páez   : Triplet and SCS-CIS(D). UHF-(DLPNO)-IP/EA/STEOM-CCSD. UHF-CVS-IP/STEOM-CCSD
   Vijay G. Chilkuri      : MRCI spin determinant printing, contributions to CSF-ICE
   Pauline Colinet        : FMM embedding
   Dipayan Datta          : RHF DLPNO-CCSD density
   Achintya Kumar Dutta   : EOM-CC, STEOM-CC
   Nicolas Foglia         : Exact transition moments, OPA infrastructure, MCD improvements
   Dmitry Ganyushin       : Spin-Orbit,Spin-Spin,Magnetic field MRCI
   Miquel Garcia          : C-PCM and meta-GGA Hessian, CCSD/C-PCM, Gaussian charge scheme
   Tiago L. C. Gouveia    : GS-ROHF, GS-ROCIS
   Yang Guo               : DLPNO-NEVPT2, F12-NEVPT2, CIM, IAO-localization
   Andreas Hansen         : Spin unrestricted coupled pair/coupled cluster methods
   Ingolf Harden          : AUTO-CI MPn and infrastructure 
   Benjamin Helmich-Paris : MC-RPA, TRAH-(SCF,CASSCF), AVAS, COSX integrals, SCF dyn. polar.
   Lee Huntington         : MR-EOM, pCC
   Robert Izsak           : Overlap fitted RIJCOSX, COSX-SCS-MP3, EOM
   Riya Kayal             : Wick's Theorem for AUTO-CI, AUTO-CI UHF-CCSDT
   Emily Kempfer          : AUTO-CI, RHF CISDT and CCSDT
   Christian Kollmar      : KDIIS, OOCD, Brueckner-CCSD(T), CCSD density, CASPT2, CASPT2-K, improved NEVPT2
   Axel Koslowski         : Symmetry handling
   Simone Kossmann        : Meta GGA functionals, TD-DFT gradient, OOMP2, (MP2 Hessian; deprecated post 5.0)
   Lucas Lang             : DCDCAS
   Marvin Lechner         : AUTO-CI (C++ implementation), FIC-MRCC
   Spencer Leger          : CASSCF response
   Dagmar Lenk            : GEPOL surface, SMD, ORCA-2-JSON
   Dimitrios Liakos       : Extrapolation schemes; Compound Job, initial MDCI parallelization
   Dimitrios Manganas     : Further ROCIS development; embedding schemes. LFT, Crystal Embedding
   Dimitrios Pantazis     : SARC Basis sets
   Anastasios Papadopoulos: AUTO-CI, single reference methods and gradients
   Taras Petrenko         : pre 6.0 DFT Hessian and TD-DFT gradient, (ASA, deprecated), ECA, 1-Electron XAS/XES, NRVS
   Peter Pinski           : DLPNO-MP2, DLPNO-MP2 Gradient
   Christoph Reimann      : Effective Core Potentials
   Marius Retegan         : Local ZFS, SOC
   Christoph Riplinger    : Optimizer, TS searches, QM/MM, DLPNO-CCSD(T), (RO)-DLPNO pert. Triples
   Michael Roemelt        : Original ROCIS implementation
   Masaaki Saitow         : Open-shell DLPNO-CCSD energy and density
   Barbara Sandhoefer     : DKH picture change effects
   Kantharuban Sivalingam : CASSCF convergence/infrastructure, NEVPT2 and variants, FIC-MRCI
   Bernardo de Souza      : ESD, SOC TD-DFT
   Georgi Stoychev        : AutoAux, RI-MP2 NMR, DLPNO-MP2 response, X2C
   Van Anh Tran           : RI-MP2 g-tensors
   Willem Van den Heuvel  : Paramagnetic NMR
   Zikuan Wang            : NOTCH, Electric field optimization 
   Frank Wennmohs         : Technical directorship and infrastructure
   Hang Xu                : AUTO-CI-Response properties 


 We gratefully acknowledge several colleagues who have allowed us to
 interface, adapt or use parts of their codes:
   Stefan Grimme, W. Hujo, H. Kruse, P. Pracht,  : VdW corrections, initial TS optimization,
                  C. Bannwarth, S. Ehlert,         DFT functionals, gCP, sTDA/sTD-DF
                  L. Wittmann, M. Mueller
   Ed Valeev, F. Pavosevic, A. Kumar             : LibInt (2-el integral package), F12 methods
   Garnet Chan, S. Sharma, J. Yang, R. Olivares  : DMRG
   Ulf Ekstrom                                   : XCFun DFT Library
   Mihaly Kallay                                 : mrcc  (arbitrary order and MRCC methods)
   Frank Weinhold                                : gennbo (NPA and NBO analysis)
   Simon Mueller                                 : openCOSMO-RS
   Christopher J. Cramer and Donald G. Truhlar   : smd solvation model
   Lars Goerigk                                  : TD-DFT with DH, B97 family of functionals
   V. Asgeirsson, H. Jonsson                     : NEB implementation
   FAccTs GmbH                                   : IRC, NEB, NEB-TS, DLPNO-Multilevel, CI-OPT
                                                   MM, QMMM, 2- and 3-layer-ONIOM, Crystal-QMMM,
                                                   LR-CPCM, SF, NACMEs, symmetry and pop. for TD-DFT,
                                                   nearIR, NL-DFT gradient (VV10), updates on ESD,
                                                   ML-optimized integration grids, MBIS, APM,
                                                   GOAT, DOCKER, SOLVATOR, interface openCOSMO-RS
   S Lehtola, MJT Oliveira, MAL Marques          : LibXC Library
   Liviu Ungur et al                             : ANISO software


 Your calculation uses the libint2 library for the computation of 2-el integrals
 For citations please refer to: http://libint.valeyev.net

 Your ORCA version has been built with support for libXC version: 6.2.2
 For citations please refer to: https://libxc.gitlab.io

 This ORCA versions uses:
   CBLAS   interface :  Fast vector & matrix operations
   LAPACKE interface :  Fast linear algebra routines
   SCALAPACK package :  Parallel linear algebra routines
   Shared memory     :  Shared parallel matrices
   BLAS/LAPACK       :  OpenBLAS 0.3.27  USE64BITINT DYNAMIC_ARCH NO_AFFINITY SapphireRapids SINGLE_THREADED
        Core in use  :  SapphireRapids
   Copyright (c) 2011-2014, The OpenBLAS Project




***************************************
The coordinates will be read from file: xtb_opt.xyz
***************************************


Your calculation utilizes the geometrical counterpoise correction gCP
Please cite in your paper:
H.Kruse, S. Grimme J.Chem.Phys., 136, (2012), 154101 
   

Your calculation utilizes the atom-pairwise dispersion correction
based on EEQ partial charges (D4)


Your calculation utilizes the SMD solvation module
Please cite in your paper:
A.V. Marenich, C.J. Cramer, D.G. Truhlar J. Phys. Chem. B, 113, (2009), 6378 

================================================================================

----- Orbital basis set information -----
Your calculation utilizes the basis: def2-mTZVPP
   Stefan Grimme, Andreas Hansen, Sebastian Ehlert, and Jan-Michael Mewes 
   J. Chem. Phys. 154, 064103 (2021). DOI: 10.1063/5.0040021

----- AuxJ basis set information -----
Your calculation utilizes the auxiliary basis: def2/J
   F. Weigend, Phys. Chem. Chem. Phys. 8, 1057 (2006).

================================================================================
                                        WARNINGS
                       Please study these warnings very carefully!
================================================================================

WARNING: Old DensityContainer found on disk!
         Will remove this file - 
         If you want to keep old densities, please start your calculation with a different basename. 

Using LibXC functional ID 497 : Re-regularized SCAN exchange by Furness et al
[ 1]  J. W. Furness, A. D. Kaplan, J. Ning, J. P. Perdew, and J. Sun.,  J. Phys. Chem. Lett. 11, 8208-8215 (2020)
[ 2]  J. W. Furness, A. D. Kaplan, J. Ning, J. P. Perdew, and J. Sun.,  J. Phys. Chem. Lett. 11, 9248-9248 (2020)
Using LibXC functional ID 498 : Re-regularized SCAN correlation by Furness et al
[ 1]  J. W. Furness, A. D. Kaplan, J. Ning, J. P. Perdew, and J. Sun.,  J. Phys. Chem. Lett. 11, 8208-8215 (2020)
[ 2]  J. W. Furness, A. D. Kaplan, J. Ning, J. P. Perdew, and J. Sun.,  J. Phys. Chem. Lett. 11, 9248-9248 (2020)
Using LibXC functional ID 497 : Re-regularized SCAN exchange by Furness et al
[ 1]  J. W. Furness, A. D. Kaplan, J. Ning, J. P. Perdew, and J. Sun.,  J. Phys. Chem. Lett. 11, 8208-8215 (2020)
[ 2]  J. W. Furness, A. D. Kaplan, J. Ning, J. P. Perdew, and J. Sun.,  J. Phys. Chem. Lett. 11, 9248-9248 (2020)
Using LibXC functional ID 498 : Re-regularized SCAN correlation by Furness et al
[ 1]  J. W. Furness, A. D. Kaplan, J. Ning, J. P. Perdew, and J. Sun.,  J. Phys. Chem. Lett. 11, 8208-8215 (2020)
[ 2]  J. W. Furness, A. D. Kaplan, J. Ning, J. P. Perdew, and J. Sun.,  J. Phys. Chem. Lett. 11, 9248-9248 (2020)

================================================================================
                                       INPUT FILE
================================================================================
NAME = xtb_opt.inp
|  1> ! r2scan-3c def2/J RI DEFGRID2 scfconv7 ENGRAD tightSCF miniprint
|  2> %cpcm
|  3>     smd true
|  4>     smdsolvent "water"
|  5> end
|  6> * xyzfile 0 1 xtb_opt.xyz
|  7> 
|  8>                          ****END OF INPUT****
================================================================================

                     *******************************
                     * Energy+Gradient Calculation *
                     *******************************

---------------------------------
CARTESIAN COORDINATES (ANGSTROEM)
---------------------------------
  C      4.350357   -2.408110    0.726396
  C      4.653835   -0.960765    0.429946
  O      3.514728   -0.084596    0.738694
  P      2.260337    0.111814   -0.251996
  S      2.581507   -0.100623   -2.161539
  O      1.706685    1.540796    0.234253
  C      2.154026    2.792982   -0.398460
  C      3.583961    3.127857   -0.052082
  S      0.839123   -1.196508    0.615527
  C     -0.380880   -1.327476   -0.752149
  S     -1.326184    0.190663   -1.195591
  P     -2.910035    0.137396    0.199494
  S     -4.126353    1.604312   -0.193564
  O     -2.245354    0.078509    1.664029
  C     -1.499144    1.241447    2.163631
  C     -0.961877    0.877235    3.522609
  O     -3.497367   -1.356048    0.234858
  C     -4.589431   -1.792323   -0.647477
  C     -4.116700   -2.064394   -2.054192
  H      5.268915   -2.989252    0.594165
  H      4.009732   -2.534263    1.758277
  H      3.592246   -2.809504    0.048183
  H      4.933386   -0.804962   -0.616334
  H      5.449839   -0.577851    1.071826
  H      2.002719    2.701768   -1.478515
  H      1.458682    3.536047   -0.003146
  H      3.727952    3.160934    1.031598
  H      4.285527    2.407718   -0.483992
  H      3.817376    4.116156   -0.462007
  H     -1.071353   -2.122380   -0.455948
  H      0.139401   -1.632502   -1.664656
  H     -0.693173    1.466988    1.457373
  H     -2.187430    2.091146    2.214350
  H     -1.774887    0.641945    4.215278
  H     -0.284456    0.021087    3.460629
  H     -0.404749    1.730894    3.920620
  H     -4.952004   -2.701326   -0.163904
  H     -5.378130   -1.034440   -0.618661
  H     -3.270229   -2.757830   -2.057440
  H     -4.940092   -2.523982   -2.610711
  H     -3.827890   -1.145621   -2.571141

----------------------------
CARTESIAN COORDINATES (A.U.)
----------------------------
  NO LB      ZA    FRAG     MASS         X           Y           Z
   0 C     6.0000    0    12.011    8.220983   -4.550669    1.372690
   1 C     6.0000    0    12.011    8.794474   -1.815583    0.812480
   2 O     8.0000    0    15.999    6.641874   -0.159863    1.395929
   3 P    15.0000    0    30.974    4.271417    0.211298   -0.476204
   4 S    16.0000    0    32.060    4.878342   -0.190150   -4.084717
   5 O     8.0000    0    15.999    3.225167    2.911682    0.442675
   6 C     6.0000    0    12.011    4.070519    5.277972   -0.752980
   7 C     6.0000    0    12.011    6.772704    5.910793   -0.098421
   8 S    16.0000    0    32.060    1.585713   -2.261073    1.163178
   9 C     6.0000    0    12.011   -0.719758   -2.508566   -1.421356
  10 S    16.0000    0    32.060   -2.506125    0.360300   -2.259340
  11 P    15.0000    0    30.974   -5.499169    0.259642    0.376990
  12 S    16.0000    0    32.060   -7.797677    3.031711   -0.365783
  13 O     8.0000    0    15.999   -4.243104    0.148360    3.144560
  14 C     6.0000    0    12.011   -2.832971    2.345995    4.088669
  15 C     6.0000    0    12.011   -1.817684    1.657733    6.656766
  16 O     8.0000    0    15.999   -6.609066   -2.562560    0.443817
  17 C     6.0000    0    12.011   -8.672767   -3.387000   -1.223554
  18 C     6.0000    0    12.011   -7.779435   -3.901140   -3.881861
  19 H     1.0000    0     1.008    9.956806   -5.648868    1.122810
  20 H     1.0000    0     1.008    7.577296   -4.789064    3.322661
  21 H     1.0000    0     1.008    6.788361   -5.309194    0.091053
  22 H     1.0000    0     1.008    9.322749   -1.521157   -1.164703
  23 H     1.0000    0     1.008   10.298704   -1.091979    2.025457
  24 H     1.0000    0     1.008    3.784590    5.105602   -2.793988
  25 H     1.0000    0     1.008    2.756509    6.682160   -0.005946
  26 H     1.0000    0     1.008    7.044808    5.973300    1.949437
  27 H     1.0000    0     1.008    8.098472    4.549929   -0.914612
  28 H     1.0000    0     1.008    7.213795    7.778407   -0.873067
  29 H     1.0000    0     1.008   -2.024564   -4.010718   -0.861616
  30 H     1.0000    0     1.008    0.263430   -3.084981   -3.145743
  31 H     1.0000    0     1.008   -1.309907    2.772205    2.754036
  32 H     1.0000    0     1.008   -4.133644    3.951693    4.184516
  33 H     1.0000    0     1.008   -3.354051    1.213101    7.965722
  34 H     1.0000    0     1.008   -0.537543    0.039848    6.539641
  35 H     1.0000    0     1.008   -0.764866    3.270916    7.408898
  36 H     1.0000    0     1.008   -9.357931   -5.104767   -0.309733
  37 H     1.0000    0     1.008  -10.163194   -1.954808   -1.169101
  38 H     1.0000    0     1.008   -6.179838   -5.211544   -3.887998
  39 H     1.0000    0     1.008   -9.335421   -4.769635   -4.933528
  40 H     1.0000    0     1.008   -7.233663   -2.164911   -4.858752

------------------------------------------------------------------------------
                   ___                                                        
                  /   \      - P O W E R E D   B Y -                         
                 /     \                                                     
                 |  |  |   _    _      __       _____    __    __             
                 |  |  |  | |  | |    /  \     |  _  \  |  |  /  |          
                  \  \/   | |  | |   /    \    | | | |  |  | /  /          
                 / \  \   | |__| |  /  /\  \   | |_| |  |  |/  /          
                |  |  |   |  __  | /  /__\  \  |    /   |      \           
                |  |  |   | |  | | |   __   |  |    \   |  |\   \          
                \     /   | |  | | |  |  |  |  | |\  \  |  | \   \       
                 \___/    |_|  |_| |__|  |__|  |_| \__\ |__|  \__/        
                                                                              
                      - O R C A' S   B I G   F R I E N D -                    
                                      &                                       
                       - I N T E G R A L  F E E D E R -                       
                                                                              
 v1 FN, 2020, v2 2021, v3 2022-2024                                           
------------------------------------------------------------------------------


----------------------
SHARK INTEGRAL PACKAGE
----------------------

Number of atoms                             ...     41
Number of basis functions                   ...    539
Number of shells                            ...    253
Maximum angular momentum                    ...      2
Integral batch strategy                     ... SHARK/LIBINT Hybrid
RI-J (if used) integral strategy            ... SPLIT-RIJ (Revised 2003 algorithm where possible)
Printlevel                                  ...      1
Contraction scheme used                     ... SEGMENTED contraction
Prescreening option                         ... SCHWARTZ
   Thresh                                   ... 3.000e-11
   Tcut                                     ... 1.000e-12
   Tpresel                                  ... 1.000e-12 
Coulomb Range Separation                    ... NOT USED
Exchange Range Separation                   ... NOT USED
Multipole approximations                    ... NOT USED
Finite Nucleus Model                        ... NOT USED
CABS basis                                  ... NOT available
Auxiliary Coulomb fitting basis             ... AVAILABLE
   # of basis functions in Aux-J            ...   1185
   # of shells in Aux-J                     ...    407
   Maximum angular momentum in Aux-J        ...      4
Auxiliary J/K fitting basis                 ... NOT available
Auxiliary Correlation fitting basis         ... NOT available
Auxiliary 'external' fitting basis          ... NOT available

Checking pre-screening integrals            ... done (  0.0 sec) Dimension = 253
Check shell pair data                       ... done (  0.0 sec)
Shell pair information
Shell pair cut-off parameter TPreSel        ...   1.0e-12
Total number of shell pairs                 ...     32131
Shell pairs after pre-screening             ...     21379
Total number of primitive shell pairs       ...    124843
Primitive shell pairs kept                  ...     50049
          la=0 lb=0:   6056 shell pairs
          la=1 lb=0:   7764 shell pairs
          la=1 lb=1:   2551 shell pairs
          la=2 lb=0:   2830 shell pairs
          la=2 lb=1:   1829 shell pairs
          la=2 lb=2:    349 shell pairs

Calculating one electron integrals          ... done (  0.1 sec)
Calculating RI/J V-Matrix + Cholesky decomp.... done (  0.1 sec)
[...]
CPCM gradient                     ... done (  7.8 sec)
SMD gradient                      ... done (  0.0 sec)
Dispersion correction             ... done (  0.0 sec)

-------------------
DISPERSION GRADIENT
-------------------

   1   C   :    0.000093069   -0.000101510    0.000045013
   2   C   :    0.000116657   -0.000065172    0.000026394
   3   O   :    0.000105836   -0.000027410    0.000048412
   4   P   :    0.000176649   -0.000018438   -0.000097924
   5   S   :    0.000103429   -0.000028839   -0.000292840
   6   O   :    0.000071726    0.000117108   -0.000007416
   7   C   :    0.000055138    0.000154796   -0.000033906
   8   C   :    0.000068905    0.000140566    0.000007183
   9   S   :    0.000054720   -0.000239355    0.000043575
  10   C   :    0.000017271   -0.000122674   -0.000071804
  11   S   :   -0.000099560    0.000023082   -0.000198439
  12   P   :   -0.000231537    0.000071632    0.000006228
  13   S   :   -0.000205680    0.000219576   -0.000032371
  14   O   :   -0.000057857    0.000027893    0.000111257
  15   C   :   -0.000059750    0.000079785    0.000142582
  16   C   :   -0.000008462    0.000036381    0.000187470
  17   O   :   -0.000104443   -0.000068941    0.000012363
  18   C   :   -0.000111204   -0.000070551   -0.000021691
  19   C   :   -0.000083645   -0.000084406   -0.000089587
  20   H   :    0.000031782   -0.000033848    0.000010987
  21   H   :    0.000037110   -0.000038024    0.000029887
  22   H   :    0.000043669   -0.000052104    0.000014360
  23   H   :    0.000050009   -0.000026052   -0.000003111
  24   H   :    0.000052411   -0.000019228    0.000029660
  25   H   :    0.000018682    0.000058156   -0.000026770
  26   H   :    0.000017856    0.000078458   -0.000001924
  27   H   :    0.000023505    0.000057233    0.000017416
  28   H   :    0.000026306    0.000057672   -0.000000424
  29   H   :    0.000017259    0.000046166    0.000000766
  30   H   :    0.000010707   -0.000059294   -0.000005353
  31   H   :    0.000012478   -0.000040180   -0.000044039
  32   H   :   -0.000028098    0.000034512    0.000063814
  33   H   :   -0.000023122    0.000037910    0.000051309
  34   H   :    0.000002855    0.000006699    0.000053124
  35   H   :   -0.000007753    0.000002261    0.000085918
  36   H   :   -0.000003140    0.000019232    0.000061052
  37   H   :   -0.000037100   -0.000044695    0.000004042
  38   H   :   -0.000042985   -0.000017640   -0.000004041
  39   H   :   -0.000037869   -0.000053416   -0.000039203
  40   H   :   -0.000027038   -0.000031287   -0.000032308
  41   H   :   -0.000038789   -0.000026053   -0.000049662

Difference to translation invariance:
           :    0.0000000000   -0.0000000000    0.0000000000

Difference to rotation invariance:
           :   -0.0000000000   -0.0000000000   -0.0000000000

Norm of the Dispersion gradient    ...    0.0008812396
RMS gradient                       ...    0.0000794587
MAX gradient                       ...    0.0002928403
gCP correction                   ... done

------------------
CARTESIAN GRADIENT
------------------

   1   C   :   -0.000018077    0.000004143    0.000045206
   2   C   :    0.000057686   -0.000037726   -0.000008145
   3   O   :   -0.000113421    0.000040141   -0.000040592
   4   P   :   -0.000182894   -0.000045632   -0.000214361
   5   S   :    0.000132418    0.000085757    0.000009079
   6   O   :    0.000041783   -0.000024350    0.000000678
   7   C   :    0.000053693    0.000029363    0.000013707
   8   C   :   -0.000026505    0.000000801   -0.000024041
   9   S   :   -0.000060057   -0.000273831    0.000347155
  10   C   :    0.000019559    0.000156039    0.000063192
  11   S   :    0.000005488    0.000220559   -0.000265192
  12   P   :    0.000016833   -0.000144775    0.000065282
  13   S   :    0.000116635   -0.000017878   -0.000049053
  14   O   :    0.000006415    0.000005264    0.000107811
  15   C   :   -0.000035756   -0.000029294   -0.000014701
  16   C   :    0.000020062   -0.000024157   -0.000013188
  17   O   :   -0.000098873   -0.000063589    0.000019868
  18   C   :    0.000044833    0.000008736    0.000026090
  19   C   :   -0.000018874    0.000026171   -0.000020024
  20   H   :    0.000016706    0.000004462    0.000060574
  21   H   :   -0.000008226    0.000008060   -0.000004221
  22   H   :    0.000033505   -0.000018814    0.000011797
  23   H   :    0.000001887   -0.000010938   -0.000002159
  24   H   :    0.000028074   -0.000014306    0.000001827
  25   H   :   -0.000034773   -0.000023585   -0.000029879
  26   H   :   -0.000015068    0.000003043   -0.000010912
  27   H   :    0.000011276    0.000006583   -0.000018880
  28   H   :    0.000003849    0.000007522   -0.000028608
  29   H   :    0.000009217    0.000056479   -0.000045120
  30   H   :    0.000043874   -0.000023017    0.000069775
  31   H   :   -0.000029742    0.000015613   -0.000034942
  32   H   :    0.000017206    0.000006131    0.000013343
  33   H   :    0.000009721    0.000015726    0.000018786
  34   H   :   -0.000014018   -0.000015845    0.000013136
  35   H   :   -0.000017830   -0.000004021    0.000002564
  36   H   :    0.000010570   -0.000017359    0.000012323
  37   H   :   -0.000022746    0.000019645   -0.000022836
  38   H   :   -0.000016461    0.000033062   -0.000020648
  39   H   :    0.000016215    0.000030486   -0.000002546
  40   H   :    0.000011306   -0.000003514   -0.000013637
  41   H   :   -0.000015491    0.000008846   -0.000018509

Difference to translation invariance:
           :   -0.0000000000    0.0000000000   -0.0000000001

Difference to rotation invariance:
           :   -0.0003014612   -0.0005106159   -0.0006368764

Norm of the Cartesian gradient     ...    0.0007707384
RMS gradient                       ...    0.0000694951
MAX gradient                       ...    0.0003471553

-------
TIMINGS
-------

Total SCF gradient time     ....       47.063 sec

Densities                   ....       0.007 sec  (  0.0%)
One electron gradient       ....       1.986 sec  (  4.2%)
RI-J Coulomb gradient       ....       9.329 sec  ( 19.8%)
XC gradient                 ....      22.068 sec  ( 46.9%)
CPCM gradient               ....       7.807 sec  ( 16.6%)
   A-Matrix (El+Nuc)        ....       0.267 sec  (  0.6%)
   Potential                ....       7.539 sec  ( 16.0%)
SMD gradient                ....       0.014 sec  (  0.0%)

Maximum memory used throughout the entire SCFGRAD-calculation: 84.4 MB

------------------------------------------------------------------------------
                              ORCA PROPERTY CALCULATIONS
------------------------------------------------------------------------------

GBWName                                 ... xtb_opt.gbw
Number of atoms                         ...     41
Number of basis functions               ...    539
Max core memory                         ...   1024 MB

Electric properties:
Dipole moment                           ... YES
Quadrupole moment                       ...  NO
Static polarizability (Dipole/Dipole)   ...  NO
Static polarizability (Dipole/Quad.)    ...  NO
Static polarizability (Quad./Quad.)     ...  NO
Static polarizability (Velocity)        ...  NO

Atomic electric properties:
Dipole moment                           ...  NO
Quadrupole moment                       ...  NO
Static polarizability                   ...  NO

Choice of electric origin               ... Center of mass
Position of electric origin             ...    -0.222474     0.091408    -0.038593

General magnetic properties:
Magnetizability                         ...  NO

EPR properties:
g-Tensor (aka g-matrix)                 ...  NO
Zero-Field splitting spin-orbit         ...  NO
Zero-field splitting spin-spin          ...  NO
Hyperfine couplings                     ...  NO (   0 nuclei)
Quadrupole couplings                    ...  NO (   0 nuclei)
Contact density                         ...  NO (   0 nuclei)

NMR properties:
Chemical shifts                         ...  NO (   0 nuclei)
Spin-rotation constants                 ...  NO (   0 nuclei)
Spin-spin couplings                     ...  NO (   0 nuclei,    0 pairs)

Choice of magnetic origin               ... GIAO
Position of magnetic origin             ...     0.000000     0.000000     0.000000

Properties with geometric perturbations:
SCF Hessian                             ...  NO
IR spectrum                             ...  NO
VCD spectrum                            ...  NO
X-ray spectroscopy properties:
SCF XES/XAS/RIXS spectra                ...  NO


-------------
DIPOLE MOMENT
-------------

Method             : SCF
Type of density    : Electron Density
Multiplicity       :   1
Irrep              :   0
Energy             : -2932.5105898717542914 Eh
Relativity type    : 
Basis              : AO
                                X                 Y                 Z
Electronic contribution:    -10.526753042       1.785586623      -6.161055328
Nuclear contribution   :     12.133700580      -2.794105132       6.736905825
                        -----------------------------------------
Total Dipole Moment    :      1.606947538      -1.008518509       0.575850498
                        -----------------------------------------
Magnitude (a.u.)       :      1.982673389
Magnitude (Debye)      :      5.039555256



--------------------
Rotational spectrum 
--------------------
 
Rotational constants in cm-1:             0.012298             0.004412             0.004161 
Rotational constants in MHz :           368.687251           132.267675           124.746504 

Dipole components along the rotational axes: 
x,y,z [a.u.] :     1.566990    -0.636549     1.034573 
x,y,z [Debye]:     3.982972    -1.617978     2.629676 

 

Dipole moment calculation done in   0.1 sec 

Maximum memory used throughout the entire PROP-calculation: 51.7 MB

--------------------------------
SUGGESTED CITATIONS FOR THIS RUN
--------------------------------

Below you find a list of papers that are relevant to this ORCA run
We neither can nor want to force you to cite these papers, but we appreciate if you do
You receive ORCA, which is the product of decades of hard work by many enthusiastic individuals, for free
The only thing we kindly ask in return is that you cite our papers,
We deeply appreciate it, if you show your appreciation for ORCA by not just citing the generic ORCA reference.

Please note that relegating all ORCA citations to the supporting information does *not* help us.
SI sections are not indexed - citations you put there will not count into any citation statistics
But we need these citations in order to attract the funding resources that allow us to do what we are doing

Therefore, if you are a happy ORCA user, please consider citing a few of the papers listed below in the main body of your paper

In addition to the list printed below, the program has created the file xtb_opt.bibtex that contains the list in bibtex format
You can import this file easily into all common literature databanks and citation aid programs


List of essential papers. We consider these as the minimum necessary citations

  1. Neese,F.
     Software update: the ORCA program system, version 5.0
     WIRES Comput. Molec. Sci., 2022 12(1)e1606
     doi.org/10.1002/wcms.1606
  2. Grimme,S.; Hansen,A.; Ehlert,S.; Mewes,J.
     r2SCAN-3c: A 'Swiss army knife' composite electronic-structure method
     J. Chem. Phys., 2021 154 064103
     doi.org/10.1063/5.0040021

List of papers to cite with high priority. The work reported in these papers was absolutely
necessary for this run to complete.
Our perspective: the developers of density functionals and basis sets usually get cited in chemistry papers
Good! But without the algorithms to do something with them, the functionals or basis sets would not do anything.
Hence, in our opinion, the algorithm design and method developments papers are equally worthy of getting cited

  1. Neese,F.
     An improvement of the resolution of the identity approximation for the formation of the Coulomb matrix
     J. Comp. Chem., 2003 24(14)1740-1747
     doi.org/10.1002/jcc.10318
  2. Garcia-Rates,M.; Neese,F.
     Effect of the Solute Cavity on the Solvation Energy and its Derivatives within the Framework of the Gaussian Charge Scheme
     J. Comput. Chem., 2020 41 922-939
     doi.org/10.1002/jcc.26139
  3. Neese,F.
     The SHARK Integral Generation and Digestion System
     J. Comp. Chem., 2022  1-16
     doi.org/10.1002/jcc.26942
  4. Lehtola,S.; Steigemann,C.; Oliveira,M.; Marques,M.
     Recent developments in Libxc - A comprehensive library of functionals for density functional theory
     Software X, 2018 7 
     doi.org/10.1016/j.softx.2017.11.002
  5. Caldeweyher,E.; Bannwarth,C.; Grimme,S.
     Extension of the D3 dispersion coefficient model
     J. Chem. Phys., 2017 147 034112-XXXX
     doi.org/10.1063/1.4993215
  6. Caldeweyher,E.; Ehlert,S.; Hansen,A.; Neugebauer,H.; Spicher,S.; Bannwarth,C.; Grimme,S.
     A generally applicable atomic-charge dependent London dispersion correction
     J. Chem. Phys., 2019 150 154122-XXXX
     doi.org/10.1063/1.5090222
  7. Caldeweyher,E.; Mewes,J.; Ehlert,S.; Grimme,S.
     Extension and evaluation of the D4 London-dispersion model for periodic systems
     Phys. Chem. Chem. Phys., 2020 22(16)8499-8512
     doi.org/10.1039/D0CP00502A

List of suggested additional citations. These are papers that are important in the 'surrounding' of 
of this run, or papers that preceded the highly important papers. If you like your results we are grateful for a citation.

  1. Neese,F.
     The ORCA program system
     WIRES Comput. Molec. Sci., 2012 2(1)73-78
     doi.org/10.1002/wcms.81
  2. Neese,F.
     Software update: the ORCA program system, version 4.0
     WIRES Comput. Molec. Sci., 2018 8(1)1-6
     doi.org/10.1002/wcms.1327
  3. Neese,F.; Wennmohs,F.; Becker,U.; Riplinger,C.
     The ORCA quantum chemistry program package
     J. Chem. Phys., 2020 152 Art. No. L224108
     doi.org/10.1063/5.0004608

List of optional additional citations

  1. Neese,F.
     Approximate second-order SCF convergence for spin unrestricted wavefunctions
     Chem. Phys. Lett., 2000 325(1-3)93-98
     doi.org/10.1016/s0009-2614(00)00662-x

Timings for individual modules:

Sum of individual times          ...       82.612 sec (=   1.377 min)
Startup calculation              ...        3.423 sec (=   0.057 min)   4.1 %
SCF iterations                   ...       31.664 sec (=   0.528 min)  38.3 %
Property calculations            ...        0.242 sec (=   0.004 min)   0.3 %
SCF Gradient evaluation          ...       47.282 sec (=   0.788 min)  57.2 %
                             ****ORCA TERMINATED NORMALLY****
TOTAL RUN TIME: 0 days 0 hours 1 minutes 23 seconds 653 msec
  ------------------------------------------------------------------------
          * successful ORCA run, taking over control again...

         :::::::::::::::::::::::::::::::::::::::::::::::::::::
         ::                  ORCA SUMMARY                   ::
         :::::::::::::::::::::::::::::::::::::::::::::::::::::
         :: total energy           -2932.486313715311 Eh    ::
         :: gradient norm              0.000770738374 Eh/a0 ::
         :: HOMO-LUMO gap              0.000000000000 eV    ::
         :::::::::::::::::::::::::::::::::::::::::::::::::::::

           -------------------------------------------------
          |                Property Printout                |
           -------------------------------------------------
           -------------------------------------------------
          |                Geometry Summary                 |
           -------------------------------------------------

      molecular mass/u    :      384.4756129
   center of mass at/Å    :       -0.1177521       0.0483760      -0.0204582
  moments of inertia/u·Å² :        0.1370783E+04   0.3820996E+04   0.4051344E+04
rotational constants/cm⁻¹ :        0.1229781E-01   0.4411842E-02   0.4160998E-02

 * 34 selected distances

     #   Z          #   Z                                           value/Å
     1   6 C        2   6 C                                       1.5082406
     3   8 O        4  15 P                                       1.6104480
     4  15 P        5  16 S                                       1.9479821
     4  15 P        6   8 O                                       1.6077807
     7   6 C        8   6 C                                       1.5089174
     4  15 P        9  16 S                                       2.1175817 (max)
    11  16 S       12  15 P                                       2.1113227
    12  15 P       13  16 S                                       1.9457049
    12  15 P       14   8 O                                       1.6093886
    15   6 C       16   6 C                                       1.5060307
    12  15 P       17   8 O                                       1.6051750
    18   6 C       19   6 C                                       1.5087565
     1   6 C       20   1 H                                       1.0949700
     1   6 C       21   1 H                                       1.0939457
     1   6 C       22   1 H                                       1.0935368
     2   6 C       23   1 H                                       1.0941327
     2   6 C       24   1 H                                       1.0919046
     7   6 C       25   1 H                                       1.0944098
     7   6 C       26   1 H                                       1.0917515
     8   6 C       27   1 H                                       1.0937047
     8   6 C       28   1 H                                       1.0942306
     8   6 C       29   1 H                                       1.0951053
    10   6 C       30   1 H                                       1.0937836
    10   6 C       31   1 H                                       1.0938014
    15   6 C       32   1 H                                       1.0951059
    15   6 C       33   1 H                                       1.0946687
    16   6 C       34   1 H                                       1.0936813
    16   6 C       35   1 H                                       1.0934945
    16   6 C       36   1 H                                       1.0943212
    18   6 C       37   1 H                                       1.0915993 (min)
    18   6 C       38   1 H                                       1.0941961
    19   6 C       39   1 H                                       1.0942470
    19   6 C       40   1 H                                       1.0949471
    19   6 C       41   1 H                                       1.0930650

 * 4 distinct bonds (by element types)

   Z      Z             #   av. dist./Å        max./Å        min./Å
   1 H    6 C          22     1.0938456     1.0951059     1.0915993
   6 C    6 C           4     1.5079863     1.5089174     1.5060307
   8 O   15 P           4     1.6081981     1.6104480     1.6051750
  15 P   16 S           4     2.0306479     2.1175817     1.9457049


optimized geometry written to: xtbopt.coord


           -------------------------------------------------
          | TOTAL ENERGY            -2932.486313715311 Eh   |
          | GRADIENT NORM               0.000770738374 Eh/α |
           -------------------------------------------------

------------------------------------------------------------------------
 * finished run on 2025/04/10 at 13:49:28.632     
------------------------------------------------------------------------
 total:
 * wall-time:     0 d,  0 h,  4 min, 25.995 sec
 *  cpu-time:     0 d,  0 h,  0 min,  3.232 sec
 * ratio c/w:     0.012 speedup
 SCF:
 * wall-time:     0 d,  0 h,  1 min, 20.786 sec
 *  cpu-time:     0 d,  0 h,  0 min,  1.379 sec
 * ratio c/w:     0.017 speedup
 ANC optimizer:
 * wall-time:     0 d,  0 h,  3 min,  5.168 sec
 *  cpu-time:     0 d,  0 h,  0 min,  1.781 sec
 * ratio c/w:     0.010 speedup

