      -----------------------------------------------------------      
     |                   =====================                   |     
     |                           x T B                           |     
     |                   =====================                   |     
     |                         S. Grimme                         |     
     |          Mulliken Center for Theoretical Chemistry        |     
     |                    University of Bonn                     |     
      -----------------------------------------------------------      

   * xtb version 6.7.1 (edcfbbe) compiled by 'albert@albert-system' on 2024-07-22

   xtb is free software: you can redistribute it and/or modify it under
   the terms of the GNU Lesser General Public License as published by
   the Free Software Foundation, either version 3 of the License, or
   (at your option) any later version.
   
   xtb is distributed in the hope that it will be useful,
   but WITHOUT ANY WARRANTY; without even the implied warranty of
   MERCHANTABILITY or FITNESS FOR A PARTICULAR PURPOSE.  See the
   GNU Lesser General Public License for more details.
   
   Cite this work as:
   * C. Bannwarth, E. Caldeweyher, S. Ehlert, A. Hansen, P. Pracht,
     J. Seibert, S. Spicher, S. Grimme, WIREs Comput. Mol. Sci., 2020, 11,
     e01493. DOI: 10.1002/wcms.1493
   
   for GFN2-xTB:
   * C. Bannwarth, S. Ehlert and S. Grimme., J. Chem. Theory Comput., 2019,
     15, 1652-1671. DOI: 10.1021/acs.jctc.8b01176
   for GFN1-xTB:
   * S. Grimme, C. Bannwarth, P. Shushkov, J. Chem. Theory Comput., 2017,
     13, 1989-2009. DOI: 10.1021/acs.jctc.7b00118
   for GFN0-xTB:
   * P. Pracht, E. Caldeweyher, S. Ehlert, S. Grimme, ChemRxiv, 2019, preprint.
     DOI: 10.26434/chemrxiv.8326202.v1
   for GFN-FF:
   * S. Spicher and S. Grimme, Angew. Chem. Int. Ed., 2020, 59, 15665-15673.
     DOI: 10.1002/anie.202004239
   
   for ALPB and GBSA implicit solvation:
   * S. Ehlert, M. Stahn, S. Spicher, S. Grimme, J. Chem. Theory Comput.,
     2021, 17, 4250-4261. DOI: 10.1021/acs.jctc.1c00471
   
   for ddCOSMO and CPCM-X implicit solvation:
   * M. Stahn, S. Ehlert, S. Grimme, J. Phys. Chem. A,
     2023, XX, XXXX-XXXX. DOI: 10.1021/acs.jpca.3c04382
   
   for DFT-D4:
   * E. Caldeweyher, C. Bannwarth and S. Grimme, J. Chem. Phys., 2017,
     147, 034112. DOI: 10.1063/1.4993215
   * E. Caldeweyher, S. Ehlert, A. Hansen, H. Neugebauer, S. Spicher,
     C. Bannwarth and S. Grimme, J. Chem. Phys., 2019, 150, 154122.
     DOI: 10.1063/1.5090222
   * E. Caldeweyher, J.-M. Mewes, S. Ehlert and S. Grimme, Phys. Chem. Chem. Phys.
     2020, 22, 8499-8512. DOI: 10.1039/D0CP00502A
   
   for sTDA-xTB:
   * S. Grimme and C. Bannwarth, J. Chem. Phys., 2016, 145, 054103.
     DOI: 10.1063/1.4959605
   
   in the mass-spec context:
   * V. Asgeirsson, C. Bauer and S. Grimme, Chem. Sci., 2017, 8, 4879.
     DOI: 10.1039/c7sc00601b
   * J. Koopman and S. Grimme, ACS Omega 2019, 4, 12, 15120-15133.
     DOI: 10.1021/acsomega.9b02011
   
   for metadynamics refer to:
   * S. Grimme, J. Chem. Theory Comput., 2019, 155, 2847-2862
     DOI: 10.1021/acs.jctc.9b00143
   
   for SPH calculations refer to:
   * S. Spicher and S. Grimme, J. Chem. Theory Comput., 2021, 17, 1701-1714
     DOI: 10.1021/acs.jctc.0c01306
   
   for ONIOM refer to:
   * C. Plett, A. Katbashev, S. Ehlert, S. Grimme, M. Bursch,
     Phys. Chem. Chem. Phys., 2023, 25, 17860-17868. DOI: 10.1039/D3CP02178E
   
   for DIPRO refer to:
   * J. Kohn, N. Gildemeister, S. Grimme, D. Fazzi, A. Hansen,
     J. Chem. Phys., 2023, just accepted.
   
   for PTB refer to:
   * S. Grimme, M. Mueller, A. Hansen, J. Chem. Phys., 2023, 158, 124111.
     DOI: 10.1063/5.0137838
   
   with help from (in alphabetical order)
   P. Atkinson, C. Bannwarth, F. Bohle, G. Brandenburg, E. Caldeweyher
   M. Checinski, S. Dohm, S. Ehlert, S. Ehrlich, I. Gerasimov, C. Hölzer
   A. Katbashev, J. Kohn, J. Koopman, C. Lavigne, S. Lehtola, F. März, M. Müller,
   F. Musil, H. Neugebauer, J. Pisarek, C. Plett, P. Pracht, F. Pultar,
   J. Seibert, P. Shushkov, S. Spicher, M. Stahn, M. Steiner, T. Strunk,
   J. Stückrath, T. Rose, and J. Unsleber
   
 * started run on 2025/04/09 at 07:31:35.412     
   ID    Z sym.   atoms
    1    6 C      1, 2, 4, 6, 7, 9, 12, 13, 18, 20
    2    8 O      3, 5, 10, 11, 17, 19
    3    1 H      8, 21-38
    4   16 S      14, 16
    5   15 P      15

           -------------------------------------------------
          |                Calculation Setup                |
           -------------------------------------------------

          program call               : /software/projects/pawsey0265/mwang1/xtb/bin/xtb gas.coord --gfn2 --sp --chrg 0 --norestart --parallel 1
          hostname                   : nid002043
          coordinate file            : gas.coord
          omp threads                :                     1


           -------------------------------------------------
          |                 G F N 2 - x T B                 |
           -------------------------------------------------

        Reference                      10.1021/acs.jctc.8b01176
      * Hamiltonian:
        H0-scaling (s, p, d)           1.850000    2.230000    2.230000
        zeta-weighting                 0.500000
      * Dispersion:
        s8                             2.700000
        a1                             0.520000
        a2                             5.000000
        s9                             5.000000
      * Repulsion:
        kExp                           1.500000    1.000000
        rExp                           1.000000
      * Coulomb:
        alpha                          2.000000
        third order                    shell-resolved
        anisotropic                    true
        a3                             3.000000
        a5                             4.000000
        cn-shift                       1.200000
        cn-exp                         4.000000
        max-rad                        5.000000


          ...................................................
          :                      SETUP                      :
          :.................................................:
          :  # basis functions                 113          :
          :  # atomic orbitals                 110          :
          :  # shells                           60          :
          :  # electrons                       112          :
          :  max. iterations                   250          :
          :  Hamiltonian                  GFN2-xTB          :
          :  restarted?                      false          :
          :  GBSA solvation                  false          :
          :  PC potential                    false          :
          :  electronic temp.          300.0000000     K    :
          :  accuracy                    1.0000000          :
          :  -> integral cutoff          0.2500000E+02      :
          :  -> integral neglect         0.1000000E-07      :
          :  -> SCF convergence          0.1000000E-05 Eh   :
          :  -> wf. convergence          0.1000000E-03 e    :
          :  Broyden damping             0.4000000          :
          :  net charge                          0          :
          :  unpaired electrons                  0          :
          ...................................................

 iter      E             dE          RMSdq      gap      omega  full diag
   1    -65.0461693 -0.650462E+02  0.575E+00    4.35       0.0  T
   2    -65.2063417 -0.160172E+00  0.321E+00    2.98       1.0  T
   3    -65.2171375 -0.107958E-01  0.143E+00    2.96       1.0  T
   4    -65.2231172 -0.597970E-02  0.452E-01    2.68       1.0  T
   5    -65.2245103 -0.139313E-02  0.221E-01    2.80       1.0  T
   6    -65.2246423 -0.131992E-03  0.928E-02    2.80       1.0  T
   7    -65.2246562 -0.138723E-04  0.344E-02    2.81       1.0  T
   8    -65.2246622 -0.602745E-05  0.178E-02    2.81       1.0  T
   9    -65.2246632 -0.938780E-06  0.360E-03    2.81       4.5  T
  10    -65.2246633 -0.115490E-06  0.202E-03    2.81       8.0  T
  11    -65.2246633 -0.406816E-08  0.559E-04    2.81      29.0  T
  12    -65.2246633 -0.156258E-08  0.187E-04    2.81      87.0  T

   *** convergence criteria satisfied after 12 iterations ***

         #    Occupation            Energy/Eh            Energy/eV
      -------------------------------------------------------------
         1        2.0000           -0.7661423             -20.8478
       ...           ...                  ...                  ...
        50        2.0000           -0.4554068             -12.3923
        51        2.0000           -0.4433005             -12.0628
        52        2.0000           -0.4355357             -11.8515
        53        2.0000           -0.4227323             -11.5031
        54        2.0000           -0.4005273             -10.8989
        55        2.0000           -0.3679483             -10.0124
        56        2.0000           -0.3635699              -9.8932 (HOMO)
        57                         -0.2602784              -7.0825 (LUMO)
        58                         -0.2442017              -6.6451
        59                         -0.2366150              -6.4386
        60                         -0.1919924              -5.2244
        61                         -0.1546628              -4.2086
       ...                                ...                  ...
       110                          1.3383218              36.4176
      -------------------------------------------------------------
                  HL-Gap            0.1032915 Eh            2.8107 eV
             Fermi-level           -0.3119242 Eh           -8.4879 eV

 SCC (total)                   0 d,  0 h,  0 min,  0.118 sec
 SCC setup                      ...        0 min,  0.000 sec (  0.383%)
 Dispersion                     ...        0 min,  0.000 sec (  0.411%)
 classical contributions        ...        0 min,  0.000 sec (  0.079%)
 integral evaluation            ...        0 min,  0.052 sec ( 43.615%)
 iterations                     ...        0 min,  0.034 sec ( 29.115%)
 molecular gradient             ...        0 min,  0.031 sec ( 26.129%)
 printout                       ...        0 min,  0.000 sec (  0.240%)

         :::::::::::::::::::::::::::::::::::::::::::::::::::::
         ::                     SUMMARY                     ::
         :::::::::::::::::::::::::::::::::::::::::::::::::::::
         :: total energy             -64.652169267950 Eh    ::
         :: gradient norm              0.041598338015 Eh/a0 ::
         :: HOMO-LUMO gap              2.810704676109 eV    ::
         ::.................................................::
         :: SCC energy               -65.224074342088 Eh    ::
         :: -> isotropic ES            0.141868605878 Eh    ::
         :: -> anisotropic ES         -0.009912590566 Eh    ::
         :: -> anisotropic XC          0.016695216447 Eh    ::
         :: -> dispersion             -0.041989530438 Eh    ::
         :: repulsion energy           0.571905074138 Eh    ::
         :: add. restraining           0.000000000000 Eh    ::
         :: total charge               0.000000000000 e     ::
         :::::::::::::::::::::::::::::::::::::::::::::::::::::

           -------------------------------------------------
          |                Property Printout                |
           -------------------------------------------------

    * Orbital Energies and Occupations

         #    Occupation            Energy/Eh            Energy/eV
      -------------------------------------------------------------
         1        2.0000           -0.7661423             -20.8478
       ...           ...                  ...                  ...
        44        2.0000           -0.4777389             -12.9999
        45        2.0000           -0.4693117             -12.7706
        46        2.0000           -0.4621517             -12.5758
        47        2.0000           -0.4602008             -12.5227
        48        2.0000           -0.4588378             -12.4856
        49        2.0000           -0.4569905             -12.4353
        50        2.0000           -0.4554068             -12.3923
        51        2.0000           -0.4433005             -12.0628
        52        2.0000           -0.4355357             -11.8515
        53        2.0000           -0.4227323             -11.5031
        54        2.0000           -0.4005273             -10.8989
        55        2.0000           -0.3679483             -10.0124
        56        2.0000           -0.3635699              -9.8932 (HOMO)
        57                         -0.2602784              -7.0825 (LUMO)
        58                         -0.2442017              -6.6451
        59                         -0.2366150              -6.4386
        60                         -0.1919924              -5.2244
        61                         -0.1546628              -4.2086
        62                         -0.1350523              -3.6750
        63                         -0.1005594              -2.7364
        64                         -0.0433480              -1.1796
        65                         -0.0294323              -0.8009
        66                         -0.0216166              -0.5882
        67                         -0.0187314              -0.5097
       ...                                ...                  ...
       110                          1.3383218              36.4176
      -------------------------------------------------------------
                  HL-Gap            0.1032915 Eh            2.8107 eV
             Fermi-level           -0.3119242 Eh           -8.4879 eV

     #   Z          covCN         q      C6AA      α(0)
     1   6 C        3.751    -0.116    22.782     6.807
     2   6 C        3.695     0.074    19.505     6.318
     3   8 O        1.703    -0.253    18.184     5.757
     4   6 C        2.717     0.364    20.822     7.470
     5   8 O        0.856    -0.413    21.952     6.282
     6   6 C        3.830    -0.093    22.250     6.712
     7   6 C        3.857     0.013    20.326     6.412
     8   1 H        0.924     0.091     1.870     2.139
     9   6 C        2.778     0.369    20.756     7.462
    10   8 O        0.888    -0.397    21.611     6.233
    11   8 O        1.703    -0.238    17.951     5.720
    12   6 C        3.698     0.074    19.501     6.316
    13   6 C        3.751    -0.116    22.780     6.807
    14  16 S        1.975    -0.157   147.680    20.453
    15  15 P        3.908     0.393   143.956    21.553
    16  16 S        0.925    -0.409   157.038    21.196
    17   8 O        1.655    -0.216    17.609     5.665
    18   6 C        3.819     0.029    20.079     6.377
    19   8 O        1.656    -0.264    18.390     5.789
    20   6 C        3.829     0.035    19.961     6.357
    21   1 H        0.925     0.057     2.236     2.338
    22   1 H        0.925     0.055     2.257     2.349
    23   1 H        0.925     0.063     2.166     2.301
    24   1 H        0.925     0.059     2.208     2.324
    25   1 H        0.924     0.065     2.147     2.291
    26   1 H        0.924     0.090     1.881     2.145
    27   1 H        0.924     0.087     1.905     2.158
    28   1 H        0.924     0.075     2.030     2.228
    29   1 H        0.925     0.071     2.078     2.254
    30   1 H        0.925     0.063     2.167     2.302
    31   1 H        0.925     0.059     2.208     2.324
    32   1 H        0.925     0.057     2.240     2.340
    33   1 H        0.925     0.073     2.049     2.238
    34   1 H        0.925     0.084     1.939     2.178
    35   1 H        0.925     0.069     2.092     2.262
    36   1 H        0.924     0.061     2.192     2.315
    37   1 H        0.925     0.073     2.051     2.240
    38   1 H        0.924     0.071     2.078     2.254

 Mol. C6AA /au·bohr⁶  :      18360.088815
 Mol. C8AA /au·bohr⁸  :     515210.815418
 Mol. α(0) /au        :        208.667258


Wiberg/Mayer (AO) data.
largest (>0.10) Wiberg bond orders for each atom

 ---------------------------------------------------------------------------
     #   Z sym  total        # sym  WBO       # sym  WBO       # sym  WBO
 ---------------------------------------------------------------------------
     1   6 C    3.990 --     2 C    1.014    21 H    0.986    23 H    0.984
                            22 H    0.982
     2   6 C    3.920 --     1 C    1.014    24 H    0.973    25 H    0.970
                             3 O    0.924
     3   8 O    2.332 --     4 C    1.170     2 C    0.924     5 O    0.181
     4   6 C    3.923 --     5 O    1.741     3 O    1.170     6 C    0.958
     5   8 O    2.027 --     4 C    1.741     3 O    0.181
     6   6 C    3.987 --     7 C    0.983    27 H    0.963     4 C    0.958
                            26 H    0.949
     7   6 C    3.976 --     6 C    0.983    14 S    0.966     9 C    0.947
                             8 H    0.937
     8   1 H    0.992 --     7 C    0.937
     9   6 C    3.924 --    10 O    1.698    11 O    1.203     7 C    0.947
    10   8 O    2.084 --     9 C    1.698    11 O    0.172
    11   8 O    2.353 --     9 C    1.203    12 C    0.910    10 O    0.172
    12   6 C    3.906 --    13 C    1.015    29 H    0.971    28 H    0.968
                            11 O    0.910
    13   6 C    3.990 --    12 C    1.015    32 H    0.985    30 H    0.984
                            31 H    0.981
    14  16 S    2.244 --     7 C    0.966    15 P    0.950    16 S    0.138
    15  15 P    5.262 --    16 S    1.543    17 O    1.325    19 O    1.257
                            14 S    0.950
    16  16 S    1.866 --    15 P    1.543    14 S    0.138
    17   8 O    2.418 --    15 P    1.325    18 C    0.915
    18   6 C    3.910 --    35 H    0.981    34 H    0.978    33 H    0.977
                            17 O    0.915
    19   8 O    2.371 --    15 P    1.257    20 C    0.937
    20   6 C    3.916 --    37 H    0.979    36 H    0.979    38 H    0.977
                            19 O    0.937
    21   1 H    0.997 --     1 C    0.986
    22   1 H    0.996 --     1 C    0.982
    23   1 H    0.996 --     1 C    0.984
    24   1 H    0.996 --     2 C    0.973
    25   1 H    0.996 --     2 C    0.970
    26   1 H    0.992 --     6 C    0.949
    27   1 H    0.992 --     6 C    0.963
    28   1 H    0.994 --    12 C    0.968
    29   1 H    0.994 --    12 C    0.971
    30   1 H    0.996 --    13 C    0.984
    31   1 H    0.996 --    13 C    0.981
    32   1 H    0.997 --    13 C    0.985
    33   1 H    0.995 --    18 C    0.977
    34   1 H    0.993 --    18 C    0.978
    35   1 H    0.995 --    18 C    0.981
    36   1 H    0.996 --    20 C    0.979
    37   1 H    0.995 --    20 C    0.979
    38   1 H    0.995 --    20 C    0.977
 ---------------------------------------------------------------------------

Topologies differ in total number of bonds
Writing topology from bond orders to xtbtopo.mol

molecular dipole:
                 x           y           z       tot (Debye)
 q only:        0.298      -0.540      -0.661
   full:        0.060      -0.379      -0.722       2.078
molecular quadrupole (traceless):
                xx          xy          yy          xz          yz          zz
 q only:        0.136       3.830      24.540      12.804      -0.826     -24.676
  q+dip:        2.916       5.924      23.574      10.502      -2.984     -26.490
   full:        2.972       5.589      23.881      11.341      -2.987     -26.853


           -------------------------------------------------
          | TOTAL ENERGY              -64.652169267950 Eh   |
          | GRADIENT NORM               0.041598338015 Eh/α |
          | HOMO-LUMO GAP               2.810704676109 eV   |
           -------------------------------------------------

------------------------------------------------------------------------
 * finished run on 2025/04/09 at 07:31:35.586     
------------------------------------------------------------------------
 total:
 * wall-time:     0 d,  0 h,  0 min,  0.173 sec
 *  cpu-time:     0 d,  0 h,  0 min,  0.106 sec
 * ratio c/w:     0.615 speedup
 SCF:
 * wall-time:     0 d,  0 h,  0 min,  0.119 sec
 *  cpu-time:     0 d,  0 h,  0 min,  0.089 sec
 * ratio c/w:     0.752 speedup

