 Entering Gaussian System
 *********************************************
 Gaussian 98:
 frequency output generated by the xtb code
 *********************************************
                         Standard orientation:
 --------------------------------------------------------------------
  Center     Atomic     Atomic              Coordinates (Angstroms)
  Number     Number      Type              X           Y           Z
 --------------------------------------------------------------------
    1          6             0        2.452142   -3.130266   -1.092242
    2          6             0        3.366554   -2.068422   -1.667300
    3          8             0        3.585825   -0.962708   -0.759633
    4         15             0        2.471388   -0.014060   -0.143820
    5         16             0        3.314354    1.593868    0.576879
    6          8             0        1.638647   -0.882559    0.908911
    7          6             0        2.022978   -0.998856    2.293664
    8          6             0        1.095293   -0.180390    3.168769
    9         16             0        1.036487    0.191621   -1.676851
   10          6             0        0.374376    1.795674   -1.160601
   11         16             0       -0.492966    1.744624    0.430362
   12         15             0       -1.995147    0.362382   -0.124360
   13         16             0       -2.648800    0.467138   -1.973695
   14          8             0       -3.102207    0.573815    0.994792
   15          6             0       -4.018587    1.687050    0.956366
   16          6             0       -5.145484    1.396704    1.927463
   17          8             0       -1.348209   -1.005232    0.329695
   18          6             0       -1.702667   -2.268574   -0.268322
   19          6             0       -3.073252   -2.730618    0.179463
   20          1             0        2.835260   -3.483118   -0.137853
   21          1             0        1.452631   -2.724929   -0.947428
   22          1             0        2.398025   -3.963352   -1.786083
   23          1             0        2.959443   -1.668056   -2.599257
   24          1             0        4.373243   -2.453569   -1.838197
   25          1             0        1.947332   -2.064013    2.521240
   26          1             0        3.060792   -0.670807    2.409909
   27          1             0        0.062193   -0.458572    2.975455
   28          1             0        1.332296   -0.363582    4.211915
   29          1             0        1.216495    0.879524    2.954838
   30          1             0       -0.314608    2.103568   -1.946620
   31          1             0        1.190044    2.508482   -1.040713
   32          1             0       -3.472605    2.591514    1.238755
   33          1             0       -4.388872    1.798766   -0.068315
   34          1             0       -5.832334    2.236755    1.936749
   35          1             0       -5.680264    0.500577    1.626165
   36          1             0       -4.744259    1.249107    2.925834
   37          1             0       -1.663312   -2.162913   -1.357645
   38          1             0       -0.917667   -2.947503    0.068370
   39          1             0       -3.125752   -2.756091    1.264586
   40          1             0       -3.833731   -2.046269   -0.194210
   41          1             0       -3.264847   -3.723258   -0.216220
 --------------------------------------------------------------------
     1 basis functions        1 primitive gaussians
     1 alpha electrons        1 beta electrons
 
 Harmonic frequencies (cm**-1), IR intensities (km*mol⁻¹),
 Raman scattering activities (A**4/amu), Raman depolarization ratios,
 reduced masses (AMU), force constants (mDyne/A) and normal coordinates:
                      1                      2                      3
                        a                      a                      a 
 Frequencies --    44.2700                46.2131                50.0206
 Red. masses --    22.3384                20.3457                18.5423
 Frc consts  --     0.0000                 0.0000                 0.0000
 IR Inten    --     5.2369                 2.9414                 1.5604
 Raman Activ --     0.0000                 0.0000                 0.0000
 Depolar     --     0.0000                 0.0000                 0.0000
 Atom AN      X      Y      Z        X      Y      Z        X      Y      Z
   1   6     0.19  -0.00  -0.06     0.09  -0.05   0.20    -0.19  -0.01   0.16
   2   6     0.17   0.07   0.05     0.10  -0.08   0.16    -0.14  -0.06   0.15
   3   8     0.03   0.07   0.11     0.09  -0.04   0.13    -0.12  -0.06   0.15
   4  15    -0.15  -0.07   0.05     0.10   0.01   0.03    -0.11   0.14  -0.04
   5  16    -0.45   0.01   0.22     0.07   0.12  -0.16     0.03   0.04   0.04
   6   8    -0.11  -0.16  -0.05     0.06   0.10   0.08    -0.33   0.26  -0.09
   7   6    -0.10  -0.17  -0.04     0.08   0.11   0.07    -0.23  -0.01  -0.12
   8   6    -0.05  -0.12  -0.03     0.05   0.07   0.07    -0.11  -0.04   0.03
   9  16    -0.00  -0.19  -0.11     0.12  -0.19  -0.00     0.19   0.30  -0.28
  10   6     0.02  -0.06  -0.22     0.01  -0.12  -0.06     0.00   0.10  -0.06
  11  16     0.11   0.17  -0.31     0.05  -0.15  -0.08     0.13  -0.10  -0.04
  12  15     0.06   0.10  -0.00    -0.11   0.03  -0.08     0.14  -0.12  -0.03
  13  16    -0.20  -0.03   0.08    -0.36   0.39   0.02     0.07  -0.07  -0.00
  14   8     0.16   0.11   0.10     0.03  -0.05   0.06     0.14  -0.12   0.02
  15   6     0.10   0.07   0.11    -0.00  -0.06   0.16     0.14  -0.08   0.08
  16   6     0.11   0.02   0.10     0.02  -0.16   0.16     0.18  -0.06   0.13
  17   8     0.09   0.09   0.00    -0.06  -0.03  -0.26     0.11  -0.10  -0.09
  18   6     0.12   0.07   0.01    -0.14   0.01  -0.25    -0.04  -0.08  -0.01
  19   6     0.14   0.02   0.01    -0.12   0.02  -0.15    -0.04   0.02   0.09
  20   1     0.04  -0.00  -0.01     0.03  -0.01   0.06    -0.06  -0.00   0.05
  21   1     0.04  -0.02  -0.04     0.03  -0.01   0.05    -0.05   0.01   0.04
  22   1     0.08   0.01  -0.03     0.03  -0.02   0.07    -0.06  -0.01   0.05
  23   1     0.06   0.02   0.01     0.03  -0.03   0.04    -0.03  -0.02   0.04
  24   1     0.06   0.04   0.03     0.03  -0.02   0.05    -0.04  -0.03   0.05
  25   1    -0.05  -0.05  -0.02     0.04   0.03   0.02    -0.09  -0.01  -0.07
  26   1    -0.02  -0.07  -0.01     0.02   0.04   0.01    -0.05  -0.04  -0.04
  27   1    -0.02  -0.02  -0.01     0.02   0.01   0.02    -0.04   0.02   0.02
  28   1    -0.02  -0.04  -0.01     0.02   0.03   0.02    -0.02  -0.05  -0.00
  29   1     0.00  -0.04  -0.01     0.00   0.02   0.02    -0.01  -0.01   0.04
  30   1    -0.00  -0.04  -0.07    -0.00  -0.05  -0.02    -0.02   0.03  -0.00
  31   1     0.01  -0.01  -0.09    -0.00  -0.03  -0.03    -0.02   0.05  -0.01
  32   1     0.02   0.02   0.03    -0.01  -0.02   0.06     0.05  -0.03   0.02
  33   1     0.03   0.02   0.03    -0.01   0.00   0.05     0.03  -0.02   0.03
  34   1     0.03  -0.00   0.04    -0.00  -0.05   0.06     0.06  -0.01   0.05
  35   1     0.04   0.00   0.02     0.01  -0.05   0.03     0.04  -0.01   0.04
  36   1     0.03   0.00   0.03     0.01  -0.06   0.04     0.06  -0.02   0.03
  37   1     0.03   0.02   0.00    -0.07   0.01  -0.07    -0.03  -0.04  -0.01
  38   1     0.04   0.03   0.00    -0.04  -0.01  -0.10    -0.02  -0.04  -0.01
  39   1     0.04   0.00   0.00    -0.01   0.00  -0.04     0.01   0.02   0.03
  40   1     0.03   0.00   0.01    -0.04   0.01  -0.02    -0.01   0.02   0.03
  41   1     0.05   0.01   0.00    -0.05   0.01  -0.05    -0.04   0.01   0.04
                      4                      5                      6
                        a                      a                      a 
 Frequencies --    49.3502                58.6415                59.2500
 Red. masses --    14.7565                16.8442                17.5517
 Frc consts  --     0.0000                 0.0000                 0.0000
 IR Inten    --     0.6918                 1.4688                 2.0823
 Raman Activ --     0.0000                 0.0000                 0.0000
 Depolar     --     0.0000                 0.0000                 0.0000
 Atom AN      X      Y      Z        X      Y      Z        X      Y      Z
   1   6     0.11   0.10  -0.04     0.15   0.02   0.02    -0.00  -0.07   0.19
   2   6     0.12   0.12   0.01     0.14   0.03   0.02    -0.06  -0.07   0.11
   3   8     0.09   0.13   0.03     0.11   0.07  -0.02    -0.10   0.00   0.04
   4  15     0.04   0.08   0.03     0.09   0.07  -0.11    -0.16   0.04  -0.05
   5  16    -0.14   0.15   0.10    -0.01   0.10  -0.06    -0.19   0.17  -0.30
   6   8     0.04  -0.00  -0.02     0.00   0.04  -0.13    -0.11   0.11   0.03
   7   6     0.10  -0.09  -0.04    -0.05  -0.04  -0.11     0.08  -0.04  -0.03
   8   6     0.19  -0.08   0.04    -0.15  -0.18  -0.09     0.15  -0.16   0.15
   9  16     0.07   0.00  -0.01     0.15   0.01  -0.17    -0.24  -0.09   0.02
  10   6    -0.05  -0.05   0.03    -0.00  -0.05  -0.03    -0.05  -0.02   0.03
  11  16    -0.07  -0.25   0.05     0.25  -0.21   0.07     0.08  -0.01   0.13
  12  15    -0.11  -0.15  -0.08     0.01  -0.01   0.20     0.08  -0.02   0.12
  13  16     0.03  -0.13  -0.13    -0.04   0.01   0.23     0.21   0.02   0.09
  14   8    -0.12  -0.04  -0.11     0.04   0.15   0.15     0.02   0.02   0.04
  15   6     0.12   0.15  -0.02    -0.04   0.06  -0.04     0.09   0.08  -0.01
  16   6     0.20   0.43   0.15    -0.25  -0.05  -0.33     0.00   0.12  -0.09
  17   8    -0.17  -0.14  -0.03    -0.12  -0.06   0.17    -0.02  -0.04   0.13
  18   6    -0.21  -0.11  -0.01    -0.18  -0.02   0.12     0.16   0.02  -0.11
  19   6    -0.22  -0.04   0.04    -0.23   0.07   0.06     0.09  -0.09  -0.44
  20   1     0.02   0.02  -0.01     0.04   0.02   0.01     0.01  -0.00   0.06
  21   1     0.03   0.02  -0.02     0.04  -0.00  -0.00    -0.00  -0.03   0.06
  22   1     0.04   0.03  -0.02     0.06  -0.00   0.01     0.00  -0.03   0.07
  23   1     0.04   0.04  -0.00     0.04  -0.00  -0.00    -0.03  -0.04   0.03
  24   1     0.04   0.04   0.01     0.04   0.01   0.01    -0.01  -0.01   0.03
  25   1     0.02  -0.03  -0.02     0.00  -0.02  -0.05     0.04  -0.02  -0.04
  26   1     0.04  -0.04  -0.02    -0.02   0.01  -0.01     0.02  -0.01  -0.03
  27   1     0.05  -0.01   0.03    -0.04  -0.07  -0.05     0.04  -0.05   0.07
  28   1     0.07  -0.03   0.01    -0.06  -0.07  -0.03     0.08  -0.07   0.03
  29   1     0.06  -0.02   0.02    -0.06  -0.04   0.00     0.02  -0.04   0.07
  30   1    -0.02  -0.02   0.01    -0.03  -0.03   0.01    -0.02   0.00   0.02
  31   1    -0.02  -0.00   0.02    -0.02   0.00  -0.03    -0.00  -0.02  -0.01
  32   1     0.10   0.02  -0.04    -0.05   0.03   0.04     0.04   0.01   0.01
  33   1     0.00   0.05   0.01     0.06   0.02  -0.04     0.05   0.03  -0.01
  34   1     0.10   0.16   0.05    -0.08  -0.02  -0.13     0.01   0.05  -0.04
  35   1     0.00   0.15   0.08    -0.04  -0.02  -0.15    -0.01   0.05  -0.04
  36   1     0.09   0.13   0.03    -0.14  -0.03  -0.07    -0.02   0.02  -0.02
  37   1    -0.07  -0.03  -0.00    -0.04  -0.00   0.04     0.11   0.04  -0.03
  38   1    -0.07  -0.04  -0.01    -0.07  -0.02   0.04     0.04   0.00  -0.01
  39   1    -0.05  -0.01   0.01    -0.08   0.02   0.02    -0.03  -0.06  -0.13
  40   1    -0.06  -0.00   0.02    -0.05   0.04   0.01     0.04  -0.02  -0.14
  41   1    -0.08  -0.01   0.01    -0.08   0.03   0.01     0.06  -0.01  -0.17
                      7                      8                      9
                        a                      a                      a 
 Frequencies --    55.1623                72.8973                65.7810
 Red. masses --    11.2718                21.6541                13.2601
 Frc consts  --     0.0000                 0.0000                 0.0000
 IR Inten    --     2.2053                 0.7661                 2.2343
 Raman Activ --     0.0000                 0.0000                 0.0000
 Depolar     --     0.0000                 0.0000                 0.0000
 Atom AN      X      Y      Z        X      Y      Z        X      Y      Z
   1   6    -0.06   0.07  -0.16     0.06  -0.05   0.15     0.37  -0.20   0.34
   2   6     0.01   0.05  -0.08     0.01  -0.06   0.05     0.01  -0.07  -0.00
   3   8     0.02  -0.00  -0.03     0.06  -0.03  -0.01    -0.01   0.09  -0.20
   4  15     0.05  -0.02   0.01     0.17   0.07  -0.03    -0.03  -0.02  -0.11
   5  16     0.05  -0.01  -0.02     0.38  -0.07   0.02    -0.09  -0.02  -0.05
   6   8     0.08  -0.03   0.03     0.00   0.12  -0.06     0.07  -0.12  -0.10
   7   6    -0.18   0.25   0.12     0.01  -0.09  -0.07    -0.08   0.02  -0.03
   8   6    -0.46   0.24  -0.16    -0.11  -0.33   0.03    -0.30  -0.08  -0.17
   9  16     0.03  -0.07   0.02     0.15   0.14  -0.00    -0.15   0.06   0.00
  10   6    -0.00  -0.05  -0.00    -0.01   0.06  -0.02    -0.02   0.04   0.09
  11  16     0.05  -0.09   0.02    -0.22   0.15  -0.15    -0.02  -0.01   0.16
  12  15     0.03  -0.11   0.10    -0.19   0.04  -0.01     0.02   0.04  -0.03
  13  16    -0.03  -0.13   0.13    -0.33  -0.25   0.03     0.19   0.22  -0.09
  14   8     0.06  -0.02   0.10    -0.09   0.09   0.03    -0.06  -0.06  -0.08
  15   6     0.15   0.07   0.09    -0.05   0.10   0.03    -0.02  -0.02  -0.01
  16   6     0.13   0.18   0.10    -0.02   0.15   0.08     0.10   0.06   0.15
  17   8    -0.03  -0.10   0.07    -0.09   0.08   0.08     0.02   0.02  -0.05
  18   6     0.06  -0.04  -0.09     0.13   0.05  -0.00    -0.01  -0.00   0.01
  19   6    -0.01  -0.06  -0.31     0.15  -0.14  -0.12     0.06  -0.04   0.16
  20   1    -0.03   0.00  -0.05     0.03  -0.00   0.04     0.18   0.01   0.09
  21   1    -0.01   0.03  -0.05     0.02  -0.02   0.05     0.09  -0.12   0.14
  22   1    -0.02   0.03  -0.06     0.01  -0.03   0.05     0.12  -0.09   0.13
  23   1     0.02   0.03  -0.02    -0.01  -0.03   0.02    -0.09  -0.07   0.02
  24   1     0.00   0.00  -0.02     0.00  -0.02   0.00     0.01   0.04  -0.06
  25   1    -0.02   0.08   0.08     0.04  -0.04  -0.07     0.02   0.01   0.00
  26   1    -0.07   0.12   0.08    -0.01   0.01  -0.00    -0.04   0.05   0.02
  27   1    -0.11   0.03  -0.10    -0.02  -0.12  -0.01    -0.07  -0.06  -0.08
  28   1    -0.19   0.11  -0.03    -0.03  -0.13   0.00    -0.12  -0.01  -0.04
  29   1    -0.15   0.07  -0.07    -0.07  -0.08   0.05    -0.12  -0.02  -0.05
  30   1    -0.01  -0.02   0.00     0.01   0.01  -0.02    -0.00   0.03   0.03
  31   1    -0.00  -0.01  -0.01    -0.01   0.02   0.01     0.00  -0.00   0.03
  32   1     0.07   0.01   0.02    -0.01   0.03  -0.00     0.01  -0.01  -0.04
  33   1     0.04   0.03   0.03    -0.03   0.02   0.01    -0.04  -0.02   0.01
  34   1     0.06   0.07   0.02    -0.00   0.05   0.02     0.03   0.02   0.05
  35   1     0.02   0.06   0.03    -0.02   0.05   0.04     0.01   0.01   0.08
  36   1     0.03   0.05   0.03     0.00   0.05   0.02     0.06   0.03   0.03
  37   1     0.06   0.01  -0.02     0.06   0.03   0.00    -0.03  -0.01   0.00
  38   1     0.00  -0.02  -0.01     0.05   0.04   0.01     0.01   0.01  -0.02
  39   1    -0.04  -0.04  -0.09     0.02  -0.06  -0.04     0.05  -0.00   0.05
  40   1     0.02  -0.01  -0.10     0.03  -0.06  -0.04    -0.00  -0.02   0.07
  41   1     0.01  -0.01  -0.12     0.08  -0.04  -0.06     0.01  -0.02   0.06
                     10                     11                     12
                        a                      a                      a 
 Frequencies --    66.7380                72.9317                90.1254
 Red. masses --    13.4277                12.2627                13.1936
 Frc consts  --     0.0000                 0.0000                 0.0000
 IR Inten    --     2.2434                 0.9979                 3.7374
 Raman Activ --     0.0000                 0.0000                 0.0000
 Depolar     --     0.0000                 0.0000                 0.0000
 Atom AN      X      Y      Z        X      Y      Z        X      Y      Z
   1   6     0.18  -0.13   0.11    -0.15   0.07  -0.16     0.06  -0.03  -0.17
   2   6     0.01  -0.05   0.01     0.03   0.01   0.01     0.19  -0.02   0.05
   3   8    -0.02  -0.01  -0.03    -0.01  -0.05   0.10     0.06  -0.09   0.18
   4  15    -0.04  -0.03  -0.04    -0.02  -0.00   0.01     0.01  -0.02  -0.03
   5  16     0.04  -0.18   0.22    -0.03   0.05  -0.10     0.04   0.01  -0.13
   6   8    -0.11  -0.06  -0.12    -0.06   0.07   0.03    -0.15   0.10  -0.05
   7   6    -0.11  -0.04  -0.10    -0.03   0.04   0.02    -0.12  -0.02  -0.06
   8   6     0.28   0.45  -0.15    -0.10  -0.07   0.05    -0.01   0.06  -0.01
   9  16     0.07   0.18  -0.12     0.03  -0.06  -0.03     0.10  -0.07  -0.09
  10   6    -0.03   0.05   0.04    -0.00  -0.05   0.02     0.01  -0.07  -0.01
  11  16    -0.00  -0.10   0.09     0.10  -0.16   0.09     0.10  -0.06   0.04
  12  15    -0.07  -0.02   0.08    -0.04   0.03  -0.01    -0.08   0.12   0.07
  13  16    -0.15   0.04   0.11    -0.04   0.29   0.00     0.27   0.05  -0.06
  14   8    -0.04   0.03   0.07    -0.04   0.04  -0.02    -0.14   0.13  -0.05
  15   6     0.00   0.05  -0.01     0.04   0.09  -0.04    -0.36  -0.09  -0.09
  16   6    -0.09   0.09  -0.10    -0.04   0.15  -0.13     0.01  -0.07   0.34
  17   8    -0.08  -0.03   0.04    -0.08  -0.02  -0.06    -0.17   0.08   0.20
  18   6     0.07  -0.01  -0.08     0.08  -0.03  -0.09     0.01   0.06   0.09
  19   6     0.11  -0.18  -0.12     0.34  -0.43   0.31    -0.01  -0.06  -0.09
  20   1     0.08  -0.01   0.03    -0.09  -0.00  -0.04    -0.03  -0.03  -0.04
  21   1     0.04  -0.07   0.05    -0.04   0.05  -0.08     0.02   0.00  -0.08
  22   1     0.07  -0.05   0.04    -0.04   0.03  -0.06     0.04   0.01  -0.07
  23   1    -0.03  -0.03   0.01     0.06   0.02  -0.01     0.10   0.01  -0.00
  24   1     0.01   0.02  -0.02     0.01  -0.02   0.04     0.06  -0.01   0.06
  25   1    -0.16   0.00   0.00     0.02   0.01  -0.00    -0.07  -0.01  -0.03
  26   1     0.01  -0.13  -0.05    -0.02   0.03   0.01    -0.02  -0.04  -0.02
  27   1     0.05   0.24  -0.01    -0.02  -0.04   0.01    -0.01   0.05   0.00
  28   1     0.08   0.15  -0.04    -0.02  -0.03   0.01     0.00   0.00  -0.01
  29   1     0.19   0.11  -0.09    -0.05  -0.01   0.03     0.03   0.01   0.00
  30   1    -0.02   0.02   0.02    -0.01  -0.02   0.02    -0.01  -0.03   0.00
  31   1    -0.02   0.02   0.02    -0.00  -0.01  -0.00    -0.00  -0.01  -0.01
  32   1     0.00   0.01   0.01     0.02   0.01   0.00    -0.14   0.03  -0.15
  33   1     0.02   0.02  -0.01     0.03   0.04  -0.02    -0.20  -0.13  -0.00
  34   1    -0.02   0.03  -0.05     0.00   0.05  -0.05    -0.05  -0.06   0.10
  35   1    -0.02   0.03  -0.04    -0.02   0.05  -0.05     0.03  -0.08   0.22
  36   1    -0.05   0.03  -0.02    -0.04   0.03  -0.03     0.10   0.08   0.07
  37   1     0.02   0.02  -0.02    -0.08   0.03  -0.03     0.04   0.03   0.03
  38   1     0.04   0.01  -0.03     0.10   0.04  -0.12     0.01   0.03   0.04
  39   1     0.03  -0.08  -0.04     0.20  -0.16   0.09    -0.04  -0.03  -0.03
  40   1     0.01  -0.07  -0.02     0.01  -0.17   0.18    -0.00  -0.03  -0.04
  41   1     0.06  -0.05  -0.06     0.14  -0.13   0.08     0.03  -0.02  -0.05
                     13                     14                     15
                        a                      a                      a 
 Frequencies --    98.3300                99.8736               115.5807
 Red. masses --    11.7086                11.9817                15.0982
 Frc consts  --     0.0000                 0.0000                 0.0000
 IR Inten    --     0.6184                 3.1907                 9.4441
 Raman Activ --     0.0000                 0.0000                 0.0000
 Depolar     --     0.0000                 0.0000                 0.0000
 Atom AN      X      Y      Z        X      Y      Z        X      Y      Z
   1   6     0.40  -0.25  -0.27    -0.06   0.06   0.04     0.05  -0.00  -0.14
   2   6    -0.01   0.15  -0.17     0.16  -0.09   0.11     0.37  -0.13   0.14
   3   8    -0.12  -0.12   0.18     0.08   0.01   0.01     0.07  -0.05   0.13
   4  15    -0.10   0.02   0.08     0.05  -0.02  -0.05    -0.01  -0.07  -0.04
   5  16     0.20  -0.04  -0.14    -0.00   0.01  -0.08     0.05   0.00  -0.27
   6   8    -0.22   0.22   0.11     0.01  -0.04  -0.08    -0.09   0.00  -0.07
   7   6    -0.10   0.06   0.07    -0.06  -0.05  -0.06    -0.13  -0.09  -0.06
   8   6    -0.02   0.01   0.20    -0.00   0.06  -0.11    -0.03   0.02  -0.06
   9  16    -0.06  -0.04   0.05    -0.03  -0.00   0.02    -0.13   0.07   0.09
  10   6     0.00   0.00   0.00     0.01   0.01   0.02    -0.00   0.05   0.16
  11  16    -0.05   0.05  -0.03    -0.14   0.10  -0.04    -0.22   0.08   0.17
  12  15     0.00  -0.01  -0.03    -0.09   0.05  -0.04     0.01  -0.07   0.02
  13  16     0.04  -0.06  -0.05     0.30  -0.09  -0.19    -0.19   0.07   0.09
  14   8     0.01  -0.01  -0.01    -0.09   0.01  -0.05    -0.03  -0.21   0.01
  15   6     0.11   0.07   0.11     0.14   0.20   0.42     0.08  -0.09  -0.08
  16   6    -0.02  -0.02  -0.06    -0.09  -0.19   0.05     0.02   0.14  -0.10
  17   8    -0.01  -0.01  -0.02    -0.16   0.03   0.08     0.24   0.02  -0.11
  18   6    -0.06  -0.00  -0.00    -0.06   0.03   0.02     0.10  -0.02   0.05
  19   6    -0.05   0.02   0.06    -0.02  -0.08   0.03     0.02   0.21   0.04
  20   1     0.21  -0.13  -0.14    -0.09   0.04   0.05    -0.10   0.00   0.01
  21   1     0.10  -0.15   0.04    -0.02   0.05  -0.06     0.01   0.03  -0.16
  22   1     0.12  -0.01  -0.15     0.00  -0.00   0.03     0.07  -0.01  -0.03
  23   1    -0.09   0.10   0.01     0.12  -0.05  -0.01     0.23  -0.05  -0.02
  24   1     0.02   0.14  -0.15     0.05  -0.06   0.11     0.12  -0.06   0.17
  25   1    -0.03   0.01  -0.00    -0.05  -0.01  -0.01    -0.08  -0.03  -0.02
  26   1    -0.02   0.01   0.00    -0.01  -0.05  -0.01    -0.02  -0.07  -0.01
  27   1    -0.01   0.01   0.08    -0.01   0.05  -0.04    -0.02   0.05  -0.02
  28   1     0.02  -0.02   0.05    -0.02   0.02  -0.03    -0.02  -0.01  -0.02
  29   1    -0.01   0.01   0.07     0.03   0.01  -0.04     0.03   0.00  -0.01
  30   1     0.01   0.01  -0.00     0.02   0.01  -0.00     0.02   0.04   0.04
  31   1     0.01  -0.01   0.00     0.01  -0.01   0.02     0.01  -0.01   0.08
  32   1     0.05  -0.01   0.10     0.07  -0.02   0.30     0.05  -0.04  -0.04
  33   1     0.06   0.09   0.03     0.10   0.25   0.12     0.03  -0.04  -0.03
  34   1     0.02   0.01   0.01     0.02  -0.02   0.13     0.04   0.07  -0.06
  35   1    -0.02   0.02  -0.08    -0.06   0.03  -0.17    -0.02   0.05  -0.01
  36   1    -0.04  -0.07  -0.01    -0.08  -0.25   0.01    -0.01   0.05  -0.02
  37   1    -0.03  -0.00  -0.00    -0.02   0.02   0.01     0.05  -0.05   0.01
  38   1    -0.02  -0.01  -0.01    -0.00   0.02  -0.00     0.00  -0.02   0.05
  39   1     0.00   0.01   0.02     0.00  -0.04   0.01    -0.01   0.11   0.01
  40   1    -0.01   0.01   0.03    -0.02  -0.03   0.02     0.04   0.07  -0.03
  41   1    -0.03   0.01   0.02     0.01  -0.02  -0.01    -0.02   0.05   0.05
                     16                     17                     18
                        a                      a                      a 
 Frequencies --   129.8035               143.1409               145.9874
 Red. masses --    13.9442                20.6839                17.9822
 Frc consts  --     0.0000                 0.0000                 0.0000
 IR Inten    --     3.8074                 4.2577                 6.4346
 Raman Activ --     0.0000                 0.0000                 0.0000
 Depolar     --     0.0000                 0.0000                 0.0000
 Atom AN      X      Y      Z        X      Y      Z        X      Y      Z
   1   6    -0.02  -0.04  -0.03    -0.04   0.18   0.09     0.06   0.01  -0.04
   2   6    -0.08   0.01  -0.05    -0.09   0.16  -0.02     0.24  -0.09   0.07
   3   8    -0.01  -0.06   0.02     0.04   0.17  -0.05    -0.08   0.07  -0.06
   4  15     0.01  -0.02  -0.02     0.07   0.17   0.02    -0.17   0.03  -0.11
   5  16    -0.10  -0.01   0.08     0.35   0.00   0.09     0.16  -0.33   0.29
   6   8     0.01   0.01   0.01    -0.06   0.11  -0.09    -0.07   0.09   0.03
   7   6     0.08   0.09  -0.00    -0.21  -0.21  -0.07     0.21   0.29  -0.03
   8   6     0.00  -0.02   0.02    -0.01   0.00  -0.06     0.04  -0.03   0.08
   9  16     0.19   0.01  -0.17    -0.19  -0.37   0.16    -0.20   0.04  -0.14
  10   6    -0.07  -0.08  -0.03    -0.14  -0.16  -0.15    -0.15   0.04  -0.15
  11  16    -0.02  -0.22  -0.01    -0.07   0.08  -0.15    -0.07   0.12  -0.15
  12  15    -0.15  -0.04  -0.06     0.03  -0.09   0.06     0.03  -0.08   0.08
  13  16    -0.05   0.32  -0.09     0.13   0.27   0.04     0.14   0.16   0.06
  14   8    -0.17  -0.13  -0.09    -0.01  -0.12   0.02     0.02  -0.05   0.05
  15   6     0.02   0.04   0.10     0.04  -0.06  -0.03     0.03  -0.04  -0.02
  16   6    -0.06   0.04   0.01     0.01   0.04  -0.03     0.01   0.02  -0.02
  17   8     0.07   0.10   0.06     0.03  -0.06   0.03    -0.05  -0.09   0.05
  18   6     0.28  -0.13   0.39     0.02  -0.08   0.07    -0.07  -0.06  -0.01
  19   6     0.07   0.09  -0.06    -0.01  -0.03   0.01    -0.07  -0.07  -0.01
  20   1     0.02  -0.03  -0.03     0.01   0.06   0.02    -0.07   0.04   0.04
  21   1    -0.00  -0.02   0.03    -0.01   0.05   0.04     0.01   0.01  -0.12
  22   1    -0.02   0.00  -0.03    -0.02   0.04   0.04     0.07  -0.03   0.02
  23   1    -0.05   0.02   0.00    -0.06   0.05   0.01     0.16  -0.07  -0.04
  24   1    -0.03   0.01  -0.05    -0.03   0.04  -0.04     0.09  -0.03   0.14
  25   1     0.07   0.03   0.01    -0.18  -0.06  -0.06     0.20   0.08   0.02
  26   1     0.01   0.07  -0.01    -0.03  -0.17   0.02     0.03   0.20  -0.06
  27   1     0.01  -0.05   0.02    -0.02   0.10  -0.05     0.03  -0.13   0.08
  28   1     0.02   0.01   0.00    -0.04  -0.05  -0.02     0.09   0.03   0.01
  29   1    -0.04  -0.00  -0.00     0.10  -0.01   0.01    -0.12   0.00   0.00
  30   1    -0.03  -0.04  -0.00    -0.06  -0.09  -0.05    -0.06  -0.01  -0.04
  31   1    -0.04   0.00  -0.02    -0.05  -0.03  -0.09    -0.05   0.02  -0.07
  32   1     0.05  -0.03   0.08     0.02  -0.02  -0.02     0.01  -0.01  -0.02
  33   1     0.02   0.08   0.03     0.02  -0.02  -0.01     0.01  -0.03  -0.01
  34   1     0.03   0.05   0.05     0.02   0.02  -0.02     0.00   0.00  -0.03
  35   1    -0.06   0.06  -0.06    -0.01   0.02   0.00     0.01  -0.00   0.01
  36   1    -0.03  -0.07  -0.00    -0.00   0.02  -0.00    -0.00   0.03   0.00
  37   1     0.22  -0.16   0.11     0.03  -0.04   0.02    -0.02  -0.00  -0.00
  38   1     0.03  -0.00   0.29    -0.00  -0.02   0.04    -0.02  -0.02  -0.01
  39   1    -0.12   0.15  -0.02    -0.02   0.01   0.00    -0.02  -0.03  -0.00
  40   1     0.08  -0.01  -0.20     0.01  -0.01  -0.02    -0.02  -0.02   0.00
  41   1     0.06  -0.02   0.07    -0.00  -0.01   0.01    -0.02  -0.02  -0.01
                     19                     20                     21
                        a                      a                      a 
 Frequencies --   170.6934               170.8595               201.2106
 Red. masses --    25.7385                15.2635                19.8220
 Frc consts  --     0.0000                 0.0000                 0.0000
 IR Inten    --     5.7321                14.4384                45.1820
 Raman Activ --     0.0000                 0.0000                 0.0000
 Depolar     --     0.0000                 0.0000                 0.0000
 Atom AN      X      Y      Z        X      Y      Z        X      Y      Z
   1   6     0.02   0.14   0.06    -0.03  -0.02   0.01    -0.05  -0.11  -0.05
   2   6     0.08   0.07   0.03    -0.05  -0.01  -0.01    -0.05  -0.08  -0.01
   3   8    -0.05   0.19  -0.08     0.04  -0.06   0.03     0.13  -0.19   0.09
   4  15    -0.16   0.09  -0.04     0.07   0.03  -0.09     0.25   0.08  -0.22
   5  16     0.21  -0.16   0.09    -0.04  -0.02   0.17    -0.18   0.10   0.31
   6   8    -0.09   0.08   0.00    -0.04   0.11  -0.07    -0.11   0.31  -0.21
   7   6    -0.04   0.04  -0.01     0.04   0.09  -0.09     0.05   0.17  -0.25
   8   6    -0.01   0.01   0.05     0.01  -0.00  -0.03     0.02   0.00  -0.14
   9  16    -0.30  -0.14   0.02     0.09  -0.19  -0.11    -0.16  -0.23   0.17
  10   6     0.02  -0.03   0.08    -0.17  -0.20  -0.03     0.21  -0.05   0.18
  11  16     0.32  -0.34   0.25     0.00  -0.09   0.12    -0.10   0.10   0.10
  12  15     0.01   0.13  -0.20    -0.11   0.08   0.15     0.07   0.01  -0.06
  13  16    -0.24  -0.24  -0.15     0.17  -0.19   0.04    -0.09   0.01  -0.01
  14   8     0.04   0.18  -0.13    -0.23  -0.19   0.03     0.09   0.06  -0.02
  15   6    -0.01   0.11   0.01    -0.08  -0.03   0.07     0.05   0.01  -0.04
  16   6     0.05  -0.09   0.03    -0.16   0.14   0.02     0.08  -0.06  -0.03
  17   8     0.02   0.13  -0.09     0.24   0.14  -0.12    -0.05  -0.03   0.02
  18   6     0.09   0.05   0.04     0.05   0.25  -0.24    -0.02  -0.05   0.05
  19   6     0.07   0.09  -0.00     0.14   0.28   0.05    -0.03  -0.06  -0.00
  20   1    -0.03   0.09   0.05     0.01  -0.02  -0.01     0.02  -0.09  -0.05
  21   1    -0.00   0.04  -0.04    -0.00  -0.00   0.03    -0.00  -0.02   0.05
  22   1     0.04   0.01   0.05    -0.03   0.01  -0.01    -0.06   0.01  -0.05
  23   1     0.05  -0.01  -0.02    -0.03   0.01   0.01    -0.03   0.01   0.02
  24   1     0.03   0.02   0.05    -0.02  -0.01  -0.03    -0.02  -0.03  -0.04
  25   1    -0.01   0.01  -0.01     0.04   0.02  -0.03     0.06   0.04  -0.09
  26   1    -0.01   0.01  -0.01     0.00   0.05  -0.04     0.01   0.08  -0.09
  27   1    -0.01   0.01   0.02     0.01  -0.03   0.00     0.01  -0.03  -0.03
  28   1     0.01  -0.01   0.01     0.02   0.00  -0.01     0.03  -0.01  -0.05
  29   1    -0.00   0.01   0.03    -0.03   0.00  -0.01    -0.04   0.01  -0.03
  30   1    -0.01   0.02   0.05    -0.09  -0.11   0.00     0.11   0.06   0.04
  31   1     0.03  -0.03   0.01    -0.08  -0.02  -0.06     0.11  -0.07   0.11
  32   1    -0.02   0.03   0.03     0.01  -0.04   0.03     0.00   0.01  -0.01
  33   1    -0.02   0.05   0.01    -0.01   0.02   0.02     0.01  -0.00  -0.01
  34   1    -0.00  -0.04   0.06     0.01   0.09   0.01    -0.00  -0.04  -0.01
  35   1     0.03  -0.02  -0.02    -0.10   0.08  -0.01     0.05  -0.03  -0.00
  36   1     0.03  -0.06  -0.00    -0.07  -0.00   0.01     0.03  -0.00  -0.01
  37   1     0.05  -0.02   0.01    -0.07   0.13  -0.07     0.01  -0.03   0.01
  38   1     0.02   0.03   0.05     0.03   0.04  -0.16    -0.01  -0.01   0.03
  39   1    -0.00   0.07  -0.00     0.13   0.02   0.02    -0.03  -0.00  -0.00
  40   1     0.03   0.01  -0.05     0.03   0.13   0.12    -0.01  -0.03  -0.02
  41   1     0.03   0.01   0.04    -0.03   0.11  -0.03     0.01  -0.03   0.01
                     22                     23                     24
                        a                      a                      a 
 Frequencies --   202.9494               222.7460               230.9131
 Red. masses --     5.9349                12.6365                10.9105
 Frc consts  --     0.0000                 0.0000                 0.0000
 IR Inten    --     5.7097                 0.9423                10.7051
 Raman Activ --     0.0000                 0.0000                 0.0000
 Depolar     --     0.0000                 0.0000                 0.0000
 Atom AN      X      Y      Z        X      Y      Z        X      Y      Z
   1   6    -0.00  -0.01  -0.01    -0.02  -0.32  -0.16     0.03   0.06   0.02
   2   6    -0.00  -0.00  -0.00     0.02  -0.26  -0.01     0.07  -0.09  -0.17
   3   8    -0.00  -0.01   0.00    -0.13  -0.11  -0.14     0.01   0.06  -0.36
   4  15     0.00   0.00   0.00     0.15   0.15   0.01     0.07  -0.08  -0.14
   5  16     0.01   0.01  -0.00    -0.04   0.23   0.17    -0.17  -0.07   0.07
   6   8     0.00  -0.00  -0.01     0.18   0.09   0.04     0.00   0.25   0.12
   7   6    -0.00  -0.01  -0.01    -0.00  -0.05   0.07    -0.13   0.06   0.16
   8   6    -0.00  -0.01  -0.01    -0.01  -0.00   0.02    -0.02   0.03   0.33
   9  16     0.01   0.00   0.01    -0.05   0.10   0.17     0.07  -0.06  -0.13
  10   6    -0.08  -0.03   0.02    -0.36   0.01  -0.15     0.26  -0.01   0.07
  11  16    -0.13  -0.10   0.02     0.10  -0.03   0.08    -0.04  -0.01  -0.10
  12  15    -0.12   0.02  -0.02     0.06   0.05  -0.04    -0.05  -0.04   0.03
  13  16     0.16  -0.04  -0.13    -0.03  -0.02  -0.02     0.03   0.03   0.01
  14   8     0.11   0.10   0.20     0.04   0.06  -0.06    -0.04  -0.06   0.04
  15   6     0.09   0.09   0.19     0.02   0.04  -0.04    -0.02  -0.03   0.05
  16   6    -0.07   0.03  -0.00     0.07  -0.05  -0.01    -0.07   0.05   0.02
  17   8     0.02   0.02  -0.18    -0.02   0.01  -0.02     0.01  -0.01   0.02
  18   6     0.03  -0.03  -0.04    -0.01  -0.00  -0.00     0.01   0.00   0.01
  19   6     0.03   0.02   0.01    -0.00  -0.01  -0.01     0.01   0.01   0.00
  20   1    -0.00  -0.00  -0.00    -0.08  -0.06  -0.01    -0.03   0.13   0.06
  21   1    -0.00  -0.00  -0.01    -0.04  -0.13  -0.15    -0.01   0.02  -0.09
  22   1     0.00  -0.00  -0.00     0.09  -0.11  -0.04     0.06  -0.06   0.09
  23   1     0.00  -0.00  -0.00     0.06  -0.11  -0.04     0.04  -0.07  -0.07
  24   1    -0.00  -0.00   0.00     0.02  -0.07   0.07     0.02  -0.03  -0.01
  25   1    -0.00  -0.00  -0.00    -0.05  -0.02  -0.01    -0.09   0.01   0.00
  26   1    -0.00  -0.00  -0.00     0.01  -0.06   0.06    -0.03  -0.04   0.07
  27   1    -0.00  -0.01   0.00    -0.01   0.12  -0.14    -0.03   0.19  -0.05
  28   1     0.00   0.00  -0.00    -0.14  -0.13   0.01    -0.13  -0.22   0.08
  29   1    -0.00  -0.00  -0.01     0.13   0.01   0.13     0.17   0.03   0.30
  30   1    -0.03  -0.02   0.01    -0.19  -0.12  -0.02     0.14   0.09   0.00
  31   1    -0.03   0.00   0.00    -0.16   0.09  -0.16     0.12  -0.06   0.11
  32   1     0.01   0.02   0.08    -0.00   0.01  -0.01     0.00  -0.01   0.01
  33   1     0.05   0.04   0.05    -0.00   0.01  -0.01    -0.00  -0.01   0.01
  34   1    -0.27  -0.19  -0.38     0.02  -0.02   0.03    -0.02   0.01  -0.04
  35   1     0.29  -0.24   0.20     0.02  -0.01  -0.02    -0.01   0.00   0.03
  36   1    -0.14   0.44   0.11     0.04  -0.04  -0.02    -0.04   0.05   0.02
  37   1     0.02  -0.04  -0.02     0.00  -0.01  -0.00     0.00   0.00   0.00
  38   1     0.01   0.00   0.01    -0.00   0.00   0.01     0.00  -0.00   0.00
  39   1    -0.02   0.15   0.01    -0.01   0.03  -0.00     0.02  -0.04   0.00
  40   1    -0.00  -0.07  -0.11    -0.01  -0.03  -0.03     0.01   0.04   0.04
  41   1     0.05  -0.05   0.13     0.02  -0.02   0.03    -0.02   0.03  -0.04
                     25                     26                     27
                        a                      a                      a 
 Frequencies --   218.2354               235.0156               258.9255
 Red. masses --     4.7868                 4.8920                12.2876
 Frc consts  --     0.0000                 0.0000                 0.0000
 IR Inten    --     1.5472                 4.4007                 7.9650
 Raman Activ --     0.0000                 0.0000                 0.0000
 Depolar     --     0.0000                 0.0000                 0.0000
 Atom AN      X      Y      Z        X      Y      Z        X      Y      Z
   1   6     0.01   0.03   0.01     0.00  -0.08  -0.06     0.02   0.15   0.08
   2   6     0.01   0.01  -0.02    -0.08  -0.04  -0.11     0.12  -0.05  -0.11
   3   8     0.01   0.01  -0.02    -0.08   0.02  -0.18     0.17  -0.00  -0.20
   4  15     0.00  -0.02  -0.02     0.08   0.05   0.06     0.16  -0.20  -0.10
   5  16    -0.02  -0.02  -0.00    -0.00   0.14   0.02    -0.14  -0.12  -0.05
   6   8    -0.01   0.02   0.01    -0.08   0.05  -0.03    -0.08   0.11   0.02
   7   6    -0.01   0.01   0.01    -0.15  -0.07  -0.01    -0.19  -0.01   0.07
   8   6    -0.00  -0.00   0.03    -0.01   0.01   0.06    -0.02   0.03   0.23
   9  16     0.01  -0.01  -0.01     0.14  -0.07   0.13     0.12   0.04  -0.00
  10   6     0.06   0.01  -0.01     0.07  -0.04   0.03    -0.29  -0.09   0.01
  11  16     0.10   0.13   0.00    -0.01  -0.03  -0.03    -0.18   0.07   0.18
  12  15     0.01   0.09   0.10    -0.01  -0.01   0.01     0.06   0.03  -0.02
  13  16     0.08  -0.11   0.08     0.01   0.00   0.00    -0.02   0.01   0.01
  14   8    -0.01  -0.03   0.09     0.01   0.02   0.02     0.09   0.13  -0.04
  15   6    -0.08  -0.07  -0.01    -0.01  -0.00   0.00     0.07   0.08  -0.10
  16   6    -0.09   0.08   0.03    -0.01   0.00   0.00     0.16  -0.11  -0.05
  17   8    -0.02  -0.02  -0.19     0.01   0.00  -0.01    -0.02   0.01   0.03
  18   6    -0.09  -0.02  -0.15     0.01   0.01  -0.01    -0.01   0.02  -0.01
  19   6    -0.03  -0.09  -0.01     0.01   0.02  -0.00    -0.00  -0.01  -0.00
  20   1     0.00   0.01   0.00    -0.15   0.24   0.14     0.11  -0.07  -0.06
  21   1     0.00   0.01   0.00    -0.10  -0.15  -0.32     0.08   0.16   0.21
  22   1    -0.00   0.00   0.01     0.29  -0.19   0.16    -0.21   0.10  -0.03
  23   1     0.00   0.00  -0.01    -0.03  -0.03  -0.04     0.04  -0.03  -0.04
  24   1     0.00   0.00  -0.01    -0.02   0.00  -0.02     0.03  -0.04  -0.03
  25   1    -0.01   0.00  -0.00    -0.07  -0.02  -0.01    -0.09  -0.00  -0.00
  26   1    -0.00  -0.00   0.00    -0.03  -0.05   0.00    -0.04  -0.04   0.03
  27   1    -0.00   0.01   0.00    -0.00  -0.21   0.32    -0.02  -0.07   0.24
  28   1    -0.00  -0.01   0.01     0.27   0.28   0.00     0.16   0.10   0.05
  29   1     0.01   0.00   0.02    -0.22  -0.02  -0.24    -0.10  -0.00  -0.03
  30   1     0.02   0.01  -0.00     0.03  -0.01  -0.00    -0.14  -0.13   0.01
  31   1     0.03  -0.00  -0.00     0.02  -0.01   0.02    -0.13   0.04  -0.08
  32   1    -0.03  -0.01  -0.03    -0.01   0.00  -0.00     0.00   0.03  -0.03
  33   1    -0.02  -0.05  -0.00    -0.00  -0.01  -0.00     0.01   0.01  -0.03
  34   1     0.08   0.11   0.11     0.01   0.01   0.01     0.02  -0.05   0.04
  35   1    -0.15   0.11  -0.05    -0.02   0.01  -0.01     0.06  -0.03  -0.04
  36   1    -0.01  -0.11  -0.02     0.00  -0.02  -0.00     0.08  -0.07  -0.03
  37   1    -0.04  -0.02  -0.04     0.00   0.00  -0.00    -0.00   0.01  -0.00
  38   1    -0.01   0.01  -0.05     0.00   0.00  -0.00    -0.00   0.00  -0.01
  39   1    -0.11   0.43   0.00     0.00   0.00  -0.00    -0.01   0.02  -0.00
  40   1    -0.09  -0.32  -0.37     0.00   0.01   0.00    -0.01  -0.02  -0.02
  41   1     0.20  -0.23   0.42    -0.00   0.01  -0.00     0.01  -0.01   0.02
                     28                     29                     30
                        a                      a                      a 
 Frequencies --   269.8501               266.5294               298.6899
 Red. masses --    16.8389                10.7218                14.5473
 Frc consts  --     0.0000                 0.0000                 0.0000
 IR Inten    --    21.0832                 0.2499                 1.2277
 Raman Activ --     0.0000                 0.0000                 0.0000
 Depolar     --     0.0000                 0.0000                 0.0000
 Atom AN      X      Y      Z        X      Y      Z        X      Y      Z
   1   6    -0.00  -0.01  -0.01     0.02   0.13   0.05     0.03   0.10   0.04
   2   6    -0.01   0.01   0.02    -0.11   0.18  -0.06    -0.00   0.06  -0.07
   3   8    -0.02   0.00   0.03     0.06  -0.06   0.17     0.12  -0.09   0.06
   4  15    -0.03   0.02   0.00    -0.04  -0.13   0.02     0.09  -0.14  -0.02
   5  16     0.02   0.00  -0.00    -0.03  -0.14  -0.10    -0.08  -0.09  -0.05
   6   8     0.01  -0.01  -0.00    -0.11  -0.03  -0.02    -0.09   0.04  -0.03
   7   6     0.04   0.01  -0.01     0.11   0.11  -0.07    -0.00   0.05  -0.05
   8   6     0.00  -0.01  -0.03     0.02  -0.01  -0.07     0.01   0.00   0.01
   9  16    -0.01   0.01   0.00     0.20  -0.06  -0.07    -0.01   0.06   0.15
  10   6    -0.03  -0.04   0.07    -0.15  -0.14   0.08    -0.12   0.05  -0.05
  11  16    -0.33  -0.24  -0.07    -0.20   0.12   0.19     0.23   0.23   0.11
  12  15    -0.16  -0.11   0.01     0.07   0.04  -0.00     0.05   0.16  -0.05
  13  16     0.19   0.04  -0.09    -0.05   0.01   0.04     0.02  -0.10  -0.08
  14   8     0.34   0.42   0.39     0.01   0.03  -0.10     0.06   0.00   0.10
  15   6    -0.09   0.06  -0.07     0.10   0.06  -0.09    -0.10  -0.08   0.11
  16   6    -0.01  -0.00   0.01     0.18  -0.11  -0.06    -0.22   0.14   0.07
  17   8     0.09  -0.04  -0.17    -0.04   0.01   0.09     0.06  -0.00  -0.39
  18   6     0.10  -0.08  -0.04    -0.03   0.06  -0.01    -0.01  -0.25   0.13
  19   6     0.07   0.08   0.02    -0.01  -0.00  -0.00    -0.10  -0.18  -0.03
  20   1    -0.01   0.01   0.01    -0.10   0.28   0.15    -0.01   0.11   0.05
  21   1    -0.01  -0.01  -0.02    -0.07  -0.08  -0.22    -0.01   0.02  -0.04
  22   1     0.02  -0.01   0.00     0.24  -0.11   0.17     0.05  -0.02   0.07
  23   1    -0.00   0.01   0.01    -0.09   0.09   0.03    -0.03   0.04   0.01
  24   1    -0.00   0.01   0.00    -0.04   0.06  -0.09    -0.01   0.01  -0.07
  25   1     0.02   0.00  -0.00     0.10   0.03   0.00     0.02   0.01  -0.01
  26   1     0.01   0.01  -0.01     0.02   0.09  -0.06    -0.00   0.03  -0.03
  27   1     0.00   0.03  -0.06     0.01   0.10  -0.18     0.00   0.01  -0.01
  28   1    -0.05  -0.04  -0.01    -0.14  -0.16  -0.01    -0.01  -0.03  -0.00
  29   1     0.03   0.00   0.03     0.11   0.02   0.13     0.01   0.01   0.03
  30   1     0.02   0.01   0.01    -0.07  -0.09   0.02    -0.09  -0.07  -0.00
  31   1    -0.01  -0.02   0.06    -0.07  -0.00  -0.02    -0.06   0.06  -0.10
  32   1    -0.11   0.09  -0.09     0.03   0.01  -0.02    -0.04  -0.01   0.02
  33   1    -0.02  -0.11  -0.03     0.02   0.03  -0.02    -0.03  -0.04   0.03
  34   1     0.10   0.08   0.18     0.01  -0.07   0.01    -0.00   0.09  -0.01
  35   1    -0.13   0.10  -0.09     0.10  -0.06  -0.02    -0.12   0.07   0.03
  36   1     0.05  -0.19  -0.05     0.08  -0.03  -0.03    -0.10   0.03   0.03
  37   1     0.04  -0.06  -0.01    -0.02   0.04  -0.00     0.06  -0.19   0.03
  38   1     0.02  -0.02   0.02    -0.00   0.01  -0.03    -0.02  -0.04   0.16
  39   1     0.04   0.00   0.01    -0.01   0.05  -0.00    -0.04  -0.22  -0.01
  40   1     0.05   0.08   0.04    -0.02  -0.04  -0.04     0.01   0.05   0.09
  41   1    -0.04   0.04  -0.01     0.03  -0.03   0.04    -0.08   0.02  -0.17
                     31                     32                     33
                        a                      a                      a 
 Frequencies --   328.4903               338.0411               339.6712
 Red. masses --    22.3610                16.5323                20.7597
 Frc consts  --     0.0000                 0.0000                 0.0000
 IR Inten    --     8.4920                12.9205                 9.2282
 Raman Activ --     0.0000                 0.0000                 0.0000
 Depolar     --     0.0000                 0.0000                 0.0000
 Atom AN      X      Y      Z        X      Y      Z        X      Y      Z
   1   6     0.04   0.13   0.06     0.00  -0.00  -0.00     0.01   0.00   0.00
   2   6     0.01   0.06  -0.10     0.02  -0.03  -0.01     0.06  -0.08  -0.05
   3   8     0.20  -0.20   0.15    -0.06   0.06  -0.10    -0.17   0.17  -0.29
   4  15     0.21  -0.20  -0.04    -0.05  -0.01   0.07    -0.13  -0.05   0.21
   5  16    -0.11  -0.09  -0.04    -0.01  -0.00  -0.03    -0.03  -0.01  -0.10
   6   8    -0.06   0.08  -0.02    -0.12   0.00  -0.02    -0.36   0.02  -0.05
   7   6    -0.02   0.04  -0.04     0.02   0.04  -0.06     0.07   0.11  -0.18
   8   6    -0.00   0.00   0.02     0.01  -0.00  -0.04     0.03  -0.01  -0.13
   9  16    -0.27   0.25   0.32     0.13  -0.02   0.14     0.34  -0.03   0.47
  10   6    -0.06   0.25  -0.16    -0.02  -0.02   0.02     0.05  -0.01  -0.01
  11  16     0.14  -0.28  -0.27     0.03  -0.07   0.03     0.05  -0.03  -0.09
  12  15    -0.05  -0.17  -0.03    -0.14   0.21  -0.13     0.03  -0.12   0.03
  13  16    -0.00   0.06  -0.03    -0.01  -0.01  -0.29    -0.00   0.02   0.08
  14   8    -0.01  -0.02  -0.00     0.26  -0.28   0.33    -0.09   0.08  -0.11
  15   6    -0.01  -0.02   0.02     0.20  -0.35  -0.00    -0.07   0.11   0.01
  16   6    -0.03   0.02   0.02     0.05   0.05  -0.08    -0.04  -0.00   0.04
  17   8    -0.04  -0.04   0.21    -0.21   0.22   0.20     0.06  -0.09  -0.02
  18   6     0.05   0.10  -0.08    -0.07   0.24   0.11     0.04  -0.06  -0.05
  19   6     0.08   0.14   0.02    -0.03  -0.04  -0.01     0.03   0.05   0.01
  20   1    -0.00   0.13   0.06     0.01  -0.03  -0.01     0.04  -0.06  -0.04
  21   1     0.00   0.04  -0.03     0.01   0.01   0.03     0.03   0.05   0.07
  22   1     0.04  -0.03   0.09    -0.03   0.01  -0.01    -0.09   0.03  -0.03
  23   1    -0.05   0.07   0.02     0.02  -0.03  -0.02     0.06  -0.08  -0.06
  24   1    -0.02   0.00  -0.10     0.01  -0.01   0.02     0.03  -0.02   0.06
  25   1     0.00   0.01  -0.01     0.04   0.01  -0.01     0.11   0.03  -0.02
  26   1    -0.01   0.02  -0.02     0.00   0.03  -0.04     0.01   0.11  -0.12
  27   1    -0.00   0.01   0.00     0.01   0.01  -0.03     0.01   0.03  -0.11
  28   1     0.00  -0.02   0.00    -0.01  -0.02  -0.01    -0.05  -0.07  -0.04
  29   1     0.00   0.00   0.02     0.01   0.00   0.01     0.04   0.01   0.03
  30   1    -0.03   0.04  -0.05    -0.02  -0.03   0.00     0.01  -0.06  -0.02
  31   1    -0.03   0.09  -0.05    -0.02   0.01  -0.01    -0.01   0.03  -0.02
  32   1    -0.00  -0.01   0.01     0.05  -0.07  -0.06    -0.02   0.02   0.02
  33   1    -0.00  -0.00   0.01     0.08  -0.17  -0.02    -0.03   0.06   0.01
  34   1    -0.00   0.01  -0.01     0.10   0.08  -0.06    -0.03  -0.02   0.02
  35   1    -0.02   0.01   0.01    -0.07   0.06  -0.01     0.01  -0.01   0.01
  36   1    -0.02   0.01   0.01    -0.03   0.00  -0.01    -0.00   0.00   0.01
  37   1    -0.02   0.09  -0.02    -0.02   0.09   0.03     0.01  -0.01  -0.01
  38   1     0.02   0.01  -0.08    -0.01   0.08   0.01     0.01  -0.03  -0.02
  39   1     0.04   0.11   0.01    -0.03  -0.05  -0.01     0.02   0.04   0.00
  40   1     0.02   0.02  -0.02    -0.04  -0.05   0.00     0.02   0.03  -0.00
  41   1     0.02   0.01   0.08     0.06  -0.01  -0.04    -0.02   0.01   0.03
                     34                     35                     36
                        a                      a                      a 
 Frequencies --   384.2759               405.8808               422.8500
 Red. masses --    18.8959                11.6411                20.4119
 Frc consts  --     0.0000                 0.0000                 0.0000
 IR Inten    --    10.1937                 7.8610                35.1627
 Raman Activ --     0.0000                 0.0000                 0.0000
 Depolar     --     0.0000                 0.0000                 0.0000
 Atom AN      X      Y      Z        X      Y      Z        X      Y      Z
   1   6     0.01   0.02   0.01    -0.06  -0.13  -0.04     0.00   0.00   0.00
   2   6     0.01  -0.00  -0.02    -0.09   0.03   0.15     0.00  -0.01  -0.01
   3   8     0.00  -0.03   0.00     0.16   0.15   0.00     0.01  -0.00  -0.01
   4  15     0.01  -0.02   0.01     0.08   0.04  -0.03     0.04  -0.03   0.06
   5  16    -0.01  -0.01  -0.00     0.08   0.08  -0.02     0.01   0.03  -0.00
   6   8    -0.02   0.03   0.01    -0.01  -0.50  -0.34    -0.04  -0.04  -0.02
   7   6     0.01  -0.01  -0.01    -0.23   0.25  -0.16    -0.01   0.02  -0.03
   8   6     0.00  -0.00  -0.02    -0.00   0.05   0.35     0.00   0.00   0.01
   9  16    -0.05   0.05   0.10    -0.03  -0.01   0.06    -0.06   0.04   0.03
  10   6     0.07   0.08  -0.06     0.01   0.02  -0.01    -0.02  -0.01  -0.04
  11  16     0.10  -0.09  -0.14     0.02   0.02  -0.01    -0.29  -0.37  -0.18
  12  15    -0.41   0.21   0.27    -0.04  -0.01   0.01     0.31   0.23  -0.02
  13  16     0.14  -0.08   0.18     0.01  -0.00  -0.00     0.04  -0.01   0.20
  14   8    -0.25  -0.13   0.12    -0.01  -0.01   0.01     0.02   0.02  -0.14
  15   6     0.13   0.11  -0.20     0.01   0.01  -0.01    -0.03   0.00   0.04
  16   6     0.32  -0.16  -0.15     0.02  -0.01  -0.01    -0.06   0.03   0.03
  17   8    -0.00   0.15  -0.31    -0.03  -0.01  -0.01     0.39   0.20  -0.06
  18   6    -0.02  -0.02   0.06     0.01  -0.01  -0.01    -0.18   0.20   0.17
  19   6    -0.03  -0.06  -0.01     0.01   0.02   0.00    -0.15  -0.22  -0.06
  20   1     0.01   0.01   0.00    -0.04  -0.09  -0.02     0.00   0.00   0.00
  21   1     0.00   0.01   0.00    -0.04  -0.09  -0.03     0.00   0.00   0.00
  22   1    -0.01  -0.00   0.01     0.04   0.01  -0.07    -0.00  -0.00   0.00
  23   1     0.00   0.00  -0.00    -0.04   0.01   0.05     0.00  -0.00  -0.00
  24   1     0.00  -0.00  -0.01    -0.03  -0.00   0.01     0.00  -0.00  -0.00
  25   1     0.00  -0.00  -0.00     0.02   0.08   0.03     0.01   0.01   0.00
  26   1     0.00  -0.00  -0.00    -0.08   0.14  -0.09    -0.01   0.02  -0.02
  27   1     0.00  -0.00  -0.01    -0.03   0.07   0.19    -0.00   0.01   0.00
  28   1    -0.01   0.00  -0.00     0.12  -0.17   0.04     0.00  -0.02  -0.00
  29   1     0.00  -0.00  -0.01     0.01   0.05   0.27     0.00   0.00   0.02
  30   1     0.04   0.04  -0.03     0.00  -0.00  -0.00     0.03   0.03  -0.02
  31   1     0.03   0.01   0.02     0.00   0.01  -0.01    -0.01  -0.01   0.06
  32   1     0.07   0.01  -0.06     0.00   0.00  -0.00    -0.01  -0.01   0.03
  33   1     0.05   0.02  -0.06     0.00  -0.00  -0.00    -0.02   0.02   0.02
  34   1     0.01  -0.11   0.05     0.00  -0.01   0.00    -0.01   0.02  -0.01
  35   1     0.17  -0.08  -0.06     0.01  -0.00  -0.00    -0.03   0.01   0.01
  36   1     0.17  -0.07  -0.08     0.01  -0.00  -0.00    -0.03   0.02   0.02
  37   1     0.03  -0.09   0.01     0.01  -0.01  -0.00    -0.07   0.06   0.05
  38   1    -0.00   0.03   0.09     0.00   0.00   0.00    -0.06   0.03   0.02
  39   1    -0.02  -0.07  -0.00     0.01   0.01   0.00    -0.12  -0.15  -0.03
  40   1    -0.01  -0.00   0.02     0.01   0.01   0.00    -0.12  -0.16  -0.04
  41   1     0.00   0.00  -0.06    -0.01   0.01   0.01     0.13  -0.07  -0.10
                     37                     38                     39
                        a                      a                      a 
 Frequencies --   462.1289               472.8549               482.8983
 Red. masses --    23.3706                16.9482                22.2290
 Frc consts  --     0.0000                 0.0000                 0.0000
 IR Inten    --   143.4714                78.5502               115.8885
 Raman Activ --     0.0000                 0.0000                 0.0000
 Depolar     --     0.0000                 0.0000                 0.0000
 Atom AN      X      Y      Z        X      Y      Z        X      Y      Z
   1   6     0.05   0.11   0.04     0.09   0.21   0.08     0.02   0.05   0.02
   2   6     0.10  -0.13  -0.24     0.13  -0.07  -0.24     0.02   0.02  -0.02
   3   8    -0.10  -0.21  -0.07    -0.37  -0.38   0.18    -0.12  -0.08   0.09
   4  15     0.19  -0.15   0.43    -0.18   0.22  -0.24    -0.10   0.13  -0.20
   5  16     0.16   0.39   0.11     0.05   0.10   0.06    -0.03  -0.09  -0.02
   6   8    -0.25  -0.17  -0.01     0.19  -0.21  -0.12     0.14  -0.03  -0.04
   7   6     0.01   0.04  -0.05    -0.07   0.04  -0.05    -0.03   0.00  -0.00
   8   6     0.02  -0.00  -0.02    -0.01   0.01   0.08    -0.01   0.00   0.03
   9  16    -0.23   0.00  -0.31     0.14  -0.06   0.15     0.11   0.00   0.16
  10   6     0.00  -0.05  -0.04     0.02  -0.01   0.03     0.01  -0.01  -0.02
  11  16    -0.05  -0.01   0.03     0.06   0.06   0.02    -0.20  -0.20  -0.11
  12  15     0.06   0.09   0.00    -0.09  -0.13   0.00     0.28   0.38  -0.04
  13  16     0.01  -0.02   0.04    -0.02   0.02  -0.09     0.06  -0.07   0.28
  14   8     0.00  -0.02  -0.01    -0.01   0.03   0.03     0.04  -0.08  -0.12
  15   6     0.01  -0.03   0.00    -0.01   0.04  -0.01     0.03  -0.11   0.02
  16   6    -0.00   0.00  -0.00     0.00  -0.00   0.00    -0.02   0.02   0.00
  17   8    -0.17  -0.03  -0.03     0.18   0.02   0.04    -0.48  -0.03  -0.10
  18   6     0.05  -0.06  -0.04    -0.05   0.06   0.03     0.12  -0.14  -0.08
  19   6     0.04   0.05   0.02    -0.05  -0.05  -0.02     0.10   0.12   0.03
  20   1     0.05   0.10   0.02     0.08   0.16   0.04     0.02   0.03   0.01
  21   1     0.05   0.11   0.04     0.07   0.16   0.07     0.01   0.03   0.02
  22   1    -0.09  -0.03   0.09    -0.10  -0.02   0.13    -0.01   0.00   0.02
  23   1     0.04  -0.04  -0.07     0.07  -0.01  -0.08     0.02   0.01  -0.01
  24   1     0.04  -0.03  -0.04     0.06   0.01  -0.01     0.01   0.01   0.01
  25   1     0.08   0.02   0.03    -0.03   0.01   0.00    -0.03   0.00  -0.01
  26   1    -0.01   0.07  -0.07    -0.02   0.00   0.00    -0.00  -0.02   0.02
  27   1     0.01   0.01  -0.02    -0.01   0.02   0.06    -0.01   0.00   0.03
  28   1    -0.01  -0.02  -0.01     0.05  -0.04   0.01     0.02  -0.01   0.00
  29   1     0.01   0.00   0.02    -0.00   0.01   0.06    -0.00   0.00   0.02
  30   1     0.01   0.05   0.01     0.00  -0.03   0.00     0.02  -0.01  -0.03
  31   1     0.02  -0.05   0.02     0.00   0.01  -0.01    -0.01   0.01   0.03
  32   1     0.00  -0.01  -0.00    -0.00   0.01  -0.00     0.01  -0.03   0.01
  33   1     0.00  -0.01   0.00    -0.00   0.01  -0.00     0.00  -0.02   0.01
  34   1     0.01   0.01  -0.01    -0.01  -0.01   0.01     0.02   0.03  -0.03
  35   1    -0.01   0.00   0.00     0.01  -0.00  -0.00    -0.03   0.02   0.01
  36   1    -0.00   0.00   0.00     0.01  -0.00  -0.00    -0.03   0.02   0.01
  37   1     0.03  -0.03  -0.01    -0.03   0.04   0.01     0.08  -0.10  -0.03
  38   1     0.02   0.00   0.02    -0.02  -0.00  -0.03     0.05   0.02   0.07
  39   1     0.03   0.03   0.01    -0.04  -0.03  -0.01     0.08   0.08   0.01
  40   1     0.03   0.05   0.01    -0.04  -0.05  -0.02     0.09   0.11   0.04
  41   1    -0.04   0.02   0.02     0.04  -0.02  -0.02    -0.10   0.05   0.05
                     40                     41                     42
                        a                      a                      a 
 Frequencies --   621.8501               638.7540               670.3648
 Red. masses --    26.2868                22.9231                18.3844
 Frc consts  --     0.0000                 0.0000                 0.0000
 IR Inten    --   182.0356               100.1067                 5.8603
 Raman Activ --     0.0000                 0.0000                 0.0000
 Depolar     --     0.0000                 0.0000                 0.0000
 Atom AN      X      Y      Z        X      Y      Z        X      Y      Z
   1   6    -0.01  -0.01  -0.00    -0.04  -0.05  -0.00    -0.00  -0.00  -0.00
   2   6     0.00  -0.02  -0.02     0.01  -0.08  -0.07     0.00  -0.01  -0.02
   3   8     0.08  -0.00  -0.01     0.37  -0.02  -0.03     0.02  -0.01  -0.01
   4  15    -0.06  -0.03  -0.08    -0.31  -0.08  -0.44     0.01   0.06   0.09
   5  16     0.05   0.09   0.04     0.20   0.34   0.16    -0.03  -0.05  -0.03
   6   8    -0.07  -0.03   0.04    -0.32  -0.17   0.18     0.03   0.02  -0.01
   7   6     0.02  -0.02   0.04     0.07  -0.12   0.20    -0.01   0.01  -0.03
   8   6    -0.00   0.00   0.00    -0.01   0.01   0.03     0.00  -0.00  -0.01
   9  16     0.02  -0.05  -0.02     0.08  -0.07   0.07     0.13  -0.36  -0.07
  10   6    -0.06   0.06   0.12    -0.04   0.14   0.03     0.10   0.61  -0.44
  11  16     0.09   0.08   0.00    -0.02  -0.04  -0.03    -0.19  -0.06   0.37
  12  15    -0.29  -0.32  -0.42     0.08   0.09   0.09    -0.01  -0.02  -0.05
  13  16     0.19  -0.02   0.53    -0.04   0.00  -0.11     0.01   0.00   0.03
  14   8     0.18   0.08  -0.20    -0.04  -0.02   0.04    -0.02   0.00   0.03
  15   6     0.04  -0.11   0.03    -0.01   0.02  -0.01    -0.00   0.01  -0.00
  16   6    -0.02   0.00   0.01     0.00   0.00  -0.00     0.00   0.00  -0.00
  17   8    -0.13   0.20  -0.14     0.03  -0.04   0.03     0.00  -0.00  -0.01
  18   6    -0.03   0.18   0.06     0.01  -0.04  -0.01     0.00   0.02   0.01
  19   6     0.01   0.02   0.00    -0.00  -0.00  -0.00     0.00   0.00   0.00
  20   1    -0.00  -0.00   0.00    -0.02  -0.01   0.01     0.00   0.01   0.00
  21   1    -0.00  -0.00  -0.00    -0.01  -0.01  -0.01    -0.00  -0.00   0.00
  22   1    -0.00  -0.01   0.00    -0.01  -0.02   0.01    -0.01  -0.01   0.01
  23   1    -0.01   0.00   0.00    -0.04   0.01   0.01     0.00  -0.00  -0.01
  24   1    -0.00  -0.01  -0.02    -0.02  -0.05  -0.09    -0.00  -0.01  -0.01
  25   1     0.02  -0.01   0.02     0.08  -0.03   0.10    -0.01   0.00  -0.01
  26   1     0.00   0.01  -0.00     0.01   0.03  -0.02    -0.00  -0.00   0.00
  27   1     0.00   0.00  -0.01     0.01   0.01  -0.05    -0.00  -0.00   0.01
  28   1    -0.02   0.02   0.01    -0.09   0.08   0.04     0.01  -0.01  -0.01
  29   1     0.01  -0.00  -0.01     0.03  -0.01  -0.06    -0.00   0.00   0.01
  30   1    -0.02  -0.01   0.03    -0.01   0.00  -0.01     0.00   0.14  -0.10
  31   1    -0.01   0.02  -0.01    -0.02   0.04   0.01     0.04   0.14  -0.10
  32   1    -0.00  -0.03   0.02     0.00   0.01  -0.00    -0.00   0.01  -0.00
  33   1    -0.01  -0.00   0.02     0.00   0.00  -0.00     0.00   0.00  -0.00
  34   1     0.04   0.04  -0.05    -0.01  -0.01   0.01    -0.01  -0.00   0.01
  35   1    -0.05   0.02   0.02     0.01  -0.00  -0.00     0.01  -0.00  -0.00
  36   1    -0.04   0.02   0.02     0.01  -0.00  -0.00     0.00  -0.00  -0.00
  37   1     0.01   0.00   0.01    -0.00  -0.00  -0.00    -0.00   0.00   0.00
  38   1    -0.00   0.08   0.06     0.00  -0.02  -0.01    -0.00   0.00  -0.00
  39   1    -0.01  -0.03  -0.00     0.00   0.01   0.00    -0.00  -0.00  -0.00
  40   1    -0.03  -0.03   0.01     0.01   0.01  -0.00    -0.00  -0.00  -0.00
  41   1     0.07   0.01  -0.03    -0.02  -0.00   0.01     0.01   0.00  -0.00
                     43                     44                     45
                        a                      a                      a 
 Frequencies --   701.0782               721.7264               747.0181
 Red. masses --    16.5957                19.9104                24.1039
 Frc consts  --     0.0000                 0.0000                 0.0000
 IR Inten    --    73.2798               220.7599               218.3542
 Raman Activ --     0.0000                 0.0000                 0.0000
 Depolar     --     0.0000                 0.0000                 0.0000
 Atom AN      X      Y      Z        X      Y      Z        X      Y      Z
   1   6    -0.01  -0.01  -0.00     0.06   0.11   0.01     0.02   0.03   0.01
   2   6     0.01  -0.02  -0.03    -0.08   0.23   0.24    -0.02   0.09   0.10
   3   8     0.04  -0.02  -0.01    -0.51   0.07  -0.00    -0.08   0.02  -0.02
   4  15    -0.05   0.01   0.17     0.44  -0.26  -0.34    -0.31  -0.62  -0.02
   5  16    -0.02  -0.03  -0.02     0.02   0.09   0.04     0.16   0.30   0.14
   6   8     0.11   0.07  -0.05    -0.18  -0.10   0.07     0.31   0.22  -0.08
   7   6    -0.03   0.05  -0.08     0.03  -0.08   0.09    -0.05   0.13  -0.17
   8   6     0.00  -0.00  -0.02    -0.00   0.00   0.03     0.01  -0.01  -0.06
   9  16     0.10  -0.31  -0.11     0.03  -0.10  -0.02     0.02   0.03   0.04
  10   6    -0.43   0.41   0.52    -0.09   0.14   0.06     0.05  -0.00  -0.07
  11  16     0.13  -0.00  -0.30     0.01  -0.00  -0.03    -0.02  -0.01   0.04
  12  15     0.02   0.09   0.05     0.03  -0.02   0.01    -0.10   0.12  -0.05
  13  16    -0.01  -0.00  -0.03    -0.00   0.00  -0.01     0.02  -0.00   0.04
  14   8    -0.00  -0.02  -0.01    -0.01  -0.01   0.02     0.03   0.02  -0.04
  15   6    -0.01   0.01  -0.00    -0.00   0.01  -0.00     0.01  -0.03   0.01
  16   6    -0.00   0.00  -0.00    -0.00   0.00   0.00     0.01  -0.00  -0.00
  17   8     0.03  -0.03   0.03    -0.01   0.01  -0.01     0.08  -0.05   0.08
  18   6     0.01  -0.05  -0.02    -0.00   0.01   0.00     0.02  -0.08  -0.03
  19   6    -0.01  -0.01  -0.00     0.00   0.00   0.00    -0.02  -0.02  -0.00
  20   1     0.00   0.01   0.00     0.02  -0.03  -0.02    -0.01  -0.03  -0.01
  21   1     0.00   0.00   0.00    -0.02  -0.05   0.01    -0.01  -0.02  -0.01
  22   1    -0.01  -0.01   0.01     0.10   0.09  -0.07     0.04   0.04  -0.04
  23   1     0.00  -0.00  -0.01     0.06   0.00   0.00    -0.01   0.01   0.02
  24   1    -0.00  -0.01  -0.02     0.01   0.09   0.19    -0.00   0.03   0.03
  25   1    -0.04   0.01  -0.04     0.08  -0.02   0.06    -0.15   0.03  -0.10
  26   1    -0.00  -0.02   0.01    -0.01   0.04  -0.02     0.01  -0.07   0.04
  27   1    -0.00  -0.01   0.02     0.00   0.02  -0.03     0.00  -0.03   0.04
  28   1     0.04  -0.03  -0.02    -0.05   0.05   0.03     0.09  -0.09  -0.05
  29   1    -0.01   0.01   0.03     0.03  -0.01  -0.04    -0.05   0.02   0.07
  30   1    -0.04   0.16   0.09    -0.01   0.05   0.01    -0.00  -0.04  -0.02
  31   1    -0.05   0.04   0.18    -0.01   0.02   0.03    -0.00   0.02  -0.04
  32   1     0.00  -0.00   0.00     0.00   0.00  -0.00     0.00  -0.01   0.01
  33   1    -0.00   0.00  -0.00     0.00  -0.00  -0.00    -0.00  -0.00   0.00
  34   1    -0.00  -0.00   0.00    -0.01  -0.00   0.01     0.02   0.01  -0.02
  35   1    -0.00  -0.00   0.00     0.01  -0.00  -0.00    -0.01   0.00   0.00
  36   1     0.00   0.00  -0.00     0.00  -0.00  -0.00    -0.01   0.01   0.00
  37   1    -0.00  -0.00  -0.00     0.00  -0.00   0.00    -0.01   0.01  -0.00
  38   1     0.00  -0.02  -0.01    -0.00   0.01   0.01     0.00  -0.04  -0.04
  39   1     0.00   0.01   0.00     0.00  -0.00   0.00    -0.00   0.01   0.00
  40   1     0.01   0.01  -0.00    -0.00  -0.00   0.00     0.01   0.01  -0.01
  41   1    -0.02  -0.00   0.01     0.01   0.00  -0.00    -0.04  -0.01   0.02
                     46                     47                     48
                        a                      a                      a 
 Frequencies --   755.7570               786.1282               805.5741
 Red. masses --    19.9344                19.9192                 5.8904
 Frc consts  --     0.0000                 0.0000                 0.0000
 IR Inten    --   194.2963               285.0673                 4.5943
 Raman Activ --     0.0000                 0.0000                 0.0000
 Depolar     --     0.0000                 0.0000                 0.0000
 Atom AN      X      Y      Z        X      Y      Z        X      Y      Z
   1   6    -0.00   0.00   0.00    -0.00  -0.00  -0.00    -0.00  -0.01   0.00
   2   6     0.00   0.01   0.01     0.00  -0.01  -0.01     0.00  -0.01  -0.01
   3   8     0.01   0.00  -0.00     0.01   0.00   0.00     0.02   0.01   0.02
   4  15    -0.12  -0.15   0.02     0.01   0.02  -0.00    -0.02  -0.03  -0.03
   5  16     0.04   0.07   0.03    -0.00  -0.01  -0.00     0.00   0.00   0.00
   6   8     0.11   0.07  -0.03    -0.01  -0.01   0.01     0.00   0.00   0.00
   7   6    -0.01   0.04  -0.05     0.00  -0.00   0.00     0.00   0.00  -0.00
   8   6     0.00  -0.01  -0.02     0.00   0.00   0.00    -0.00   0.00  -0.00
   9  16     0.02  -0.01   0.01    -0.01   0.02   0.00     0.10   0.07   0.10
  10   6    -0.01   0.02   0.02    -0.03  -0.05   0.02    -0.43  -0.15  -0.31
  11  16    -0.01   0.00  -0.03     0.03   0.02  -0.00     0.09   0.05   0.11
  12  15     0.41  -0.41   0.13     0.13   0.10  -0.59    -0.01  -0.03  -0.01
  13  16    -0.05   0.01  -0.12     0.07  -0.01   0.19    -0.00   0.00  -0.01
  14   8    -0.15  -0.08   0.21    -0.22  -0.23   0.46     0.01   0.03  -0.02
  15   6    -0.06   0.14  -0.02    -0.10   0.26  -0.03     0.02  -0.02   0.01
  16   6    -0.04   0.02   0.01    -0.06   0.07   0.01     0.01  -0.01   0.00
  17   8    -0.32   0.18  -0.30     0.08  -0.06   0.14    -0.00   0.01  -0.00
  18   6    -0.06   0.30   0.08     0.03  -0.09  -0.01    -0.00   0.00   0.00
  19   6     0.08   0.08   0.00    -0.03  -0.03  -0.00     0.00  -0.00   0.00
  20   1    -0.00  -0.01  -0.00     0.00   0.00   0.00    -0.01  -0.00   0.00
  21   1    -0.00  -0.00  -0.00    -0.00  -0.00   0.00     0.00   0.01  -0.01
  22   1     0.00   0.01  -0.01    -0.00  -0.00   0.00    -0.00  -0.00   0.00
  23   1    -0.00   0.00   0.00     0.00   0.00  -0.00    -0.01   0.00   0.01
  24   1    -0.00   0.00  -0.00    -0.00  -0.00  -0.00     0.00   0.00  -0.02
  25   1    -0.04   0.01  -0.03     0.00  -0.00   0.00    -0.01   0.00   0.00
  26   1     0.00  -0.02   0.02     0.00   0.00  -0.00     0.00  -0.01   0.00
  27   1    -0.00  -0.00   0.02     0.00  -0.00  -0.00     0.00  -0.01  -0.00
  28   1     0.03  -0.03  -0.02    -0.00   0.00   0.00     0.00  -0.00  -0.00
  29   1    -0.01   0.01   0.02    -0.00  -0.00  -0.00    -0.01   0.00   0.00
  30   1    -0.00  -0.00   0.00     0.01   0.01  -0.00     0.26   0.47  -0.20
  31   1    -0.01   0.01   0.01     0.00  -0.02   0.01     0.15  -0.40   0.37
  32   1    -0.00   0.04  -0.03     0.01   0.07  -0.09    -0.00   0.00  -0.00
  33   1     0.00  -0.00  -0.02    -0.01  -0.03  -0.03    -0.00  -0.01   0.00
  34   1    -0.07  -0.05   0.08    -0.16  -0.11   0.16     0.01   0.01  -0.01
  35   1     0.05  -0.02  -0.03     0.13  -0.04  -0.08    -0.00   0.00  -0.00
  36   1     0.04  -0.03  -0.02     0.07  -0.07  -0.05    -0.01   0.00   0.01
  37   1     0.06  -0.05   0.01    -0.03   0.03  -0.00    -0.00   0.00   0.00
  38   1    -0.03   0.14   0.17     0.01  -0.05  -0.07     0.00   0.00   0.00
  39   1     0.03  -0.04  -0.00    -0.02   0.02  -0.00    -0.00  -0.00   0.00
  40   1    -0.06  -0.05   0.03     0.02   0.02  -0.01     0.00  -0.00  -0.00
  41   1     0.15   0.02  -0.05    -0.05  -0.01   0.02     0.00   0.00  -0.00
                     49                     50                     51
                        a                      a                      a 
 Frequencies --   820.8529               821.1192               825.7290
 Red. masses --     2.7848                 2.5992                 2.7933
 Frc consts  --     0.0000                 0.0000                 0.0000
 IR Inten    --     5.2163                 3.5235                 0.5017
 Raman Activ --     0.0000                 0.0000                 0.0000
 Depolar     --     0.0000                 0.0000                 0.0000
 Atom AN      X      Y      Z        X      Y      Z        X      Y      Z
   1   6     0.07  -0.02   0.04     0.05  -0.01   0.03     0.04  -0.01   0.02
   2   6     0.15  -0.07   0.10     0.12  -0.05   0.09     0.10  -0.04   0.06
   3   8    -0.11   0.01  -0.04    -0.07  -0.00  -0.04    -0.07   0.01  -0.03
   4  15     0.06   0.03  -0.03    -0.03  -0.04   0.02     0.03   0.02  -0.01
   5  16    -0.01  -0.01  -0.00     0.00   0.01   0.01    -0.00  -0.00  -0.00
   6   8    -0.09  -0.08  -0.00     0.12   0.10   0.02    -0.03  -0.03   0.00
   7   6     0.11   0.11   0.02    -0.16  -0.16  -0.04     0.03   0.03   0.01
   8   6     0.04   0.05   0.01    -0.06  -0.07  -0.02     0.01   0.01   0.01
   9  16     0.01  -0.02  -0.00     0.01  -0.00  -0.00     0.00  -0.01  -0.00
  10   6     0.00   0.02   0.01    -0.00   0.00   0.00     0.00   0.00  -0.00
  11  16    -0.00   0.00  -0.00    -0.00  -0.00  -0.00    -0.00  -0.01   0.00
  12  15     0.02  -0.03   0.02     0.01  -0.00   0.00    -0.03   0.04  -0.05
  13  16    -0.00  -0.00  -0.01    -0.00  -0.00  -0.00     0.00  -0.00   0.01
  14   8    -0.00  -0.00  -0.00    -0.00   0.00   0.00     0.01  -0.00   0.03
  15   6     0.00   0.00   0.00     0.00  -0.00  -0.00    -0.03  -0.01  -0.04
  16   6     0.00   0.00   0.00     0.00  -0.00  -0.00    -0.01  -0.00  -0.02
  17   8    -0.06   0.01  -0.08    -0.01   0.01  -0.02     0.10  -0.01   0.14
  18   6     0.05  -0.02   0.11     0.02  -0.01   0.03    -0.09   0.04  -0.22
  19   6     0.03  -0.01   0.04     0.01  -0.01   0.01    -0.07   0.02  -0.08
  20   1    -0.26  -0.12   0.07    -0.21  -0.10   0.06    -0.16  -0.07   0.05
  21   1     0.08   0.24  -0.18     0.06   0.19  -0.14     0.05   0.14  -0.11
  22   1    -0.08   0.05  -0.05    -0.06   0.04  -0.04    -0.05   0.03  -0.03
  23   1    -0.30  -0.04   0.16    -0.24  -0.03   0.13    -0.19  -0.02   0.10
  24   1     0.06   0.19  -0.28     0.05   0.15  -0.23     0.04   0.12  -0.18
  25   1    -0.25   0.05   0.05     0.38  -0.08  -0.06    -0.07   0.01   0.01
  26   1     0.11  -0.24  -0.03    -0.17   0.35   0.05     0.03  -0.07  -0.01
  27   1     0.09  -0.20  -0.11    -0.13   0.30   0.17     0.02  -0.06  -0.03
  28   1    -0.07  -0.05   0.01     0.10   0.08  -0.02    -0.02  -0.01   0.00
  29   1    -0.20   0.05   0.10     0.30  -0.08  -0.15    -0.06   0.01   0.03
  30   1    -0.01  -0.01   0.01     0.00  -0.00  -0.00    -0.00   0.00   0.00
  31   1    -0.00   0.01  -0.01     0.00   0.00  -0.00     0.00  -0.00  -0.00
  32   1     0.00   0.00  -0.01    -0.00  -0.00   0.00    -0.02  -0.03   0.09
  33   1    -0.01  -0.01   0.00     0.00   0.00  -0.00     0.06   0.06  -0.03
  34   1    -0.00  -0.00  -0.00     0.00   0.00   0.00     0.01   0.01   0.03
  35   1     0.00   0.00  -0.01    -0.00  -0.00   0.00    -0.03  -0.01   0.07
  36   1    -0.01  -0.00   0.00     0.00   0.00  -0.00     0.07   0.03  -0.03
  37   1    -0.20   0.06   0.03    -0.06   0.02   0.01     0.39  -0.12  -0.05
  38   1     0.13   0.03  -0.17     0.04   0.01  -0.05    -0.24  -0.06   0.33
  39   1    -0.20  -0.01  -0.00    -0.06  -0.00  -0.00     0.38   0.02   0.00
  40   1     0.13   0.07  -0.12     0.04   0.02  -0.04    -0.26  -0.13   0.24
  41   1    -0.01   0.03  -0.06    -0.01   0.01  -0.02     0.03  -0.06   0.12
                     52                     53                     54
                        a                      a                      a 
 Frequencies --   828.0334               906.4561               917.3197
 Red. masses --     2.2055                12.7899                13.0159
 Frc consts  --     0.0000                 0.0000                 0.0000
 IR Inten    --     5.3428               367.5009               296.6193
 Raman Activ --     0.0000                 0.0000                 0.0000
 Depolar     --     0.0000                 0.0000                 0.0000
 Atom AN      X      Y      Z        X      Y      Z        X      Y      Z
   1   6    -0.01   0.00  -0.00    -0.11  -0.24  -0.05    -0.00  -0.01  -0.00
   2   6    -0.02   0.01  -0.01     0.04  -0.16  -0.28     0.01  -0.01  -0.01
   3   8     0.01  -0.00   0.00    -0.09   0.49   0.35    -0.00   0.02   0.01
   4  15    -0.00  -0.00   0.00     0.15  -0.09  -0.13     0.02   0.01  -0.02
   5  16     0.00   0.00   0.00     0.01  -0.01  -0.00     0.00   0.00   0.00
   6   8     0.00   0.00   0.00     0.02  -0.05   0.34     0.00  -0.03   0.13
   7   6    -0.00  -0.00  -0.00    -0.11   0.06  -0.17    -0.05   0.02  -0.06
   8   6    -0.00  -0.00  -0.00     0.03  -0.04  -0.14     0.01  -0.01  -0.06
   9  16     0.00   0.00   0.00    -0.00  -0.00  -0.01    -0.00   0.01  -0.00
  10   6    -0.01  -0.01  -0.00     0.01   0.02   0.01    -0.01  -0.01  -0.01
  11  16     0.00   0.00   0.00    -0.00  -0.00  -0.00     0.00   0.02   0.01
  12  15     0.03  -0.00  -0.04     0.02  -0.02   0.00    -0.16   0.18   0.03
  13  16     0.00  -0.00   0.01    -0.00   0.00  -0.00     0.00  -0.00   0.01
  14   8     0.04  -0.01   0.11    -0.04   0.03   0.01     0.30  -0.22  -0.12
  15   6    -0.15  -0.07  -0.19     0.01  -0.02   0.01    -0.10   0.18  -0.05
  16   6    -0.07  -0.03  -0.09     0.01  -0.01  -0.01    -0.11   0.06   0.04
  17   8    -0.03  -0.00  -0.02     0.01   0.07   0.01    -0.04  -0.57  -0.10
  18   6     0.02  -0.01   0.05     0.01  -0.03  -0.02    -0.05   0.25   0.18
  19   6     0.01  -0.00   0.01    -0.02  -0.02  -0.00     0.16   0.20   0.02
  20   1     0.03   0.01  -0.01     0.02   0.09   0.03    -0.01   0.00   0.00
  21   1    -0.01  -0.02   0.02     0.03   0.08   0.04     0.00   0.00   0.00
  22   1     0.01  -0.00   0.00    -0.21  -0.20   0.17    -0.01  -0.01   0.01
  23   1     0.03   0.00  -0.02     0.02   0.07  -0.03    -0.00   0.00   0.00
  24   1    -0.01  -0.02   0.03     0.06   0.09  -0.02     0.00   0.01  -0.01
  25   1     0.01  -0.00  -0.00    -0.04   0.03   0.03    -0.01   0.01   0.02
  26   1    -0.00   0.01   0.00    -0.03   0.00   0.01    -0.01   0.00   0.00
  27   1    -0.00   0.01   0.00    -0.01   0.00   0.04    -0.00  -0.00   0.02
  28   1     0.00   0.00  -0.00     0.12  -0.11  -0.08     0.05  -0.05  -0.03
  29   1     0.01  -0.00  -0.00    -0.00   0.01   0.05     0.00   0.00   0.02
  30   1     0.00   0.01  -0.00    -0.01  -0.01   0.01     0.00   0.01  -0.00
  31   1     0.00  -0.01   0.00    -0.00   0.01  -0.01     0.01  -0.01   0.00
  32   1    -0.09  -0.14   0.45    -0.00  -0.00   0.00     0.04   0.01  -0.03
  33   1     0.33   0.34  -0.14     0.00  -0.00   0.00     0.00   0.01  -0.02
  34   1     0.06   0.05   0.13     0.02   0.01  -0.01    -0.12  -0.06   0.11
  35   1    -0.17  -0.04   0.38    -0.01   0.00   0.00     0.05  -0.02  -0.02
  36   1     0.38   0.18  -0.15    -0.00   0.00   0.00     0.03  -0.03  -0.02
  37   1    -0.08   0.03   0.01     0.00   0.00  -0.00    -0.03  -0.03   0.03
  38   1     0.05   0.01  -0.07     0.01   0.01  -0.00    -0.10  -0.06   0.03
  39   1    -0.07  -0.00  -0.00     0.00   0.01   0.00    -0.03  -0.08  -0.00
  40   1     0.05   0.03  -0.05     0.01   0.01   0.00    -0.06  -0.08  -0.01
  41   1    -0.01   0.01  -0.02    -0.04  -0.01   0.01     0.31   0.05  -0.12
                     55                     56                     57
                        a                      a                      a 
 Frequencies --   922.2132               942.6893              1037.6827
 Red. masses --    12.0638                12.0004                 8.3944
 Frc consts  --     0.0000                 0.0000                 0.0000
 IR Inten    --   135.9080               153.1204               252.6664
 Raman Activ --     0.0000                 0.0000                 0.0000
 Depolar     --     0.0000                 0.0000                 0.0000
 Atom AN      X      Y      Z        X      Y      Z        X      Y      Z
   1   6     0.07   0.15   0.02    -0.00  -0.01  -0.00     0.13   0.29   0.05
   2   6    -0.04   0.07   0.15     0.01  -0.00  -0.01    -0.13  -0.39  -0.14
   3   8     0.08  -0.27  -0.21    -0.00   0.01   0.01    -0.03   0.17   0.18
   4  15     0.01   0.16  -0.04    -0.00  -0.00   0.00     0.01  -0.02  -0.01
   5  16    -0.01  -0.01  -0.00     0.00  -0.00  -0.00     0.00  -0.01  -0.00
   6   8    -0.02  -0.12   0.59     0.00   0.00  -0.02     0.08  -0.03   0.17
   7   6    -0.19   0.11  -0.25     0.01  -0.00   0.01     0.04  -0.06  -0.36
   8   6     0.06  -0.06  -0.26    -0.00   0.00   0.01    -0.09   0.08   0.25
   9  16    -0.01   0.02  -0.02    -0.00  -0.00  -0.00    -0.00   0.00  -0.01
  10   6     0.00  -0.02   0.00    -0.00  -0.00   0.02     0.00   0.00   0.00
  11  16     0.00   0.00  -0.00     0.01   0.01  -0.01    -0.00  -0.00  -0.00
  12  15     0.03  -0.03  -0.01     0.07   0.07  -0.17     0.00  -0.00   0.00
  13  16    -0.00   0.00  -0.00     0.01  -0.00   0.02    -0.00   0.00  -0.00
  14   8    -0.06   0.05   0.02    -0.47   0.33   0.20    -0.01   0.03  -0.01
  15   6     0.02  -0.04   0.01     0.09  -0.25   0.09     0.06  -0.03  -0.02
  16   6     0.02  -0.01  -0.01     0.22  -0.12  -0.09    -0.05   0.02   0.03
  17   8     0.01   0.08   0.01     0.02  -0.36  -0.05    -0.00   0.06   0.03
  18   6     0.01  -0.03  -0.02    -0.06   0.10   0.11    -0.06  -0.10  -0.02
  19   6    -0.02  -0.03  -0.00     0.13   0.15   0.01     0.06   0.06   0.00
  20   1    -0.01  -0.05  -0.02    -0.00   0.00   0.00    -0.00  -0.10  -0.04
  21   1    -0.02  -0.05  -0.02     0.00   0.00   0.00    -0.04  -0.08  -0.06
  22   1     0.14   0.13  -0.11    -0.01  -0.00   0.00     0.23   0.22  -0.18
  23   1    -0.01  -0.04   0.01    -0.00   0.00   0.00    -0.09  -0.12  -0.01
  24   1    -0.04  -0.07   0.02     0.00   0.00  -0.00    -0.06  -0.15  -0.03
  25   1    -0.06   0.05   0.08     0.00  -0.00  -0.00     0.04  -0.03  -0.13
  26   1    -0.05   0.00   0.02     0.00  -0.00  -0.00     0.03  -0.06  -0.12
  27   1    -0.01  -0.01   0.08     0.00  -0.00  -0.00    -0.00   0.02  -0.07
  28   1     0.23  -0.22  -0.15    -0.01   0.01   0.00    -0.20   0.18   0.13
  29   1    -0.01   0.02   0.10     0.00  -0.00  -0.00    -0.03  -0.00  -0.07
  30   1     0.01  -0.00  -0.00    -0.00  -0.01   0.00    -0.01   0.00   0.01
  31   1    -0.00  -0.00   0.00    -0.01   0.01   0.00     0.00  -0.00  -0.01
  32   1    -0.01  -0.00   0.01    -0.09   0.00   0.06     0.02  -0.01  -0.01
  33   1    -0.00  -0.00   0.01    -0.05  -0.01   0.05     0.03  -0.01  -0.01
  34   1     0.03   0.01  -0.02     0.24   0.12  -0.23    -0.04  -0.02   0.04
  35   1    -0.01   0.00   0.00    -0.09   0.04   0.03     0.01  -0.01   0.00
  36   1    -0.01   0.01   0.00    -0.07   0.06   0.04     0.01  -0.01  -0.00
  37   1     0.00   0.00  -0.00    -0.04  -0.03   0.02    -0.04  -0.02  -0.00
  38   1     0.01   0.01  -0.00    -0.08  -0.06   0.01    -0.03  -0.03  -0.00
  39   1     0.01   0.01   0.00    -0.02  -0.06  -0.00    -0.01  -0.02  -0.00
  40   1     0.01   0.01   0.00    -0.04  -0.06  -0.01    -0.01  -0.02  -0.01
  41   1    -0.04  -0.01   0.02     0.24   0.03  -0.09     0.08   0.01  -0.03
                     58                     59                     60
                        a                      a                      a 
 Frequencies --  1039.2508              1045.1472              1052.9855
 Red. masses --     8.4545                 9.0407                 9.7859
 Frc consts  --     0.0000                 0.0000                 0.0000
 IR Inten    --   159.5250                95.7984                77.9973
 Raman Activ --     0.0000                 0.0000                 0.0000
 Depolar     --     0.0000                 0.0000                 0.0000
 Atom AN      X      Y      Z        X      Y      Z        X      Y      Z
   1   6     0.03   0.07   0.01     0.11   0.24   0.03     0.00  -0.00  -0.00
   2   6    -0.03  -0.09  -0.04    -0.12  -0.34  -0.13    -0.00   0.00   0.00
   3   8    -0.01   0.04   0.04    -0.04   0.16   0.18     0.00  -0.00  -0.00
   4  15     0.00  -0.01  -0.00     0.02  -0.01  -0.01     0.00   0.00  -0.00
   5  16     0.00  -0.00  -0.00    -0.00  -0.01  -0.00    -0.00   0.00  -0.00
   6   8     0.02  -0.01   0.04    -0.08   0.05  -0.25    -0.00   0.00  -0.00
   7   6     0.01  -0.02  -0.09    -0.05   0.08   0.46    -0.01   0.01   0.01
   8   6    -0.02   0.02   0.06     0.11  -0.10  -0.29     0.01  -0.01  -0.01
   9  16     0.00   0.00  -0.00     0.01  -0.01   0.01     0.00   0.00   0.00
  10   6    -0.00  -0.00   0.00     0.00   0.01   0.00    -0.00   0.00  -0.00
  11  16     0.00   0.01   0.00    -0.00  -0.00  -0.00    -0.01  -0.01   0.00
  12  15     0.00   0.01  -0.01    -0.00   0.00  -0.00     0.01  -0.03   0.01
  13  16    -0.00   0.00   0.00     0.00  -0.00   0.00     0.00  -0.00   0.00
  14   8     0.08  -0.14   0.04    -0.00   0.00   0.00     0.18  -0.24   0.02
  15   6    -0.29   0.16   0.11     0.00  -0.00  -0.00    -0.43   0.22   0.16
  16   6     0.24  -0.07  -0.12    -0.00   0.00   0.00     0.30  -0.04  -0.18
  17   8    -0.00  -0.24  -0.11     0.00  -0.01  -0.00    -0.02   0.26   0.10
  18   6     0.23   0.38   0.08     0.01   0.01   0.00    -0.18  -0.31  -0.08
  19   6    -0.22  -0.24  -0.01    -0.00  -0.00   0.00     0.15   0.17   0.01
  20   1    -0.00  -0.03  -0.01     0.00  -0.07  -0.03     0.00   0.00   0.00
  21   1    -0.01  -0.02  -0.01    -0.02  -0.05  -0.05     0.00   0.00   0.00
  22   1     0.05   0.05  -0.04     0.18   0.17  -0.15     0.00  -0.00   0.00
  23   1    -0.02  -0.03  -0.00    -0.08  -0.10  -0.01     0.00   0.00   0.00
  24   1    -0.01  -0.04  -0.01    -0.05  -0.12  -0.03    -0.00   0.00   0.00
  25   1     0.01  -0.01  -0.03    -0.05   0.04   0.15    -0.00   0.00   0.00
  26   1     0.01  -0.02  -0.03    -0.04   0.07   0.16    -0.00   0.00   0.00
  27   1    -0.00   0.01  -0.01     0.00  -0.02   0.08     0.00  -0.00  -0.00
  28   1    -0.05   0.04   0.03     0.23  -0.20  -0.15     0.01  -0.00  -0.00
  29   1    -0.01  -0.00  -0.02     0.04  -0.00   0.08     0.00  -0.00  -0.00
[...]
  33   1    -0.00  -0.00  -0.00    -0.00  -0.00  -0.00    -0.00   0.00  -0.00
  34   1    -0.00   0.00   0.00     0.00  -0.00  -0.00     0.00  -0.00  -0.00
  35   1    -0.00  -0.00  -0.00     0.00   0.00   0.00    -0.00   0.00   0.00
  36   1    -0.00   0.00  -0.00    -0.00   0.00  -0.00     0.00  -0.00   0.00
  37   1    -0.00  -0.00   0.00    -0.00   0.00   0.00     0.00   0.00  -0.00
  38   1     0.00  -0.00   0.00     0.00  -0.00   0.00    -0.01   0.00  -0.00
  39   1    -0.00   0.00   0.00     0.00   0.00  -0.00    -0.00   0.00   0.00
  40   1    -0.00   0.00  -0.00    -0.00   0.00  -0.00     0.00  -0.00   0.00
  41   1    -0.00  -0.00  -0.00     0.00  -0.00  -0.00    -0.00  -0.00  -0.00
                    103                    104                    105
                        a                      a                      a 
 Frequencies --  2975.1026              2976.7448              2986.0412
 Red. masses --     1.7274                 1.7333                 2.0576
 Frc consts  --     0.0000                 0.0000                 0.0000
 IR Inten    --    11.0092                 6.3357                 8.7425
 Raman Activ --     0.0000                 0.0000                 0.0000
 Depolar     --     0.0000                 0.0000                 0.0000
 Atom AN      X      Y      Z        X      Y      Z        X      Y      Z
   1   6     0.02  -0.01  -0.00    -0.00  -0.00   0.00     0.00   0.00  -0.00
   2   6    -0.23   0.08   0.04    -0.05   0.02   0.01    -0.00   0.00   0.00
   3   8    -0.00   0.01   0.01    -0.00   0.00   0.00     0.00   0.00   0.00
   4  15     0.00  -0.00  -0.00     0.00  -0.00  -0.00    -0.00  -0.00  -0.00
   5  16    -0.00   0.00  -0.00    -0.00  -0.00  -0.00    -0.00  -0.00  -0.00
   6   8     0.00  -0.00  -0.00     0.00   0.00  -0.00     0.00   0.00  -0.00
   7   6     0.00   0.00  -0.00    -0.00   0.00  -0.00     0.00   0.00  -0.00
   8   6    -0.00  -0.00   0.00    -0.00  -0.00   0.00     0.00  -0.00   0.00
   9  16     0.00  -0.00  -0.00     0.00  -0.00  -0.00     0.00  -0.00   0.00
  10   6     0.00   0.00  -0.00    -0.00  -0.00   0.00     0.26   0.05   0.17
  11  16     0.00   0.00  -0.00     0.00   0.00   0.00     0.00   0.00   0.00
  12  15     0.00  -0.00   0.00    -0.00   0.00  -0.00    -0.00  -0.00   0.00
  13  16    -0.00  -0.00   0.00    -0.00   0.00  -0.00    -0.00  -0.00  -0.00
  14   8    -0.00  -0.00   0.00     0.00  -0.00   0.00     0.00   0.00   0.00
  15   6    -0.00  -0.00  -0.00     0.00   0.00   0.00    -0.00  -0.00   0.00
  16   6    -0.00   0.00   0.00    -0.00  -0.00  -0.00     0.00   0.00   0.00
  17   8    -0.00   0.00   0.00     0.00  -0.01  -0.00     0.00  -0.00   0.00
  18   6    -0.03   0.03  -0.02     0.18  -0.15   0.08     0.00  -0.00   0.00
  19   6     0.00  -0.00   0.00    -0.02   0.02  -0.01     0.00  -0.00  -0.00
  20   1    -0.00   0.00  -0.01    -0.00   0.00  -0.01     0.00  -0.00   0.00
  21   1    -0.10   0.04   0.01     0.01  -0.00  -0.00    -0.00   0.00   0.00
  22   1     0.00   0.01   0.01     0.00   0.00   0.00     0.00  -0.00  -0.00
  23   1    -0.04   0.02  -0.02    -0.01   0.00   0.00    -0.00   0.00  -0.00
  24   1     0.87  -0.34  -0.14     0.17  -0.07  -0.03     0.00  -0.00  -0.00
  25   1    -0.00  -0.00   0.00    -0.00  -0.00   0.00    -0.00  -0.00   0.00
  26   1    -0.00  -0.00  -0.00     0.00   0.00   0.00     0.00   0.00   0.00
  27   1     0.00   0.00   0.00     0.00   0.00   0.00    -0.00  -0.00  -0.00
  28   1    -0.00  -0.00  -0.00    -0.00   0.00  -0.00    -0.00   0.00  -0.00
  29   1     0.00   0.00  -0.00     0.00   0.00  -0.00     0.00   0.00  -0.00
  30   1     0.01  -0.00   0.01    -0.00   0.00  -0.00    -0.47   0.22  -0.54
  31   1    -0.01  -0.01  -0.00     0.00   0.00   0.00    -0.44  -0.39  -0.05
  32   1     0.00   0.00   0.00    -0.00  -0.00  -0.00     0.00   0.00   0.00
  33   1     0.00  -0.00   0.00    -0.00   0.00  -0.00    -0.00   0.00  -0.00
  34   1     0.00  -0.00   0.00    -0.00  -0.00  -0.00     0.00  -0.00   0.00
  35   1    -0.00  -0.00  -0.00     0.00   0.00   0.00    -0.00  -0.00  -0.00
  36   1    -0.00   0.00  -0.00    -0.00  -0.00   0.00    -0.00   0.00  -0.00
  37   1    -0.00   0.00  -0.00     0.02  -0.02   0.02    -0.00   0.00  -0.00
  38   1     0.13  -0.11   0.06    -0.67   0.59  -0.30    -0.00   0.00  -0.00
  39   1     0.00  -0.00  -0.00    -0.00   0.00   0.02     0.00   0.00   0.00
  40   1    -0.02   0.01  -0.01     0.09  -0.08   0.04    -0.00   0.00  -0.00
  41   1     0.00   0.00   0.00    -0.01  -0.01  -0.01     0.00  -0.00  -0.00
                    106                    107                    108
                        a                      a                      a 
 Frequencies --  3020.1734              3032.6361              3036.9393
 Red. masses --     1.7563                 1.7777                 1.8369
 Frc consts  --     0.0000                 0.0000                 0.0000
 IR Inten    --    43.2660                39.1512                37.9123
 Raman Activ --     0.0000                 0.0000                 0.0000
 Depolar     --     0.0000                 0.0000                 0.0000
 Atom AN      X      Y      Z        X      Y      Z        X      Y      Z
   1   6     0.00  -0.00  -0.00     0.24  -0.10  -0.01    -0.01   0.00  -0.00
   2   6     0.00  -0.00   0.00     0.03  -0.01   0.00    -0.00   0.00  -0.00
   3   8    -0.00  -0.00   0.00    -0.00  -0.00  -0.00     0.00  -0.00  -0.00
   4  15     0.00   0.00   0.00     0.00   0.00   0.00     0.00  -0.00  -0.00
   5  16    -0.00  -0.00   0.00     0.00   0.00   0.00    -0.00  -0.00   0.00
   6   8    -0.00  -0.00  -0.00    -0.00  -0.00  -0.00    -0.00   0.00   0.00
   7   6     0.00  -0.00   0.00    -0.00  -0.00   0.00    -0.01  -0.03   0.00
   8   6    -0.00  -0.00   0.00    -0.00  -0.01   0.00    -0.09  -0.25   0.03
   9  16    -0.00   0.00  -0.00    -0.00  -0.00  -0.00    -0.00  -0.00  -0.00
  10   6     0.00  -0.00   0.00    -0.00  -0.00   0.00    -0.00   0.00  -0.00
  11  16    -0.00  -0.00   0.00     0.00   0.00   0.00     0.00  -0.00   0.00
  12  15    -0.00  -0.00  -0.00     0.00  -0.00   0.00     0.00   0.00   0.00
  13  16     0.00   0.00  -0.00    -0.00   0.00  -0.00    -0.00  -0.00  -0.00
  14   8     0.00   0.00   0.00    -0.00   0.00   0.00    -0.00   0.00   0.00
  15   6    -0.00  -0.00   0.00     0.00  -0.00  -0.00    -0.00  -0.00  -0.00
  16   6    -0.00   0.00  -0.00     0.00  -0.00  -0.00     0.00  -0.00   0.00
  17   8     0.00   0.00  -0.00    -0.00  -0.00  -0.00    -0.00  -0.00  -0.00
  18   6    -0.03   0.02  -0.02     0.01  -0.00   0.00    -0.00   0.00   0.00
  19   6    -0.17   0.16  -0.11     0.00  -0.00   0.00     0.00  -0.00  -0.00
  20   1     0.00  -0.00   0.00    -0.01   0.02  -0.10     0.00  -0.00   0.01
  21   1    -0.01   0.00   0.00    -0.87   0.36   0.13     0.03  -0.01  -0.00
  22   1     0.00   0.00   0.00     0.03  -0.02   0.00    -0.00   0.00   0.00
  23   1    -0.00   0.00  -0.00    -0.01   0.01  -0.02     0.00  -0.00   0.00
  24   1    -0.00   0.00   0.00    -0.09   0.04   0.01     0.00  -0.00  -0.00
  25   1     0.00   0.00  -0.00     0.00   0.00   0.00     0.01   0.07  -0.02
  26   1    -0.00  -0.00  -0.00    -0.00  -0.00   0.00     0.02   0.01   0.00
  27   1     0.01   0.00   0.00     0.00  -0.00   0.00     0.23   0.03   0.05
  28   1    -0.00  -0.00  -0.00     0.00  -0.00   0.00    -0.01  -0.04   0.03
  29   1     0.00   0.00  -0.00     0.00   0.03  -0.01     0.10   0.90  -0.19
  30   1    -0.00   0.00  -0.00     0.00  -0.00   0.00     0.00  -0.00   0.00
  31   1     0.00   0.00   0.00     0.00  -0.00  -0.00    -0.00  -0.00   0.00
  32   1     0.00   0.00   0.00     0.00   0.00   0.00     0.00   0.00   0.00
  33   1    -0.00   0.00  -0.00     0.00  -0.00  -0.00     0.00  -0.00   0.00
  34   1     0.00  -0.00  -0.00    -0.00   0.00  -0.00    -0.00   0.00   0.00
  35   1     0.00   0.00   0.00     0.00   0.00   0.00     0.00   0.00   0.00
  36   1     0.00  -0.00   0.01     0.00  -0.00   0.00    -0.00   0.00  -0.00
  37   1    -0.00   0.00   0.02     0.00  -0.00   0.01    -0.00   0.00  -0.00
  38   1     0.09  -0.08   0.04    -0.02   0.02  -0.01     0.00  -0.00   0.00
  39   1    -0.02   0.02   0.05     0.00  -0.00  -0.00    -0.00  -0.00   0.00
  40   1     0.66  -0.60   0.33    -0.01   0.01  -0.00    -0.00   0.00  -0.00
  41   1    -0.02   0.03  -0.01    -0.00  -0.00  -0.00    -0.00  -0.00  -0.00
                    109                    110                    111
                        a                      a                      a 
 Frequencies --  3041.9835              3044.3021              3048.5728
 Red. masses --     1.6517                 1.5212                 1.6130
 Frc consts  --     0.0000                 0.0000                 0.0000
 IR Inten    --    21.6602                19.2774                15.2442
 Raman Activ --     0.0000                 0.0000                 0.0000
 Depolar     --     0.0000                 0.0000                 0.0000
 Atom AN      X      Y      Z        X      Y      Z        X      Y      Z
   1   6    -0.07   0.08  -0.22    -0.00   0.00  -0.01     0.00  -0.00   0.00
   2   6    -0.01   0.01  -0.02    -0.00   0.00  -0.00     0.00  -0.00   0.00
   3   8    -0.00  -0.00   0.00     0.00  -0.00  -0.00     0.00  -0.00  -0.00
   4  15     0.00   0.00  -0.00     0.00  -0.00   0.00    -0.00  -0.00   0.00
   5  16     0.00   0.00   0.00    -0.00   0.00   0.00     0.00   0.00   0.00
   6   8     0.00  -0.00  -0.00    -0.00   0.00  -0.00     0.00   0.00  -0.00
   7   6    -0.00   0.00   0.00     0.02   0.00   0.00     0.00   0.00  -0.00
   8   6    -0.01   0.00  -0.00     0.21   0.01   0.02     0.00   0.00  -0.00
   9  16    -0.00  -0.00  -0.00    -0.00  -0.00  -0.00    -0.00  -0.00  -0.00
  10   6    -0.00   0.00  -0.00    -0.00   0.00  -0.00    -0.00  -0.00   0.00
  11  16    -0.00   0.00  -0.00     0.00  -0.00  -0.00     0.00   0.00  -0.00
  12  15     0.00  -0.00   0.00    -0.00  -0.00   0.00     0.00   0.00  -0.00
  13  16    -0.00   0.00  -0.00    -0.00   0.00  -0.00    -0.00   0.00  -0.00
  14   8    -0.00  -0.00   0.00     0.00   0.00  -0.00    -0.00  -0.00   0.00
  15   6    -0.00  -0.00  -0.00     0.00  -0.00  -0.00     0.00   0.00   0.00
  16   6     0.00  -0.00   0.00     0.00   0.00   0.00     0.00  -0.00   0.00
  17   8    -0.00  -0.00  -0.00     0.00   0.00   0.00    -0.00   0.00   0.00
  18   6     0.00  -0.00   0.00     0.00  -0.00   0.00    -0.00   0.00  -0.02
  19   6     0.00   0.00  -0.00    -0.00   0.00   0.00     0.03   0.03  -0.23
  20   1     0.35  -0.31   0.84     0.01  -0.01   0.03    -0.00   0.00  -0.01
  21   1    -0.11   0.05  -0.02     0.00  -0.00  -0.00    -0.00   0.00   0.00
  22   1    -0.01  -0.02  -0.05    -0.00  -0.00  -0.00    -0.00  -0.00  -0.00
  23   1     0.02  -0.02   0.04     0.00  -0.00   0.00    -0.00   0.00  -0.00
  24   1     0.00  -0.00  -0.00     0.00  -0.00  -0.00    -0.00   0.00   0.00
  25   1    -0.00  -0.00   0.00     0.00   0.01  -0.00    -0.00  -0.00   0.00
  26   1     0.00   0.00  -0.00    -0.04  -0.02  -0.01    -0.00  -0.00  -0.00
  27   1     0.03   0.01   0.01    -0.88  -0.25  -0.17    -0.00  -0.00  -0.00
  28   1    -0.00  -0.00   0.00     0.06  -0.02   0.15     0.00  -0.00   0.01
  29   1    -0.00  -0.02   0.00     0.06   0.25  -0.05    -0.00  -0.00   0.00
  30   1     0.00  -0.00   0.00     0.00  -0.00   0.00    -0.00  -0.00   0.00
  31   1    -0.00  -0.00  -0.00     0.00   0.00   0.00     0.00   0.00   0.00
  32   1     0.00   0.00   0.00     0.00   0.00   0.00    -0.00  -0.00  -0.00
  33   1     0.00  -0.00   0.00     0.00   0.00   0.00     0.00  -0.00   0.00
  34   1    -0.00   0.00   0.00    -0.00   0.00   0.00    -0.01   0.01  -0.00
  35   1     0.00   0.00   0.00    -0.01  -0.01  -0.00     0.00   0.00   0.00
  36   1    -0.00   0.00  -0.00    -0.00   0.00  -0.00    -0.00  -0.00  -0.00
  37   1     0.00  -0.00   0.00     0.00  -0.00  -0.00     0.00  -0.00   0.04
  38   1    -0.01   0.01  -0.00    -0.00   0.00  -0.00     0.01  -0.01   0.00
  39   1    -0.00  -0.00   0.01     0.00   0.00  -0.00    -0.03  -0.02   0.95
  40   1    -0.00   0.00  -0.00     0.00  -0.00   0.00    -0.05   0.05  -0.05
  41   1    -0.00  -0.00  -0.00     0.00   0.00   0.00    -0.03  -0.14  -0.09
                    112                    113                    114
                        a                      a                      a 
 Frequencies --  3053.3474              3056.2732              3057.1743
 Red. masses --     1.8842                 1.4713                 1.7810
 Frc consts  --     0.0000                 0.0000                 0.0000
 IR Inten    --    24.9228                13.6371                 9.1791
 Raman Activ --     0.0000                 0.0000                 0.0000
 Depolar     --     0.0000                 0.0000                 0.0000
 Atom AN      X      Y      Z        X      Y      Z        X      Y      Z
   1   6     0.00  -0.00  -0.00    -0.00   0.00  -0.00    -0.00  -0.00  -0.00
   2   6     0.00  -0.00   0.00    -0.00   0.00  -0.00     0.00  -0.00  -0.00
   3   8    -0.00   0.00   0.00     0.00  -0.00  -0.00     0.00   0.00   0.00
   4  15    -0.00  -0.00  -0.00    -0.00  -0.00   0.00    -0.00   0.00  -0.00
   5  16     0.00   0.00  -0.00     0.00   0.00  -0.00     0.00   0.00  -0.00
   6   8     0.00  -0.00   0.00     0.00  -0.00  -0.00     0.00  -0.00   0.00
   7   6    -0.00  -0.00   0.00    -0.00   0.00  -0.00     0.00  -0.00   0.00
   8   6    -0.00  -0.00   0.00    -0.00   0.00  -0.01     0.00   0.00   0.00
   9  16     0.00  -0.00   0.00     0.00  -0.00  -0.00    -0.00   0.00   0.00
  10   6    -0.00   0.00  -0.00     0.00  -0.00   0.00     0.00  -0.00  -0.00
  11  16     0.00   0.00   0.00     0.00   0.00  -0.00    -0.00  -0.00   0.00
  12  15     0.00   0.00   0.00    -0.00   0.00   0.00     0.00  -0.00   0.00
  13  16    -0.00   0.00   0.00     0.00  -0.00  -0.00    -0.00  -0.00   0.00
  14   8    -0.00  -0.00  -0.00     0.00  -0.00  -0.00     0.00   0.00  -0.00
  15   6     0.01   0.01   0.01    -0.00   0.00  -0.01    -0.00  -0.00   0.00
  16   6     0.16   0.18   0.15    -0.02   0.07  -0.18    -0.01  -0.02   0.03
  17   8     0.00   0.00  -0.00     0.00  -0.00  -0.00     0.00  -0.00  -0.00
  18   6    -0.00   0.00   0.00    -0.00   0.00   0.00    -0.00   0.01   0.01
  19   6     0.00   0.01   0.01     0.01   0.05   0.03     0.04   0.23   0.13
  20   1    -0.00   0.00  -0.00     0.00  -0.00   0.00    -0.00   0.00  -0.00
  21   1    -0.00   0.00   0.00     0.00  -0.00  -0.00     0.00  -0.00  -0.00
  22   1     0.00   0.00   0.00    -0.00   0.00   0.00     0.00   0.01   0.01
  23   1    -0.00   0.00  -0.00     0.00  -0.00   0.00    -0.00   0.00  -0.00
  24   1    -0.00   0.00   0.00     0.00  -0.00   0.00    -0.00   0.00   0.00
  25   1    -0.00   0.00  -0.00    -0.00  -0.00   0.00     0.00   0.00  -0.00
  26   1     0.00   0.00   0.00     0.00   0.00   0.00     0.00   0.00  -0.00
  27   1     0.01   0.00   0.00     0.01   0.00   0.00    -0.00  -0.00  -0.00
  28   1    -0.00   0.00  -0.01     0.01  -0.00   0.03     0.00   0.00  -0.00
  29   1    -0.00  -0.00   0.00    -0.00   0.00  -0.00    -0.00  -0.00   0.00
  30   1     0.00  -0.00   0.00    -0.00   0.00  -0.00     0.00  -0.00  -0.00
  31   1     0.00   0.00  -0.00     0.00   0.00   0.00     0.00   0.00  -0.00
  32   1    -0.02  -0.04  -0.01    -0.00  -0.00  -0.00     0.00   0.00   0.00
  33   1    -0.01   0.00  -0.02     0.01  -0.00   0.03    -0.00   0.00  -0.00
  34   1     0.00   0.05   0.02    -0.12   0.15  -0.02     0.04  -0.05   0.00
  35   1    -0.43  -0.74  -0.24    -0.17  -0.27  -0.12     0.06   0.10   0.04
  36   1    -0.12   0.07  -0.32     0.34  -0.11   0.80    -0.06   0.02  -0.15
  37   1     0.00   0.00  -0.00    -0.00   0.00  -0.00    -0.00   0.00  -0.01
  38   1     0.00  -0.00   0.00     0.00  -0.00   0.00     0.01  -0.01   0.01
  39   1     0.00   0.00  -0.00     0.00   0.01  -0.03     0.01   0.03  -0.13
  40   1     0.00  -0.00   0.00    -0.00   0.01   0.00     0.01   0.02   0.02
  41   1    -0.01  -0.05  -0.02    -0.03  -0.18  -0.07    -0.16  -0.85  -0.34
                    115                    116                    117
                        a                      a                      a 
 Frequencies --  3058.7706              3059.1160              3062.7163
 Red. masses --     1.8120                 1.7396                 1.8389
 Frc consts  --     0.0000                 0.0000                 0.0000
 IR Inten    --    16.6292                 8.7491                11.5829
 Raman Activ --     0.0000                 0.0000                 0.0000
 Depolar     --     0.0000                 0.0000                 0.0000
 Atom AN      X      Y      Z        X      Y      Z        X      Y      Z
   1   6    -0.00  -0.00  -0.01    -0.01  -0.19  -0.17     0.00  -0.00  -0.00
   2   6     0.00  -0.00  -0.00     0.00  -0.01  -0.01     0.00  -0.00  -0.00
   3   8    -0.00   0.00   0.00    -0.00   0.00   0.00    -0.00   0.00   0.00
   4  15     0.00   0.00  -0.00    -0.00   0.00  -0.00     0.00  -0.00   0.00
   5  16    -0.00   0.00  -0.00     0.00  -0.00   0.00     0.00   0.00   0.00
   6   8    -0.00   0.00  -0.00     0.00  -0.00   0.00    -0.00   0.00  -0.00
   7   6     0.01  -0.01   0.01    -0.00   0.00  -0.00     0.00  -0.00  -0.00
   8   6     0.09  -0.05   0.25    -0.00   0.00  -0.01    -0.00  -0.00  -0.00
   9  16    -0.00  -0.00  -0.00    -0.00  -0.00  -0.00    -0.00   0.00  -0.00
  10   6    -0.00  -0.00  -0.00     0.00   0.00   0.00    -0.00  -0.00  -0.00
  11  16     0.00  -0.00   0.00    -0.00   0.00   0.00    -0.00   0.00   0.00
  12  15    -0.00  -0.00  -0.00    -0.00   0.00   0.00     0.00   0.00  -0.00
  13  16     0.00   0.00  -0.00    -0.00   0.00  -0.00    -0.00  -0.00   0.00
  14   8     0.00   0.00  -0.00     0.00   0.00  -0.00    -0.00  -0.00   0.00
  15   6    -0.00  -0.00  -0.00    -0.00  -0.00  -0.00    -0.00   0.01  -0.00
  16   6    -0.00   0.00  -0.01     0.00  -0.00  -0.00    -0.16   0.22  -0.03
  17   8     0.00  -0.00   0.00    -0.00   0.00   0.00    -0.00   0.00   0.00
  18   6    -0.00   0.00  -0.00    -0.00   0.00  -0.00     0.00  -0.00  -0.00
  19   6     0.00   0.00  -0.00    -0.00  -0.00  -0.00     0.00  -0.00  -0.00
  20   1     0.00  -0.00   0.01     0.01  -0.03   0.01     0.00  -0.00   0.00
  21   1    -0.00  -0.00  -0.00    -0.00  -0.02  -0.02    -0.00   0.00   0.00
  22   1     0.00   0.02   0.01     0.04   0.74   0.62     0.00   0.00   0.00
  23   1     0.00  -0.00   0.00     0.01  -0.01   0.01     0.00  -0.00   0.00
  24   1    -0.00   0.00   0.00    -0.02   0.01   0.00    -0.00   0.00   0.00
  25   1     0.00   0.02  -0.00    -0.00  -0.00   0.00    -0.00   0.00  -0.00
  26   1    -0.01  -0.01  -0.00     0.00   0.00   0.00    -0.00  -0.00   0.00
  27   1    -0.12  -0.04   0.01     0.00   0.00  -0.00     0.00   0.00   0.00
  28   1    -0.21   0.16  -0.91     0.00  -0.00   0.02     0.00  -0.00   0.00
  29   1     0.02   0.05   0.02    -0.00  -0.00  -0.00     0.00   0.00  -0.00
  30   1     0.00  -0.00   0.00     0.00  -0.00   0.00     0.00   0.00   0.00
  31   1     0.00   0.00   0.00    -0.00  -0.00  -0.00     0.00   0.00   0.00
  32   1     0.00   0.00   0.00     0.00   0.00   0.00    -0.01  -0.01  -0.00
  33   1     0.00  -0.00   0.00     0.00  -0.00   0.00     0.01  -0.00   0.01
  34   1    -0.00   0.00  -0.00    -0.00   0.00  -0.00     0.60  -0.73  -0.01
  35   1    -0.00  -0.00  -0.00     0.00   0.00   0.00    -0.07  -0.05  -0.03
  36   1     0.01  -0.00   0.03     0.00  -0.00   0.00     0.04   0.01   0.14
  37   1    -0.00   0.00   0.00     0.00  -0.00   0.00     0.00  -0.00   0.00
  38   1     0.00  -0.00   0.00     0.00  -0.00   0.00    -0.00   0.00  -0.00
  39   1    -0.00   0.00   0.01    -0.00  -0.00   0.00    -0.00  -0.00   0.01
  40   1    -0.00   0.00  -0.00    -0.00   0.00  -0.00    -0.01   0.00  -0.00
  41   1    -0.00  -0.01  -0.00     0.00   0.01   0.00     0.00   0.01   0.01
