      -----------------------------------------------------------      
     |                   =====================                   |     
     |                           x T B                           |     
     |                   =====================                   |     
     |                         S. Grimme                         |     
     |          Mulliken Center for Theoretical Chemistry        |     
     |                    University of Bonn                     |     
      -----------------------------------------------------------      

   * xtb version 6.7.1 (edcfbbe) compiled by 'albert@albert-system' on 2024-07-22

   xtb is free software: you can redistribute it and/or modify it under
   the terms of the GNU Lesser General Public License as published by
   the Free Software Foundation, either version 3 of the License, or
   (at your option) any later version.
   
   xtb is distributed in the hope that it will be useful,
   but WITHOUT ANY WARRANTY; without even the implied warranty of
   MERCHANTABILITY or FITNESS FOR A PARTICULAR PURPOSE.  See the
   GNU Lesser General Public License for more details.
   
   Cite this work as:
   * C. Bannwarth, E. Caldeweyher, S. Ehlert, A. Hansen, P. Pracht,
     J. Seibert, S. Spicher, S. Grimme, WIREs Comput. Mol. Sci., 2020, 11,
     e01493. DOI: 10.1002/wcms.1493
   
   for GFN2-xTB:
   * C. Bannwarth, S. Ehlert and S. Grimme., J. Chem. Theory Comput., 2019,
     15, 1652-1671. DOI: 10.1021/acs.jctc.8b01176
   for GFN1-xTB:
   * S. Grimme, C. Bannwarth, P. Shushkov, J. Chem. Theory Comput., 2017,
     13, 1989-2009. DOI: 10.1021/acs.jctc.7b00118
   for GFN0-xTB:
   * P. Pracht, E. Caldeweyher, S. Ehlert, S. Grimme, ChemRxiv, 2019, preprint.
     DOI: 10.26434/chemrxiv.8326202.v1
   for GFN-FF:
   * S. Spicher and S. Grimme, Angew. Chem. Int. Ed., 2020, 59, 15665-15673.
     DOI: 10.1002/anie.202004239
   
   for ALPB and GBSA implicit solvation:
   * S. Ehlert, M. Stahn, S. Spicher, S. Grimme, J. Chem. Theory Comput.,
     2021, 17, 4250-4261. DOI: 10.1021/acs.jctc.1c00471
   
   for ddCOSMO and CPCM-X implicit solvation:
   * M. Stahn, S. Ehlert, S. Grimme, J. Phys. Chem. A,
     2023, XX, XXXX-XXXX. DOI: 10.1021/acs.jpca.3c04382
   
   for DFT-D4:
   * E. Caldeweyher, C. Bannwarth and S. Grimme, J. Chem. Phys., 2017,
     147, 034112. DOI: 10.1063/1.4993215
   * E. Caldeweyher, S. Ehlert, A. Hansen, H. Neugebauer, S. Spicher,
     C. Bannwarth and S. Grimme, J. Chem. Phys., 2019, 150, 154122.
     DOI: 10.1063/1.5090222
   * E. Caldeweyher, J.-M. Mewes, S. Ehlert and S. Grimme, Phys. Chem. Chem. Phys.
     2020, 22, 8499-8512. DOI: 10.1039/D0CP00502A
   
   for sTDA-xTB:
   * S. Grimme and C. Bannwarth, J. Chem. Phys., 2016, 145, 054103.
     DOI: 10.1063/1.4959605
   
   in the mass-spec context:
   * V. Asgeirsson, C. Bauer and S. Grimme, Chem. Sci., 2017, 8, 4879.
     DOI: 10.1039/c7sc00601b
   * J. Koopman and S. Grimme, ACS Omega 2019, 4, 12, 15120-15133.
     DOI: 10.1021/acsomega.9b02011
   
   for metadynamics refer to:
   * S. Grimme, J. Chem. Theory Comput., 2019, 155, 2847-2862
     DOI: 10.1021/acs.jctc.9b00143
   
   for SPH calculations refer to:
   * S. Spicher and S. Grimme, J. Chem. Theory Comput., 2021, 17, 1701-1714
     DOI: 10.1021/acs.jctc.0c01306
   
   for ONIOM refer to:
   * C. Plett, A. Katbashev, S. Ehlert, S. Grimme, M. Bursch,
     Phys. Chem. Chem. Phys., 2023, 25, 17860-17868. DOI: 10.1039/D3CP02178E
   
   for DIPRO refer to:
   * J. Kohn, N. Gildemeister, S. Grimme, D. Fazzi, A. Hansen,
     J. Chem. Phys., 2023, just accepted.
   
   for PTB refer to:
   * S. Grimme, M. Mueller, A. Hansen, J. Chem. Phys., 2023, 158, 124111.
     DOI: 10.1063/5.0137838
   
   with help from (in alphabetical order)
   P. Atkinson, C. Bannwarth, F. Bohle, G. Brandenburg, E. Caldeweyher
   M. Checinski, S. Dohm, S. Ehlert, S. Ehrlich, I. Gerasimov, C. Hölzer
   A. Katbashev, J. Kohn, J. Koopman, C. Lavigne, S. Lehtola, F. März, M. Müller,
   F. Musil, H. Neugebauer, J. Pisarek, C. Plett, P. Pracht, F. Pultar,
   J. Seibert, P. Shushkov, S. Spicher, M. Stahn, M. Steiner, T. Strunk,
   J. Stückrath, T. Rose, and J. Unsleber
   
 * started run on 2025/04/03 at 21:59:07.493     
   ID    Z sym.   atoms
    1    6 C      1-4, 7, 10-13
    2    8 O      5, 8
    3    7 N      6, 9
    4   17 Cl     14
    5    1 H      15-27

           -------------------------------------------------
          |                Calculation Setup                |
           -------------------------------------------------

          program call               : /srv/scratch/z5358697/.xtb/bin/xtb xtb_rrho.coord --gfn2 --ohess vtight --chrg 0 --enso --norestart -I rrho-xcontrol-inp --parallel 1 --alpb water
          hostname                   : k156
          coordinate file            : xtb_rrho.coord
          omp threads                :                     1


           -------------------------------------------------
          |                 G F N 2 - x T B                 |
           -------------------------------------------------

        Reference                      10.1021/acs.jctc.8b01176
      * Hamiltonian:
        H0-scaling (s, p, d)           1.850000    2.230000    2.230000
        zeta-weighting                 0.500000
      * Dispersion:
        s8                             2.700000
        a1                             0.520000
        a2                             5.000000
        s9                             5.000000
      * Repulsion:
        kExp                           1.500000    1.000000
        rExp                           1.000000
      * Coulomb:
        alpha                          2.000000
        third order                    shell-resolved
        anisotropic                    true
        a3                             3.000000
        a5                             4.000000
        cn-shift                       1.200000
        cn-exp                         4.000000
        max-rad                        5.000000

      * Solvation model:               ALPB
        Solvent                        water
        Parameter file                 internal GFN2-xTB/ALPB
        Dielectric constant                8.0200E+01
        Reference state                gsolv [1 M gas/solution]
        Free energy shift                  1.0808E-03 Eh       6.7819E-01 kcal/mol
        Temperature                        2.9815E+02 K
        Density                            1.0000E+00 kg/L
        Solvent mass                       1.8000E+01 g/mol
        Interaction kernel             P16
        Born radius scaling (c1)           1.4744E+00
        Born radii integrator          GBOBC
        Born offset                        0.0000E+00 a0       0.0000E+00 AA
        H-bond correction              true
        Ion screening                  false
        Surface tension                    1.0000E-05 Eh       1.5569E+01 dyn/cm
        Grid points                               974 per atom

          ...................................................
          :                      SETUP                      :
          :.................................................:
          :  # basis functions                  75          :
          :  # atomic orbitals                  74          :
          :  # shells                           42          :
          :  # electrons                        78          :
          :  max. iterations                   250          :
          :  Hamiltonian                  GFN2-xTB          :
          :  restarted?                      false          :
          :  GBSA solvation                   true          :
          :  PC potential                    false          :
          :  electronic temp.          300.0000000     K    :
          :  accuracy                    1.0000000          :
          :  -> integral cutoff          0.2500000E+02      :
          :  -> integral neglect         0.1000000E-07      :
          :  -> SCF convergence          0.1000000E-05 Eh   :
          :  -> wf. convergence          0.1000000E-03 e    :
          :  Broyden damping             0.4000000          :
          :  net charge                          0          :
          :  unpaired electrons                  0          :
          ...................................................

 iter      E             dE          RMSdq      gap      omega  full diag
   1    -44.8848675 -0.448849E+02  0.409E+00    3.70       0.0  T
   2    -44.9855228 -0.100655E+00  0.215E+00    3.15       1.0  T
   3    -44.9870614 -0.153862E-02  0.122E+00    3.36       1.0  T
   4    -44.9890682 -0.200676E-02  0.498E-01    3.16       1.0  T
   5    -44.9933156 -0.424736E-02  0.127E-01    3.23       1.0  T
   6    -44.9933760 -0.604745E-04  0.875E-02    3.23       1.0  T
   7    -44.9934208 -0.448104E-04  0.521E-02    3.22       1.0  T
   8    -44.9934401 -0.192983E-04  0.363E-02    3.23       1.0  T
   9    -44.9934528 -0.126839E-04  0.112E-02    3.22       1.7  T
  10    -44.9934541 -0.129847E-05  0.466E-03    3.22       4.1  T
  11    -44.9934542 -0.100954E-06  0.296E-03    3.22       6.5  T
  12    -44.9934543 -0.629653E-07  0.179E-03    3.22      10.7  T
  13    -44.9934543 -0.288630E-07  0.121E-03    3.22      15.9  T
  14    -44.9934543 -0.174208E-07  0.469E-04    3.22      41.0  T
  15    -44.9934543 -0.275208E-08  0.187E-04    3.22     102.9  T

   *** convergence criteria satisfied after 15 iterations ***

         #    Occupation            Energy/Eh            Energy/eV
      -------------------------------------------------------------
         1        2.0000           -1.0682341             -29.0681
       ...           ...                  ...                  ...
        33        2.0000           -0.4513494             -12.2818
        34        2.0000           -0.4470665             -12.1653
        35        2.0000           -0.4386121             -11.9352
        36        2.0000           -0.4270106             -11.6195
        37        2.0000           -0.4256862             -11.5835
        38        2.0000           -0.4133115             -11.2468
        39        2.0000           -0.3977385             -10.8230 (HOMO)
        40                         -0.2792247              -7.5981 (LUMO)
        41                         -0.2418677              -6.5816
        42                         -0.1647144              -4.4821
        43                         -0.1617750              -4.4021
        44                         -0.0745643              -2.0290
       ...                                ...                  ...
        74                          0.6351457              17.2832
      -------------------------------------------------------------
                  HL-Gap            0.1185138 Eh            3.2249 eV
             Fermi-level           -0.3384816 Eh           -9.2106 eV

 SCC (total)                   0 d,  0 h,  0 min,  0.028 sec
 SCC setup                      ...        0 min,  0.002 sec (  5.516%)
 Dispersion                     ...        0 min,  0.000 sec (  0.589%)
 classical contributions        ...        0 min,  0.000 sec (  0.101%)
 integral evaluation            ...        0 min,  0.004 sec ( 15.605%)
 iterations                     ...        0 min,  0.013 sec ( 46.059%)
 molecular gradient             ...        0 min,  0.009 sec ( 31.579%)
 printout                       ...        0 min,  0.000 sec (  0.491%)

         :::::::::::::::::::::::::::::::::::::::::::::::::::::
         ::                     SUMMARY                     ::
         :::::::::::::::::::::::::::::::::::::::::::::::::::::
         :: total energy             -44.508329898061 Eh    ::
         :: total w/o Gsasa/hb       -44.504962589660 Eh    ::
         :: gradient norm              0.035818514102 Eh/a0 ::
         :: HOMO-LUMO gap              3.224925912429 eV    ::
         ::.................................................::
         :: SCC energy               -44.993237902430 Eh    ::
         :: -> isotropic ES            0.107703177144 Eh    ::
         :: -> anisotropic ES         -0.002937551845 Eh    ::
         :: -> anisotropic XC          0.010369007630 Eh    ::
         :: -> dispersion             -0.026793660620 Eh    ::
         :: -> Gsolv                  -0.025345387461 Eh    ::
         ::    -> Gelec               -0.021978079060 Eh    ::
         ::    -> Gsasa                0.000771621050 Eh    ::
         ::    -> Ghb                 -0.005219689150 Eh    ::
         ::    -> Gshift               0.001080759698 Eh    ::
         :: repulsion energy           0.484908004369 Eh    ::
         :: add. restraining           0.000000000000 Eh    ::
         :: total charge               0.000000000000 e     ::
         :::::::::::::::::::::::::::::::::::::::::::::::::::::

      ----------------------------------------------------------- 
     |                   =====================                   |
     |                        A N C O P T                        |
     |                   =====================                   |
     |               Approximate Normal Coordinate               |
     |                Rational Function Optimizer                |
      ----------------------------------------------------------- 
      ----------------------------------------------------------- 
     |                   =====================                   |
     |                        A N C O P T                        |
     |                   =====================                   |
     |               Approximate Normal Coordinate               |
     |                Rational Function Optimizer                |
      ----------------------------------------------------------- 

          ...................................................
          :                      SETUP                      :
          :.................................................:
          :   optimization level         verytight          :
          :   max. optcycles                   540          :
          :   ANC micro-cycles                  20          :
          :   degrees of freedom                75          :
          :.................................................:
          :   RF solver                   davidson          :
          :   write xtbopt.log                true          :
          :   linear?                        false          :
          :   energy convergence         0.1000000E-06 Eh   :
          :   grad. convergence          0.2000000E-03 Eh/α :
          :   maxmium RF displ.          1.0000000          :
          :   Hlow (freq-cutoff)         0.1000000E-01      :
          :   Hmax (freq-cutoff)         5.0000000          :
          :   S6 in model hess.         20.0000000          :
          ...................................................

generating ANC from exact Hessian ...
Using Lindh-Hessian (1995)
 Shifting diagonal of input Hessian by   8.714557563256705E-003
 Lowest  eigenvalues of input Hessian
    0.000000    0.000000    0.000000    0.000000    0.000000    0.000000
    0.010000    0.010134    0.011182    0.014847    0.016987    0.017352
    0.017638    0.017949    0.018141    0.018828    0.019429    0.022229
 Highest eigenvalues
    1.686054    1.780948    1.946121    2.039885    2.255137    2.423728
 

........................................................................
.............................. CYCLE    1 ..............................
........................................................................

 iter      E             dE          RMSdq      gap      omega  full diag
   1    -44.9934543 -0.449935E+02  0.582E-05    3.22       0.0  T
   2    -44.9934543 -0.705569E-11  0.386E-05    3.22     498.7  T
   3    -44.9934543 -0.267164E-11  0.183E-05    3.22    1051.0  T
     SCC iter.                  ...        0 min,  0.002 sec
     gradient                   ...        0 min,  0.008 sec
 * total energy  :   -44.5083299 Eh     change       -0.1479137E-09 Eh
   gradient norm :     0.0358215 Eh/α   predicted     0.0000000E+00 (-100.00%)
   displ. norm   :     0.2694524 α      lambda       -0.3657331E-02
   maximum displ.:     0.2169479 α      in ANC's #5, #11, #18, ...

........................................................................
.............................. CYCLE    2 ..............................
........................................................................

 iter      E             dE          RMSdq      gap      omega  full diag
   1    -45.0128241 -0.450128E+02  0.105E-01    3.28       0.0  T
   2    -45.0128905 -0.663519E-04  0.639E-02    3.26       1.0  T
   3    -45.0128944 -0.387833E-05  0.301E-02    3.27       1.0  T
   4    -45.0128968 -0.246112E-05  0.713E-03    3.26       2.7  T
   5    -45.0128971 -0.249334E-06  0.421E-03    3.26       4.6  T
   6    -45.0128972 -0.835925E-07  0.262E-03    3.26       7.3  T
   7    -45.0128972 -0.418019E-07  0.184E-03    3.26      10.5  T
   8    -45.0128972 -0.341368E-07  0.929E-04    3.26      20.7  T
   9    -45.0128972 -0.100631E-07  0.530E-04    3.26      36.3  T
     SCC iter.                  ...        0 min,  0.007 sec
     gradient                   ...        0 min,  0.009 sec
 * total energy  :   -44.5106544 Eh     change       -0.2324461E-02 Eh
   gradient norm :     0.0135196 Eh/α   predicted    -0.1961744E-02 ( -15.60%)
   displ. norm   :     0.1365929 α      lambda       -0.6973546E-03
   maximum displ.:     0.0855538 α      in ANC's #5, #4, #17, ...

........................................................................
.............................. CYCLE    3 ..............................
........................................................................

 iter      E             dE          RMSdq      gap      omega  full diag
   1    -45.0210539 -0.450211E+02  0.634E-02    3.28       0.0  T
   2    -45.0210764 -0.225051E-04  0.385E-02    3.28       1.0  T
   3    -45.0210776 -0.118750E-05  0.187E-02    3.28       1.0  T
   4    -45.0210783 -0.661939E-06  0.515E-03    3.28       3.7  T
   5    -45.0210785 -0.179826E-06  0.385E-03    3.28       5.0  T
   6    -45.0210785 -0.769252E-07  0.300E-03    3.28       6.4  T
   7    -45.0210786 -0.850962E-07  0.171E-03    3.28      11.2  T
   8    -45.0210787 -0.311616E-07  0.775E-04    3.28      24.8  T
   9    -45.0210787 -0.543072E-08  0.284E-04    3.28      67.8  T
     SCC iter.                  ...        0 min,  0.006 sec
     gradient                   ...        0 min,  0.008 sec
 * total energy  :   -44.5110525 Eh     change       -0.3981263E-03 Eh
   gradient norm :     0.0064890 Eh/α   predicted    -0.3559353E-03 ( -10.60%)
   displ. norm   :     0.0763751 α      lambda       -0.1190740E-03
   maximum displ.:     0.0539250 α      in ANC's #5, #4, #3, ...

........................................................................
.............................. CYCLE    4 ..............................
........................................................................

 iter      E             dE          RMSdq      gap      omega  full diag
   1    -45.0207598 -0.450208E+02  0.261E-02    3.27       0.0  T
   2    -45.0207630 -0.311441E-05  0.155E-02    3.27       1.2  T
   3    -45.0207631 -0.116516E-06  0.779E-03    3.27       2.5  T
   4    -45.0207631 -0.463380E-07  0.304E-03    3.27       6.3  T
   5    -45.0207633 -0.135096E-06  0.167E-03    3.27      11.6  T
   6    -45.0207633 -0.227416E-07  0.100E-03    3.27      19.2  T
   7    -45.0207633 -0.118756E-07  0.491E-04    3.27      39.2  T
     SCC iter.                  ...        0 min,  0.005 sec
     gradient                   ...        0 min,  0.009 sec
 * total energy  :   -44.5111320 Eh     change       -0.7956415E-04 Eh
   gradient norm :     0.0029762 Eh/α   predicted    -0.5988793E-04 ( -24.73%)
   displ. norm   :     0.0766405 α      lambda       -0.6240373E-04
   maximum displ.:     0.0407355 α      in ANC's #4, #5, #10, ...

........................................................................
.............................. CYCLE    5 ..............................
........................................................................

 iter      E             dE          RMSdq      gap      omega  full diag
   1    -45.0196097 -0.450196E+02  0.209E-02    3.27       0.0  T
   2    -45.0196106 -0.905122E-06  0.122E-02    3.27       1.6  T
   3    -45.0196105  0.919398E-07  0.608E-03    3.27       3.2  T
   4    -45.0196107 -0.237777E-06  0.212E-03    3.27       9.1  T
   5    -45.0196108 -0.589418E-07  0.114E-03    3.27      16.9  T
   6    -45.0196108 -0.837973E-08  0.730E-04    3.27      26.4  T
   7    -45.0196108 -0.551979E-08  0.425E-04    3.27      45.3  T
     SCC iter.                  ...        0 min,  0.005 sec
     gradient                   ...        0 min,  0.008 sec
 * total energy  :   -44.5111715 Eh     change       -0.3942196E-04 Eh
   gradient norm :     0.0017081 Eh/α   predicted    -0.3138567E-04 ( -20.39%)
   displ. norm   :     0.0822759 α      lambda       -0.2299947E-04
   maximum displ.:     0.0352902 α      in ANC's #5, #8, #11, ...

........................................................................
.............................. CYCLE    6 ..............................
........................................................................

 iter      E             dE          RMSdq      gap      omega  full diag
   1    -45.0186271 -0.450186E+02  0.205E-02    3.26       0.0  T
   2    -45.0186273 -0.176888E-06  0.123E-02    3.26       1.6  T
   3    -45.0186270  0.316155E-06  0.485E-03    3.26       4.0  T
   4    -45.0186274 -0.406002E-06  0.903E-04    3.26      21.3  T
   5    -45.0186274 -0.587301E-08  0.579E-04    3.26      33.3  T
     SCC iter.                  ...        0 min,  0.003 sec
     gradient                   ...        0 min,  0.008 sec
 * total energy  :   -44.5111923 Eh     change       -0.2081613E-04 Eh
   gradient norm :     0.0022751 Eh/α   predicted    -0.1154004E-04 ( -44.56%)
   displ. norm   :     0.0354718 α      lambda       -0.1376946E-04
   maximum displ.:     0.0214832 α      in ANC's #8, #11, #5, ...

........................................................................
.............................. CYCLE    7 ..............................
........................................................................

 iter      E             dE          RMSdq      gap      omega  full diag
   1    -45.0190310 -0.450190E+02  0.874E-03    3.26       0.0  T
   2    -45.0190312 -0.148035E-06  0.521E-03    3.26       3.7  T
   3    -45.0190312 -0.553818E-08  0.175E-03    3.26      11.0  T
   4    -45.0190312 -0.683811E-08  0.467E-04    3.26      41.2  T
   5    -45.0190312 -0.836351E-09  0.370E-04    3.26      52.0  T
     SCC iter.                  ...        0 min,  0.004 sec
     gradient                   ...        0 min,  0.008 sec
 * total energy  :   -44.5112029 Eh     change       -0.1061173E-04 Eh
   gradient norm :     0.0014569 Eh/α   predicted    -0.6894683E-05 ( -35.03%)
   displ. norm   :     0.0789649 α      lambda       -0.1284391E-04
   maximum displ.:     0.0461687 α      in ANC's #8, #5, #11, ...

........................................................................
.............................. CYCLE    8 ..............................
........................................................................

 iter      E             dE          RMSdq      gap      omega  full diag
   1    -45.0198027 -0.450198E+02  0.180E-02    3.26       0.0  T
   2    -45.0198032 -0.498533E-06  0.107E-02    3.26       1.8  T
   3    -45.0198032  0.155512E-07  0.352E-03    3.26       5.5  T
   4    -45.0198032 -0.450029E-07  0.120E-03    3.26      16.1  T
   5    -45.0198033 -0.197473E-07  0.659E-04    3.26      29.2  T
   6    -45.0198033 -0.230268E-08  0.418E-04    3.26      46.0  T
     SCC iter.                  ...        0 min,  0.004 sec
     gradient                   ...        0 min,  0.009 sec
 * total energy  :   -44.5112096 Eh     change       -0.6665218E-05 Eh
   gradient norm :     0.0012120 Eh/α   predicted    -0.6440113E-05 (  -3.38%)
   displ. norm   :     0.0143768 α      lambda       -0.2466624E-05
   maximum displ.:     0.0078725 α      in ANC's #8, #3, #4, ...

........................................................................
.............................. CYCLE    9 ..............................
........................................................................

 iter      E             dE          RMSdq      gap      omega  full diag
   1    -45.0197324 -0.450197E+02  0.470E-03    3.26       0.0  T
   2    -45.0197324 -0.569153E-07  0.279E-03    3.26       6.9  T
   3    -45.0197324 -0.187639E-08  0.103E-03    3.26      18.8  T
   4    -45.0197324 -0.265441E-08  0.222E-04    3.26      86.7  T
   5    -45.0197324 -0.239055E-09  0.163E-04    3.26     118.4  T
     SCC iter.                  ...        0 min,  0.003 sec
     gradient                   ...        0 min,  0.008 sec
 * total energy  :   -44.5112114 Eh     change       -0.1882863E-05 Eh
   gradient norm :     0.0004618 Eh/α   predicted    -0.1236980E-05 ( -34.30%)
   displ. norm   :     0.0103272 α      lambda       -0.8514689E-06
   maximum displ.:     0.0047047 α      in ANC's #11, #8, #3, ...

........................................................................
.............................. CYCLE   10 ..............................
........................................................................

 iter      E             dE          RMSdq      gap      omega  full diag
   1    -45.0196399 -0.450196E+02  0.368E-03    3.26       0.0  T
   2    -45.0196399 -0.205929E-07  0.217E-03    3.26       8.9  T
   3    -45.0196399  0.234393E-08  0.780E-04    3.26      24.7  T
   4    -45.0196399 -0.461672E-08  0.293E-04    3.26      65.6  T
     SCC iter.                  ...        0 min,  0.003 sec
     gradient                   ...        0 min,  0.008 sec
 * total energy  :   -44.5112118 Eh     change       -0.3889394E-06 Eh
   gradient norm :     0.0002385 Eh/α   predicted    -0.4273077E-06 (   9.86%)
   displ. norm   :     0.0086568 α      lambda       -0.3163551E-06
   maximum displ.:     0.0044360 α      in ANC's #6, #8, #5, ...

........................................................................
.............................. CYCLE   11 ..............................
........................................................................

 iter      E             dE          RMSdq      gap      omega  full diag
   1    -45.0196057 -0.450196E+02  0.204E-03    3.26       0.0  T
   2    -45.0196057 -0.244084E-08  0.122E-03    3.26      15.7  T
   3    -45.0196057  0.361020E-09  0.271E-04    3.26      71.1  T
   4    -45.0196057 -0.713676E-09  0.122E-04    3.26     157.4  T
     SCC iter.                  ...        0 min,  0.003 sec
     gradient                   ...        0 min,  0.008 sec
 * total energy  :   -44.5112121 Eh     change       -0.2938958E-06 Eh
   gradient norm :     0.0001160 Eh/α   predicted    -0.1605368E-06 ( -45.38%)
   displ. norm   :     0.0069107 α      lambda       -0.1334024E-06
   maximum displ.:     0.0040852 α      in ANC's #6, #2, #8, ...

........................................................................
.............................. CYCLE   12 ..............................
........................................................................

 iter      E             dE          RMSdq      gap      omega  full diag
   1    -45.0196629 -0.450197E+02  0.160E-03    3.26       0.0  T
   2    -45.0196629 -0.217805E-08  0.946E-04    3.26      20.3  T
   3    -45.0196629  0.490722E-09  0.268E-04    3.26      71.7  T
     SCC iter.                  ...        0 min,  0.002 sec
     gradient                   ...        0 min,  0.008 sec
 * total energy  :   -44.5112123 Eh     change       -0.1374621E-06 Eh
   gradient norm :     0.0000875 Eh/α   predicted    -0.6842399E-07 ( -50.22%)
   displ. norm   :     0.0069107 α      lambda        0.0000000E+00
   maximum displ.:     0.0040852 α      in ANC's #6, #2, #8, ...

........................................................................
.............................. CYCLE   13 ..............................
........................................................................

 iter      E             dE          RMSdq      gap      omega  full diag
   1    -45.0197188 -0.450197E+02  0.160E-03    3.26       0.0  T
   2    -45.0197188 -0.217989E-08  0.949E-04    3.26      20.3  T
   3    -45.0197188 -0.455032E-10  0.189E-04    3.26     101.7  T
     SCC iter.                  ...        0 min,  0.002 sec
     gradient                   ...        0 min,  0.008 sec
 * total energy  :   -44.5112123 Eh     change       -0.5650122E-08 Eh
   gradient norm :     0.0002045 Eh/α   predicted    -0.6925652E-09 ( -87.74%)
   displ. norm   :     0.0045557 α      lambda       -0.1333693E-06
   maximum displ.:     0.0025801 α      in ANC's #2, #6, #11, ...

........................................................................
.............................. CYCLE   14 ..............................
........................................................................

 iter      E             dE          RMSdq      gap      omega  full diag
   1    -45.0196761 -0.450197E+02  0.124E-03    3.26       0.0  T
   2    -45.0196761 -0.172111E-08  0.724E-04    3.26      26.6  T
   3    -45.0196761 -0.457518E-10  0.173E-04    3.26     111.2  T
     SCC iter.                  ...        0 min,  0.002 sec
     gradient                   ...        0 min,  0.008 sec
 * total energy  :   -44.5112124 Eh     change       -0.1552926E-06 Eh
   gradient norm :     0.0001068 Eh/α   predicted    -0.6891711E-07 ( -55.62%)
   displ. norm   :     0.0105848 α      lambda       -0.1632515E-06
   maximum displ.:     0.0068904 α      in ANC's #2, #6, #11, ...

........................................................................
.............................. CYCLE   15 ..............................
........................................................................

 iter      E             dE          RMSdq      gap      omega  full diag
   1    -45.0196179 -0.450196E+02  0.243E-03    3.26       0.0  T
   2    -45.0196179 -0.238071E-08  0.144E-03    3.26      13.4  T
   3    -45.0196179 -0.576392E-10  0.190E-04    3.26     101.3  T
   4    -45.0196179 -0.297184E-09  0.830E-05    3.26     232.0  T
     SCC iter.                  ...        0 min,  0.003 sec
     gradient                   ...        0 min,  0.008 sec
 * total energy  :   -44.5112126 Eh     change       -0.1664885E-06 Eh
   gradient norm :     0.0000790 Eh/α   predicted    -0.8571523E-07 ( -48.52%)
   displ. norm   :     0.0086188 α      lambda       -0.6484686E-07
   maximum displ.:     0.0060532 α      in ANC's #2, #6, #11, ...

........................................................................
.............................. CYCLE   16 ..............................
........................................................................

 iter      E             dE          RMSdq      gap      omega  full diag
   1    -45.0196404 -0.450196E+02  0.192E-03    3.26       0.0  T
   2    -45.0196404 -0.640732E-09  0.114E-03    3.26      16.9  T
   3    -45.0196404  0.296865E-09  0.166E-04    3.26     116.1  T
   4    -45.0196404 -0.480064E-09  0.652E-05    3.26     295.3  T
     SCC iter.                  ...        0 min,  0.003 sec
     gradient                   ...        0 min,  0.009 sec
 * total energy  :   -44.5112127 Eh     change       -0.6577461E-07 Eh
   gradient norm :     0.0000663 Eh/α   predicted    -0.3630960E-07 ( -44.80%)
   displ. norm   :     0.0102580 α      lambda        0.3856434E-07
   maximum displ.:     0.0073355 α      in ANC's #2, #6, #11, ...

   *** GEOMETRY OPTIMIZATION CONVERGED AFTER 16 ITERATIONS ***

------------------------------------------------------------------------
 total energy gain   :        -0.0028828 Eh       -1.8090 kcal/mol
 total RMSD          :         0.1107822 a0        0.0586 Å
 total power (kW/mol):        -0.4730433 (step)  -26.7778 (real)
------------------------------------------------------------------------

 ANCopt (total)                0 d,  0 h,  0 min,  0.283 sec
 optimizer setup                ...        0 min,  0.000 sec (  0.104%)
 model hessian                  ...        0 min,  0.011 sec (  3.793%)
 ANC generation                 ...        0 min,  0.001 sec (  0.192%)
 coordinate transformation      ...        0 min,  0.000 sec (  0.036%)
 single point calculation       ...        0 min,  0.264 sec ( 93.338%)
 optimization log               ...        0 min,  0.006 sec (  2.088%)
 hessian update                 ...        0 min,  0.000 sec (  0.034%)
 rational function              ...        0 min,  0.001 sec (  0.218%)

================
 final structure:
================
$coord
        5.63805877225032       -3.48406653787427       -0.51467869423525      C
        3.17208811413550       -2.20346972739183       -0.16527400580188      C
        2.85054301878590        0.33823030806789       -0.10723598867185      C
        0.40154961330303        1.49996027680392        0.25531957703569      C
        0.15839201207119        3.75120483546684        0.71938224480213      O
       -1.65427513431074       -0.14656958455278        0.03190208836800      N
       -1.34344479846172       -2.69581359764446        0.50194787035030      C
       -3.01303087668135       -4.13513104981129        1.16041262275033      O
        1.06136102752569       -3.62720125576139        0.18846284173804      N
       -4.25890013359392        0.92193341581496       -0.27704537099780      C
       -4.16380645527614        3.21451539572117       -2.04735697035252      C
       -6.00977387244486       -1.00401898488476       -1.54690311842793      C
       -5.26145468502308        1.65673889367928        2.32825692832295      C
        5.38417976574555        2.39349210034065       -0.32883123137197      Cl
        6.98379695517398       -2.78306044980023        0.87118793496257      H
        6.39387201659248       -3.01972334803930       -2.36923517822795      H
        5.45088449100548       -5.51673584693965       -0.33848474070017      H
        1.22716595134942       -5.52396407569706        0.42714850969930      H
       -6.08425985010517        3.79708364170714       -2.47104808329899      H
       -3.18163606905382        4.80316688164148       -1.20342007188407      H
       -3.22194623938445        2.71726558369163       -3.80570480372227      H
       -7.76453097807770       -0.05975088702449       -2.03400894329839      H
       -6.44403257592560       -2.58317497682903       -0.31650812649571      H
       -5.15292546892447       -1.72550160437930       -3.26972416501542      H
       -7.14529651821586        2.44826126769239        2.15185355943051      H
       -5.34358882569684       -0.00172369834145        3.53990690996777      H
       -4.02768464755095        3.05890891240544        3.18677739091092      H
$end
 
 Bond Distances (Angstroems)
 ---------------------------
C1-C2=1.4820         C1-H15=1.0875        C1-H16=1.0879        C1-H17=1.0842        C2-C1=1.4820         C2-C3=1.3561         
C2-N9=1.3602         C3-C2=1.3561         C3-C4=1.4471         C3-Cl14=1.7304       C4-C3=1.4471         C4-O5=1.2231         
C4-N6=1.3988         O5-C4=1.2231         N6-C4=1.3988         N6-C7=1.3816         N6-C10=1.4987        C7-N6=1.3816         
C7-O8=1.2174         C7-N9=1.3747         O8-C7=1.2174         N9-C2=1.3602         N9-C7=1.3747         N9-H18=1.0154        
C10-N6=1.4987        C10-C11=1.5336       C10-C12=1.5325       C10-C13=1.5275       C11-C10=1.5336       C11-H19=1.0854       
C11-H20=1.0846       C11-H21=1.0879       C12-C10=1.5325       C12-H22=1.0855       C12-H23=1.0840       C12-H24=1.0874       
C13-C10=1.5275       C13-H25=1.0853       C13-H26=1.0878       C13-H27=1.0878       Cl14-C3=1.7304       H15-C1=1.0875        
H16-C1=1.0879        H17-C1=1.0842        H18-N9=1.0154        H19-C11=1.0854       H20-C11=1.0846       H21-C11=1.0879       
H22-C12=1.0855       H23-C12=1.0840       H24-C12=1.0874       H25-C13=1.0853       H26-C13=1.0878       H27-C13=1.0878       
 C  H  Rav=1.0863 sigma=0.0015  Rmin=1.0840  Rmax=1.0879    12
 C  C  Rav=1.4798 sigma=0.0637  Rmin=1.3561  Rmax=1.5336     6
 N  H  Rav=1.0154 sigma=0.0000  Rmin=1.0154  Rmax=1.0154     1
 N  C  Rav=1.4028 sigma=0.0495  Rmin=1.3602  Rmax=1.4987     5
 O  C  Rav=1.2203 sigma=0.0029  Rmin=1.2174  Rmax=1.2231     2
 Cl C  Rav=1.7304 sigma=0.0000  Rmin=1.7304  Rmax=1.7304     1
 
 selected bond angles (degree)
 --------------------
H15-C1-C2=109.66               H16-C1-C2=109.45               H16-C1-H15=106.89              H17-C1-C2=111.25               
H17-C1-H15=109.89              H17-C1-H16=109.59              C3-C2-C1=124.53                N9-C2-C1=119.14                
N9-C2-C3=116.31                C4-C3-C2=122.46                Cl14-C3-C2=121.64              Cl14-C3-C4=115.84              
O5-C4-C3=122.32                N6-C4-C3=114.88                N6-C4-O5=122.81                C7-N6-C4=120.03                
C10-N6-C4=119.31               C10-N6-C7=119.84               O8-C7-N6=125.17                N9-C7-N6=116.01                
N9-C7-O8=118.82                C7-N9-C2=125.32                H18-N9-C2=119.58               H18-N9-C7=114.79               
C11-C10-N6=109.57              C12-C10-N6=110.67              C12-C10-C11=106.14             C13-C10-N6=108.48              
C13-C10-C11=111.18             C13-C10-C12=110.80             
 
 selected dihedral angles (degree)
 ---------------------------------
C3-C2-C1-H15= 53.43           C3-C2-C1-H16=296.47           C3-C2-C1-H17=175.21           N9-C2-C1-H15=235.15           
N9-C2-C1-H16=118.19           N9-C2-C1-H17=356.93           C4-C3-C2-C1=180.40            C4-C3-C2-N9=358.72            
Cl14-C3-C2-C1=357.56          Cl14-C3-C2-N9=175.89          O5-C4-C3-C2=167.75            O5-C4-C3-Cl14=350.44          
N6-C4-C3-C2=347.70            N6-C4-C3-Cl14=170.38          C7-N6-C4-C3= 25.65            C7-N6-C4-O5=205.60            
C10-N6-C4-C3=195.19           C10-N6-C4-O5= 15.13           O8-C7-N6-C4=155.05            O8-C7-N6-C10=345.57           
N9-C7-N6-C4=335.12            N9-C7-N6-C10=165.64           C7-N9-C2-C1=180.91            C7-N9-C2-C3=  2.49            
H18-N9-C2-C1=  7.59           H18-N9-C2-C3=189.16           C2-N9-C7-N6= 10.33            C2-N9-C7-O8=190.40            
H18-N9-C7-N6=183.94           H18-N9-C7-O8=  4.00           C11-C10-N6-C4= 39.88          C11-C10-N6-C7=209.43          
C12-C10-N6-C4=156.59          C12-C10-N6-C7=326.14          C13-C10-N6-C4=278.33          C13-C10-N6-C7= 87.89          
           -------------------------------------------------
          |                Final Singlepoint                |
           -------------------------------------------------

          ...................................................
          :                      SETUP                      :
          :.................................................:
          :  # basis functions                  75          :
          :  # atomic orbitals                  74          :
          :  # shells                           42          :
          :  # electrons                        78          :
          :  max. iterations                   250          :
          :  Hamiltonian                  GFN2-xTB          :
          :  restarted?                      false          :
          :  GBSA solvation                   true          :
          :  PC potential                    false          :
          :  electronic temp.          300.0000000     K    :
          :  accuracy                    1.0000000          :
          :  -> integral cutoff          0.2500000E+02      :
          :  -> integral neglect         0.1000000E-07      :
          :  -> SCF convergence          0.1000000E-05 Eh   :
          :  -> wf. convergence          0.1000000E-03 e    :
          :  Broyden damping             0.4000000          :
          :  net charge                          0          :
          :  unpaired electrons                  0          :
          ...................................................

 iter      E             dE          RMSdq      gap      omega  full diag
   1    -45.0196404 -0.450196E+02  0.425E-05    3.26       0.0  T
   2    -45.0196404 -0.573408E-11  0.343E-05    3.26     560.8  T
   3    -45.0196404 -0.544986E-11  0.256E-05    3.26     753.2  T

   *** convergence criteria satisfied after 3 iterations ***

         #    Occupation            Energy/Eh            Energy/eV
      -------------------------------------------------------------
         1        2.0000           -1.0683605             -29.0716
       ...           ...                  ...                  ...
        33        2.0000           -0.4527983             -12.3213
        34        2.0000           -0.4482400             -12.1972
        35        2.0000           -0.4378149             -11.9136
        36        2.0000           -0.4261888             -11.5972
        37        2.0000           -0.4242830             -11.5453
        38        2.0000           -0.4111870             -11.1890
        39        2.0000           -0.3965138             -10.7897 (HOMO)
        40                         -0.2765601              -7.5256 (LUMO)
        41                         -0.2390440              -6.5047
        42                         -0.1611276              -4.3845
        43                         -0.1561690              -4.2496
        44                         -0.0511061              -1.3907
       ...                                ...                  ...
        74                          0.6608874              17.9837
      -------------------------------------------------------------
                  HL-Gap            0.1199537 Eh            3.2641 eV
             Fermi-level           -0.3365369 Eh           -9.1576 eV

 SCC (total)                   0 d,  0 h,  0 min,  0.016 sec
 SCC setup                      ...        0 min,  0.001 sec (  9.237%)
 Dispersion                     ...        0 min,  0.000 sec (  0.593%)
 classical contributions        ...        0 min,  0.000 sec (  0.167%)
 integral evaluation            ...        0 min,  0.003 sec ( 19.529%)
 iterations                     ...        0 min,  0.002 sec ( 15.999%)
 molecular gradient             ...        0 min,  0.008 sec ( 53.700%)
 printout                       ...        0 min,  0.000 sec (  0.690%)

         :::::::::::::::::::::::::::::::::::::::::::::::::::::
         ::                     SUMMARY                     ::
         :::::::::::::::::::::::::::::::::::::::::::::::::::::
         :: total energy             -44.511212660767 Eh    ::
         :: total w/o Gsasa/hb       -44.507742173170 Eh    ::
         :: gradient norm              0.000066129121 Eh/a0 ::
         :: HOMO-LUMO gap              3.264106042928 eV    ::
         ::.................................................::
         :: SCC energy               -45.019420564855 Eh    ::
         :: -> isotropic ES            0.107108100259 Eh    ::
         :: -> anisotropic ES         -0.004208175432 Eh    ::
         :: -> anisotropic XC          0.009404719567 Eh    ::
         :: -> dispersion             -0.027085462617 Eh    ::
         :: -> Gsolv                  -0.024895934083 Eh    ::
         ::    -> Gelec               -0.021425446486 Eh    ::
         ::    -> Gsasa                0.000699901381 Eh    ::
         ::    -> Ghb                 -0.005251148676 Eh    ::
         ::    -> Gshift               0.001080759698 Eh    ::
         :: repulsion energy           0.508207904088 Eh    ::
         :: add. restraining           0.000000000000 Eh    ::
         :: total charge               0.000000000000 e     ::
         :::::::::::::::::::::::::::::::::::::::::::::::::::::

           ------------------------------------------------- 
          |                Numerical Hessian                |
           ------------------------------------------------- 
step length          :   0.00500
SCC accuracy         :   0.30000
Hessian scale factor :   1.00000
frozen atoms in %    :   0.00000    0
RMS gradient         :   0.00007
estimated CPU  time      0.05 min
estimated wall time      0.05 min

writing file <hessian>.

 projected vibrational frequencies (cm⁻¹)
eigval :       -0.00    -0.00    -0.00     0.00     0.00     0.00
eigval :      -66.37    13.08    62.24    75.43   147.15   163.33
eigval :      177.98   190.42   235.23   247.61   248.33   264.80
eigval :      282.90   300.03   322.33   375.55   418.92   419.95
eigval :      431.41   463.66   512.97   523.41   593.77   615.00
eigval :      642.21   651.11   674.77   697.49   753.62   870.84
eigval :      951.28   960.86   968.59   986.94  1010.05  1032.54
eigval :     1042.18  1066.95  1071.94  1114.00  1153.48  1204.28
eigval :     1209.93  1242.65  1253.72  1292.21  1382.82  1395.35
eigval :     1399.93  1415.18  1416.58  1424.86  1452.78  1469.65
eigval :     1480.06  1481.62  1492.08  1494.23  1510.02  1589.23
eigval :     1630.76  1683.71  3029.79  3030.45  3034.97  3036.54
eigval :     3039.20  3048.95  3050.73  3056.01  3060.28  3077.28
eigval :     3077.82  3084.59  3359.46
           -------------------------------------------------
          |                Property Printout                |
           -------------------------------------------------

    * Orbital Energies and Occupations

         #    Occupation            Energy/Eh            Energy/eV
      -------------------------------------------------------------
         1        2.0000           -1.0683604             -29.0716
       ...           ...                  ...                  ...
        27        2.0000           -0.4760990             -12.9553
        28        2.0000           -0.4728320             -12.8664
        29        2.0000           -0.4655607             -12.6686
        30        2.0000           -0.4640513             -12.6275
        31        2.0000           -0.4614724             -12.5573
        32        2.0000           -0.4547577             -12.3746
        33        2.0000           -0.4527985             -12.3213
        34        2.0000           -0.4482402             -12.1972
        35        2.0000           -0.4378150             -11.9136
        36        2.0000           -0.4261890             -11.5972
        37        2.0000           -0.4242832             -11.5453
        38        2.0000           -0.4111872             -11.1890
        39        2.0000           -0.3965139             -10.7897 (HOMO)
        40                         -0.2765604              -7.5256 (LUMO)
        41                         -0.2390442              -6.5047
        42                         -0.1611278              -4.3845
        43                         -0.1561695              -4.2496
        44                         -0.0511063              -1.3907
        45                         -0.0027650              -0.0752
        46                          0.0085725               0.2333
        47                          0.0087550               0.2382
        48                          0.0196966               0.5360
        49                          0.0296688               0.8073
        50                          0.0759229               2.0660
       ...                                ...                  ...
        74                          0.6608872              17.9837
      -------------------------------------------------------------
                  HL-Gap            0.1199536 Eh            3.2641 eV
             Fermi-level           -0.3365371 Eh           -9.1576 eV

     #   Z          covCN         q      C6AA      α(0)
     1   6 C        3.759    -0.159    23.630     6.930
     2   6 C        2.923     0.097    25.841     8.336
     3   6 C        2.884     0.016    27.649     8.620
     4   6 C        2.808     0.277    22.324     7.741
     5   8 O        0.858    -0.484    23.424     6.489
     6   7 N        2.743    -0.123    23.675     7.227
     7   6 C        2.705     0.332    21.362     7.565
     8   8 O        0.860    -0.485    23.446     6.492
     9   7 N        2.715    -0.149    24.217     7.309
    10   6 C        3.836     0.097    18.962     6.195
    11   6 C        3.762    -0.124    22.922     6.825
    12   6 C        3.762    -0.130    23.036     6.842
    13   6 C        3.758    -0.121    22.863     6.817
    14  17 Cl       0.965    -0.173   104.581    15.645
    15   1 H        0.925     0.114     1.664     2.017
    16   1 H        0.925     0.118     1.626     1.994
    17   1 H        0.925     0.103     1.757     2.073
    18   1 H        0.860     0.277     0.788     1.390
    19   1 H        0.925     0.062     2.172     2.305
    20   1 H        0.925     0.063     2.161     2.299
    21   1 H        0.925     0.043     2.406     2.426
    22   1 H        0.925     0.064     2.157     2.297
    23   1 H        0.925     0.071     2.070     2.250
    24   1 H        0.925     0.047     2.359     2.402
    25   1 H        0.925     0.066     2.131     2.283
    26   1 H        0.925     0.050     2.320     2.382
    27   1 H        0.925     0.049     2.335     2.390

 Mol. C6AA /au·bohr⁶  :       8281.124473
 Mol. C8AA /au·bohr⁸  :     203145.977423
 Mol. α(0) /au        :        137.540037


Wiberg/Mayer (AO) data.
largest (>0.10) Wiberg bond orders for each atom

 ---------------------------------------------------------------------------
     #   Z sym  total        # sym  WBO       # sym  WBO       # sym  WBO
 ---------------------------------------------------------------------------
     1   6 C    3.971 --     2 C    1.043    17 H    0.974    15 H    0.948
                            16 H    0.944
     2   6 C    3.959 --     3 C    1.543     9 N    1.191     1 C    1.043
     3   6 C    3.888 --     2 C    1.543     4 C    1.112    14 Cl   0.967
     4   6 C    3.954 --     5 O    1.625     3 C    1.112     6 N    1.104
     5   8 O    1.971 --     4 C    1.625     6 N    0.137
     6   7 N    3.541 --     7 C    1.132     4 C    1.104    10 C    0.911
                             5 O    0.137     8 O    0.132
     7   6 C    3.960 --     8 O    1.605     9 N    1.138     6 N    1.132
     8   8 O    1.954 --     7 C    1.605     6 N    0.132     9 N    0.128
     9   7 N    3.533 --     2 C    1.191     7 C    1.138    18 H    0.889
                             8 O    0.128
    10   6 C    3.940 --    12 C    0.997    11 C    0.996    13 C    0.993
                             6 N    0.911
    11   6 C    3.990 --    10 C    0.996    21 H    0.985    19 H    0.980
                            20 H    0.977
    12   6 C    3.988 --    10 C    0.997    24 H    0.985    22 H    0.979
                            23 H    0.977
    13   6 C    3.992 --    10 C    0.993    26 H    0.984    27 H    0.984
                            25 H    0.981
    14  17 Cl   1.095 --     3 C    0.967
    15   1 H    0.986 --     1 C    0.948
    16   1 H    0.985 --     1 C    0.944
    17   1 H    0.989 --     1 C    0.974
    18   1 H    0.923 --     9 N    0.889
    19   1 H    0.995 --    11 C    0.980
    20   1 H    0.996 --    11 C    0.977
    21   1 H    0.998 --    11 C    0.985
    22   1 H    0.995 --    12 C    0.979
    23   1 H    0.995 --    12 C    0.977
    24   1 H    0.998 --    12 C    0.985
    25   1 H    0.995 --    13 C    0.981
    26   1 H    0.997 --    13 C    0.984
    27   1 H    0.998 --    13 C    0.984
 ---------------------------------------------------------------------------

Topologies differ in total number of bonds
Writing topology from bond orders to xtbtopo.mol

molecular dipole:
                 x           y           z       tot (Debye)
 q only:        0.745      -2.252      -0.761
   full:        0.870      -1.964      -0.730       5.766
molecular quadrupole (traceless):
                xx          xy          yy          xz          yz          zz
 q only:        8.597     -22.526      -5.955       2.067       0.986      -2.642
  q+dip:        4.993     -21.361      -4.367       2.978       0.981      -0.626
   full:        4.875     -20.687      -5.441       3.224       0.923       0.566

           -------------------------------------------------
          |                Geometry Summary                 |
           -------------------------------------------------

      molecular mass/u    :      216.6650067
   center of mass at/Å    :        0.0014035       0.0008331      -0.0074843
  moments of inertia/u·Å² :        0.5014652E+03   0.1037080E+04   0.1397385E+04
rotational constants/cm⁻¹ :        0.3361675E-01   0.1625491E-01   0.1206370E-01

 * 25 selected distances

     #   Z          #   Z                                           value/Å
     1   6 C        2   6 C                                       1.4819820
     2   6 C        3   6 C                                       1.3560779
     4   6 C        5   8 O                                       1.2231417
     4   6 C        6   7 N                                       1.3988099
     6   7 N        7   6 C                                       1.3815686
     7   6 C        8   8 O                                       1.2174215
     2   6 C        9   7 N                                       1.3602337
     7   6 C        9   7 N                                       1.3747254
    10   6 C       11   6 C                                       1.5336081
    10   6 C       12   6 C                                       1.5325498
    10   6 C       13   6 C                                       1.5275410
     3   6 C       14  17 Cl                                      1.7303789 (max)
     1   6 C       15   1 H                                       1.0874621
     1   6 C       16   1 H                                       1.0878742
     1   6 C       17   1 H                                       1.0842096
     9   7 N       18   1 H                                       1.0154374 (min)
    11   6 C       19   1 H                                       1.0853993
    11   6 C       20   1 H                                       1.0845813
    11   6 C       21   1 H                                       1.0878609
    12   6 C       22   1 H                                       1.0855342
    12   6 C       23   1 H                                       1.0839982
    12   6 C       24   1 H                                       1.0874353
    13   6 C       25   1 H                                       1.0853277
    13   6 C       26   1 H                                       1.0877573
    13   6 C       27   1 H                                       1.0877556

 * 6 distinct bonds (by element types)

   Z      Z             #   av. dist./Å        max./Å        min./Å
   1 H    6 C          12     1.0862663     1.0878742     1.0839982
   6 C    6 C           5     1.4863518     1.5336081     1.3560779
   1 H    7 N           1     1.0154374     1.0154374     1.0154374
   6 C    7 N           4     1.3788344     1.3988099     1.3602337
   6 C    8 O           2     1.2202816     1.2231417     1.2174215
   6 C   17 Cl          1     1.7303789     1.7303789     1.7303789

           -------------------------------------------------
          |               Frequency Printout                |
           -------------------------------------------------
 projected vibrational frequencies (cm⁻¹)
eigval :       -0.00    -0.00    -0.00     0.00     0.00     0.00
eigval :      -66.37    13.08    62.24    75.43   147.15   163.33
eigval :      177.98   190.42   235.23   247.61   248.33   264.80
eigval :      282.90   300.03   322.33   375.55   418.92   419.95
eigval :      431.41   463.66   512.97   523.41   593.77   615.00
eigval :      642.21   651.11   674.77   697.49   753.62   870.84
eigval :      951.28   960.86   968.59   986.94  1010.05  1032.54
eigval :     1042.18  1066.95  1071.94  1114.00  1153.48  1204.28
eigval :     1209.93  1242.65  1253.72  1292.21  1382.82  1395.35
eigval :     1399.93  1415.18  1416.58  1424.86  1452.78  1469.65
eigval :     1480.06  1481.62  1492.08  1494.23  1510.02  1589.23
eigval :     1630.76  1683.71  3029.79  3030.45  3034.97  3036.54
eigval :     3039.20  3048.95  3050.73  3056.01  3060.28  3077.28
eigval :     3077.82  3084.59  3359.46
 reduced masses (amu)
   1: 11.48   2: 14.06   3: 16.85   4: 18.31   5: 17.53   6: 19.10   7:  1.22   8: 11.15
   9: 11.57  10: 20.31  11:  7.11  12: 13.12  13: 15.12  14: 15.84  15:  4.64  16:  9.03
  17:  5.17  18: 12.84  19: 10.50  20: 10.71  21: 14.03  22: 18.38  23: 10.65  24: 11.11
  25:  9.58  26: 10.66  27: 10.26  28: 10.95  29: 12.37  30:  4.85  31: 11.29  32: 12.91
  33: 12.05  34: 12.50  35: 13.09  36:  8.91  37:  5.23  38:  5.23  39:  2.85  40:  5.61
  41:  4.61  42:  4.63  43:  4.01  44: 11.32  45: 11.41  46: 10.30  47: 12.25  48:  8.03
  49:  5.89  50:  9.29  51:  9.93  52: 12.05  53:  3.15  54:  3.13  55:  3.16  56:  2.58
  57:  6.35  58:  3.05  59:  6.27  60:  1.60  61:  1.59  62:  1.58  63:  1.66  64:  1.62
  65:  1.59  66: 11.95  67: 13.07  68: 13.20  69:  1.77  70:  1.93  71:  1.89  72:  1.77
  73:  1.56  74:  1.45  75:  1.79  76:  1.68  77:  1.73  78:  1.80  79:  1.62  80:  1.65
  81:  1.85
 IR intensities (km·mol⁻¹)
   1:  1.52   2:  0.49   3:  0.19   4:  0.60   5:  0.79   6:  0.49   7:  2.37   8:  0.48
   9:  8.66  10:  5.39  11:  0.60  12:  5.53  13:  1.54  14:  3.35  15:  1.24  16:  0.53
  17:  0.05  18:  4.20  19:  4.48  20:  7.51  21:  4.87  22:  3.73  23: 22.22  24:  2.71
  25:  4.91  26: 11.24  27:  3.18  28:  0.65  29: 18.49  30:104.21  31: 33.84  32:  6.10
  33:  8.06  34: 96.95  35: 36.68  36:  5.13  37:  0.17  38:  5.31  39:  0.13  40: 36.86
  41: 13.95  42: 12.96  43:  0.70  44: 46.87  45: 12.10  46: 26.90  47: 37.04  48:151.36
  49: 10.31  50: 41.29  51: 22.50  52:413.10  53: 67.45  54: 11.52  55: 11.18  56: 63.69
  57:246.41  58: 10.02  59:112.83  60:  0.34  61:  0.47  62:  0.39  63: 21.85  64:  3.42
  65: 40.17  66:906.02  67:******  68:775.34  69: 32.71  70:  0.15  71: 42.34  72: 60.84
  73: 21.15  74:  1.63  75:  0.06  76: 10.57  77:107.39  78:  8.23  79: 17.79  80: 16.97
  81:241.57
 Raman intensities (Ä⁴*amu⁻¹)
   1:  0.00   2:  0.00   3:  0.00   4:  0.00   5:  0.00   6:  0.00   7:  0.00   8:  0.00
   9:  0.00  10:  0.00  11:  0.00  12:  0.00  13:  0.00  14:  0.00  15:  0.00  16:  0.00
  17:  0.00  18:  0.00  19:  0.00  20:  0.00  21:  0.00  22:  0.00  23:  0.00  24:  0.00
  25:  0.00  26:  0.00  27:  0.00  28:  0.00  29:  0.00  30:  0.00  31:  0.00  32:  0.00
  33:  0.00  34:  0.00  35:  0.00  36:  0.00  37:  0.00  38:  0.00  39:  0.00  40:  0.00
  41:  0.00  42:  0.00  43:  0.00  44:  0.00  45:  0.00  46:  0.00  47:  0.00  48:  0.00
  49:  0.00  50:  0.00  51:  0.00  52:  0.00  53:  0.00  54:  0.00  55:  0.00  56:  0.00
  57:  0.00  58:  0.00  59:  0.00  60:  0.00  61:  0.00  62:  0.00  63:  0.00  64:  0.00
  65:  0.00  66:  0.00  67:  0.00  68:  0.00  69:  0.00  70:  0.00  71:  0.00  72:  0.00
  73:  0.00  74:  0.00  75:  0.00  76:  0.00  77:  0.00  78:  0.00  79:  0.00  80:  0.00
  81:  0.00
 output can be read by thermo (or use thermo option).
 writing <g98.out> molden fake output.
 recommended (thermochemical) frequency scaling factor: 1.0
           -------------------------------------------------
          |             Thermodynamic Functions             |
           -------------------------------------------------

Molecule has no symmetry elements
It seems to be the C1 point group
c1  symmetry found (for desy threshold:  0.10E+00) used in thermo
 inverting freq            1   66.3745533803354     

          ...................................................
          :                      SETUP                      :
          :.................................................:
          :  # frequencies                          75      :
          :  # imaginary freq.                       0      :
          :  linear?                             false      :
          :  only rotor calc.                    false      :
          :  symmetry                               c1      :
          :  rotational number                       1      :
          :  scaling factor                  1.0000000      :
          :  rotor cutoff                    0.0000000 cm⁻¹ :
          :  imag. cutoff                 -100.0000000 cm⁻¹ :
          :.................................................:

    mode    ω/cm⁻¹     T·S(HO)/kcal·mol⁻¹    T·S(FR)/kcal·mol⁻¹   T·S(vib)
   ------------------------------------------------------------------------
       1     66.37    -1.26955 (100.00%)    -0.97255 (  0.00%)    -1.26955
       2     13.08    -2.22937 (100.00%)    -1.45336 (  0.00%)    -2.22937
       3     62.24    -1.30732 (100.00%)    -0.99158 (  0.00%)    -1.30732
       4     75.43    -1.19452 (100.00%)    -0.93468 (  0.00%)    -1.19452
       5    147.15    -0.80760 (100.00%)    -0.73674 (  0.00%)    -0.80760
       6    163.33    -0.74861 (100.00%)    -0.70584 (  0.00%)    -0.74861
       7    177.98    -0.70050 (100.00%)    -0.68040 (  0.00%)    -0.70050
       8    190.42    -0.66301 (100.00%)    -0.66039 (  0.00%)    -0.66301
       9    235.23    -0.54820 (100.00%)    -0.59779 (  0.00%)    -0.54820
      10    247.61    -0.52102 (100.00%)    -0.58259 (  0.00%)    -0.52102
      11    248.33    -0.51949 (100.00%)    -0.58173 (  0.00%)    -0.51949
      12    264.80    -0.48596 (100.00%)    -0.56271 (  0.00%)    -0.48596
      13    282.90    -0.45202 (100.00%)    -0.54313 (  0.00%)    -0.45202
   ------------------------------------------------------------------------

   temp. (K)  partition function   enthalpy   heat capacity  entropy
                                   cal/mol     cal/K/mol   cal/K/mol   J/K/mol
 298.15  VIB  0.269E+06             7738.298     49.956     50.802
         ROT  0.206E+07              888.752      2.981     31.871
         INT  0.555E+12             8627.050     52.937     82.674
         TR   0.309E+28             1481.254      4.968     42.004
         TOT                       10108.3039    57.9049   124.6772   521.6493

       T/K    H(0)-H(T)+PV         H(T)/Eh          T*S/Eh         G(T)/Eh
   ------------------------------------------------------------------------
    298.15    0.161086E-01    0.227314E+00    0.592381E-01    0.168076E+00
   ------------------------------------------------------------------------

         :::::::::::::::::::::::::::::::::::::::::::::::::::::
         ::                  THERMODYNAMIC                  ::
         :::::::::::::::::::::::::::::::::::::::::::::::::::::
         :: total free energy         -44.343136789515 Eh   ::
         ::.................................................::
         :: total energy              -44.511212660773 Eh   ::
         :: zero point energy           0.211205413345 Eh   ::
         :: G(RRHO) w/o ZPVE           -0.043129542087 Eh   ::
         :: G(RRHO) contrib.            0.168075871258 Eh   ::
         :::::::::::::::::::::::::::::::::::::::::::::::::::::
imag cut-off (cm-1) :    5.00
 found            1  significant imaginary frequency
 writing imag mode distorted coords to xtbhess.coord
 for further optimization.

optimized geometry written to: xtbopt.coord


           -------------------------------------------------
          | TOTAL ENERGY              -44.511212660773 Eh   |
          | TOTAL ENTHALPY            -44.283898639834 Eh   |
          | TOTAL FREE ENERGY         -44.343136789515 Eh   |
          | GRADIENT NORM               0.000065932532 Eh/α |
          | HOMO-LUMO GAP               3.264102333453 eV   |
           -------------------------------------------------

------------------------------------------------------------------------
 * finished run on 2025/04/03 at 21:59:10.683     
------------------------------------------------------------------------
 total:
 * wall-time:     0 d,  0 h,  0 min,  3.190 sec
 *  cpu-time:     0 d,  0 h,  0 min,  3.110 sec
 * ratio c/w:     0.975 speedup
 SCF:
 * wall-time:     0 d,  0 h,  0 min,  0.028 sec
 *  cpu-time:     0 d,  0 h,  0 min,  0.027 sec
 * ratio c/w:     0.980 speedup
 ANC optimizer:
 * wall-time:     0 d,  0 h,  0 min,  0.309 sec
 *  cpu-time:     0 d,  0 h,  0 min,  0.294 sec
 * ratio c/w:     0.953 speedup
 analytical hessian:
 * wall-time:     0 d,  0 h,  0 min,  2.790 sec
 *  cpu-time:     0 d,  0 h,  0 min,  2.775 sec
 * ratio c/w:     0.995 speedup

