
                                 *****************
                                 * O   R   C   A *
                                 *****************

                                            #,                                       
                                            ###                                      
                                            ####                                     
                                            #####                                    
                                            ######                                   
                                           ########,                                 
                                     ,,################,,,,,                         
                               ,,#################################,,                 
                          ,,##########################################,,             
                       ,#########################################, ''#####,          
                    ,#############################################,,   '####,        
                  ,##################################################,,,,####,       
                ,###########''''           ''''###############################       
              ,#####''   ,,,,##########,,,,          '''####'''          '####       
            ,##' ,,,,###########################,,,                        '##       
           ' ,,###''''                  '''############,,,                           
         ,,##''                                '''############,,,,        ,,,,,,###''
      ,#''                                            '''#######################'''  
     '                                                          ''''####''''         
             ,#######,   #######,   ,#######,      ##                                
            ,#'     '#,  ##    ##  ,#'     '#,    #''#        ,####,   ,####,        
            ##       ##  ##   ,#'  ##            #'  '#       #'       #'  '#        
            ##       ##  #######   ##           ,######,      #####,   #    #        
            '#,     ,#'  ##    ##  '#,     ,#' ,#      #,     #,   #   #,  ,#        
             '#######'   ##     ##  '#######'  #'      '#     '####' # '####'        



                #########################################################
                #                        -***-                          #
                #          Department of theory and spectroscopy        #
                #                                                       #
                #                      Frank Neese                      #
                #                                                       #
                #     Directorship, Architecture, Infrastructure        #
                #                    SHARK, DRIVERS                     #
                #        Core code/Algorithms in most modules           #
                #                                                       #
                #        Max Planck Institute fuer Kohlenforschung      #
                #                Kaiser Wilhelm Platz 1                 #
                #                 D-45470 Muelheim/Ruhr                 #
                #                      Germany                          #
                #                                                       #
                #                  All rights reserved                  #
                #                        -***-                          #
                #########################################################


                         Program Version 6.0.0  -   RELEASE  -


 With contributions from (in alphabetic order):
   Daniel Aravena         : Magnetic Suceptibility
   Michael Atanasov       : Ab Initio Ligand Field Theory (pilot matlab implementation)
   Alexander A. Auer      : GIAO ZORA, VPT2 properties, NMR spectrum
   Ute Becker             : All parallelization in ORCA, NUMFREQ, NUMCALC
   Giovanni Bistoni       : ED, misc. LED, open-shell LED, HFLD
   Martin Brehm           : Molecular dynamics
   Dmytro Bykov           : pre 5.0 version of the SCF Hessian
   Marcos Casanova-Páez   : Triplet and SCS-CIS(D). UHF-(DLPNO)-IP/EA/STEOM-CCSD. UHF-CVS-IP/STEOM-CCSD
   Vijay G. Chilkuri      : MRCI spin determinant printing, contributions to CSF-ICE
   Pauline Colinet        : FMM embedding
   Dipayan Datta          : RHF DLPNO-CCSD density
   Achintya Kumar Dutta   : EOM-CC, STEOM-CC
   Nicolas Foglia         : Exact transition moments, OPA infrastructure, MCD improvements
   Dmitry Ganyushin       : Spin-Orbit,Spin-Spin,Magnetic field MRCI
   Miquel Garcia          : C-PCM and meta-GGA Hessian, CCSD/C-PCM, Gaussian charge scheme
   Tiago L. C. Gouveia    : GS-ROHF, GS-ROCIS
   Yang Guo               : DLPNO-NEVPT2, F12-NEVPT2, CIM, IAO-localization
   Andreas Hansen         : Spin unrestricted coupled pair/coupled cluster methods
   Ingolf Harden          : AUTO-CI MPn and infrastructure 
   Benjamin Helmich-Paris : MC-RPA, TRAH-(SCF,CASSCF), AVAS, COSX integrals, SCF dyn. polar.
   Lee Huntington         : MR-EOM, pCC
   Robert Izsak           : Overlap fitted RIJCOSX, COSX-SCS-MP3, EOM
   Riya Kayal             : Wick's Theorem for AUTO-CI, AUTO-CI UHF-CCSDT
   Emily Kempfer          : AUTO-CI, RHF CISDT and CCSDT
   Christian Kollmar      : KDIIS, OOCD, Brueckner-CCSD(T), CCSD density, CASPT2, CASPT2-K, improved NEVPT2
   Axel Koslowski         : Symmetry handling
   Simone Kossmann        : Meta GGA functionals, TD-DFT gradient, OOMP2, (MP2 Hessian; deprecated post 5.0)
   Lucas Lang             : DCDCAS
   Marvin Lechner         : AUTO-CI (C++ implementation), FIC-MRCC
   Spencer Leger          : CASSCF response
   Dagmar Lenk            : GEPOL surface, SMD, ORCA-2-JSON
   Dimitrios Liakos       : Extrapolation schemes; Compound Job, initial MDCI parallelization
   Dimitrios Manganas     : Further ROCIS development; embedding schemes. LFT, Crystal Embedding
   Dimitrios Pantazis     : SARC Basis sets
   Anastasios Papadopoulos: AUTO-CI, single reference methods and gradients
   Taras Petrenko         : pre 6.0 DFT Hessian and TD-DFT gradient, (ASA, deprecated), ECA, 1-Electron XAS/XES, NRVS
   Peter Pinski           : DLPNO-MP2, DLPNO-MP2 Gradient
   Christoph Reimann      : Effective Core Potentials
   Marius Retegan         : Local ZFS, SOC
   Christoph Riplinger    : Optimizer, TS searches, QM/MM, DLPNO-CCSD(T), (RO)-DLPNO pert. Triples
   Michael Roemelt        : Original ROCIS implementation
   Masaaki Saitow         : Open-shell DLPNO-CCSD energy and density
   Barbara Sandhoefer     : DKH picture change effects
   Kantharuban Sivalingam : CASSCF convergence/infrastructure, NEVPT2 and variants, FIC-MRCI
   Bernardo de Souza      : ESD, SOC TD-DFT
   Georgi Stoychev        : AutoAux, RI-MP2 NMR, DLPNO-MP2 response, X2C
   Van Anh Tran           : RI-MP2 g-tensors
   Willem Van den Heuvel  : Paramagnetic NMR
   Zikuan Wang            : NOTCH, Electric field optimization 
   Frank Wennmohs         : Technical directorship and infrastructure
   Hang Xu                : AUTO-CI-Response properties 


 We gratefully acknowledge several colleagues who have allowed us to
 interface, adapt or use parts of their codes:
   Stefan Grimme, W. Hujo, H. Kruse, P. Pracht,  : VdW corrections, initial TS optimization,
                  C. Bannwarth, S. Ehlert,         DFT functionals, gCP, sTDA/sTD-DF
                  L. Wittmann, M. Mueller
   Ed Valeev, F. Pavosevic, A. Kumar             : LibInt (2-el integral package), F12 methods
   Garnet Chan, S. Sharma, J. Yang, R. Olivares  : DMRG
   Ulf Ekstrom                                   : XCFun DFT Library
   Mihaly Kallay                                 : mrcc  (arbitrary order and MRCC methods)
   Frank Weinhold                                : gennbo (NPA and NBO analysis)
   Simon Mueller                                 : openCOSMO-RS
   Christopher J. Cramer and Donald G. Truhlar   : smd solvation model
   Lars Goerigk                                  : TD-DFT with DH, B97 family of functionals
   V. Asgeirsson, H. Jonsson                     : NEB implementation
   FAccTs GmbH                                   : IRC, NEB, NEB-TS, DLPNO-Multilevel, CI-OPT
                                                   MM, QMMM, 2- and 3-layer-ONIOM, Crystal-QMMM,
                                                   LR-CPCM, SF, NACMEs, symmetry and pop. for TD-DFT,
                                                   nearIR, NL-DFT gradient (VV10), updates on ESD,
                                                   ML-optimized integration grids, MBIS, APM,
                                                   GOAT, DOCKER, SOLVATOR, interface openCOSMO-RS
   S Lehtola, MJT Oliveira, MAL Marques          : LibXC Library
   Liviu Ungur et al                             : ANISO software


 Your calculation uses the libint2 library for the computation of 2-el integrals
 For citations please refer to: http://libint.valeyev.net

 Your ORCA version has been built with support for libXC version: 6.2.2
 For citations please refer to: https://libxc.gitlab.io

 This ORCA versions uses:
   CBLAS   interface :  Fast vector & matrix operations
   LAPACKE interface :  Fast linear algebra routines
   SCALAPACK package :  Parallel linear algebra routines
   Shared memory     :  Shared parallel matrices
   BLAS/LAPACK       :  OpenBLAS 0.3.27  USE64BITINT DYNAMIC_ARCH NO_AFFINITY SapphireRapids SINGLE_THREADED
        Core in use  :  SapphireRapids
   Copyright (c) 2011-2014, The OpenBLAS Project


Your calculation utilizes the geometrical counterpoise correction gCP
Please cite in your paper:
H.Kruse, S. Grimme J.Chem.Phys., 136, (2012), 154101 
   

Your calculation utilizes the atom-pairwise dispersion correction
based on EEQ partial charges (D4)


================================================================================

----- Orbital basis set information -----
Your calculation utilizes the basis: def2-SV(P)
   F. Weigend and R. Ahlrichs, Phys. Chem. Chem. Phys. 7, 3297 (2005).

----- AuxJ basis set information -----
Your calculation utilizes the auxiliary basis: def2/J
   F. Weigend, Phys. Chem. Chem. Phys. 8, 1057 (2006).

================================================================================
                                        WARNINGS
                       Please study these warnings very carefully!
================================================================================


================================================================================
                                       INPUT FILE
================================================================================
NAME = sp.inp
|  1> ! pbe def2-sv(p) def2/J RI DEFGRID1 loosescf d4 GCP(DFT/SV(P)) printgap
|  2> %output
|  3>     printlevel normal
|  4> end
|  5> * xyz 0 1
|  6> C 3.2700260556 -1.5777887483 -2.1819464912
|  7> C 1.8422957743 -1.0817042044 -2.1309227073
|  8> O 1.6820810446 0.0788169151 -1.2786764965
|  9> P 2.0381148061 0.1911981135 0.2503795037
| 10> S 1.1599271172 1.7182710694 1.1107566083
| 11> O 3.6236609483 0.2627568984 0.2413496937
| 12> C 4.3860741353 0.7641447944 1.3531417434
| 13> C 4.2977320394 -0.1387334535 2.5666937182
| 14> S 1.5770891987 -1.6946699148 1.1057061188
| 15> C -0.166603847 -1.3525911275 1.4452805371
| 16> S -1.2435962314 -1.555091932 -0.0137231323
| 17> P -1.9575650852 0.4243860213 -0.4292012819
| 18> S -1.057244421 1.5245527798 -1.7727444615
| 19> O -2.0793424808 1.1073725061 0.9848067073
| 20> C -2.982852687 0.6497966825 2.0270101601
| 21> C -4.2594246164 1.4643986065 2.0178974684
| 22> O -3.4767158576 0.1166655922 -0.8018012363
| 23> C -3.8851163114 -0.1797457625 -2.1462433285
| 24> C -3.3383548933 -1.5096937749 -2.6223996271
| 25> H 3.938900782 -0.7681894446 -2.4619280806
| 26> H 3.5700182863 -1.9638231814 -1.2097266289
| 27> H 3.3390279714 -2.3737513076 -2.9169387077
| 28> H 1.1677993954 -1.8663399593 -1.7738333806
| 29> H 1.4984240157 -0.7182282075 -3.1009090102
| 30> H 5.4035975464 0.819017834 0.9636021933
| 31> H 4.0255480544 1.7692261181 1.5940841758
| 32> H 4.9971752031 0.2086482121 3.3202448938
| 33> H 3.2912771251 -0.1090326372 2.9804708698
| 34> H 4.5379996158 -1.1635160459 2.2956577455
| 35> H -0.2520391984 -0.3305489886 1.8193076504
| 36> H -0.4866024429 -2.0843864181 2.1817564045
| 37> H -3.1923611886 -0.4124050716 1.8788923456
| 38> H -2.4254090384 0.7995305681 2.9540731453
| 39> H -4.0250155201 2.5216743519 2.1081761204
| 40> H -4.8033291402 1.3037136159 1.0910224298
| 41> H -4.8783417176 1.1602708498 2.8563145002
| 42> H -4.9746980585 -0.1846440473 -2.0953486014
| 43> H -3.5438053507 0.6320705826 -2.7965662046
| 44> H -3.6079805777 -2.3029746709 -1.9300198728
| 45> H -3.7393264808 -1.7336439473 -3.6054936124
| 46> H -2.2517308761 -1.4552620456 -2.6883912317
| 47> *
| 48> 
| 49>                          ****END OF INPUT****
================================================================================

                       ****************************
                       * Single Point Calculation *
                       ****************************

---------------------------------
CARTESIAN COORDINATES (ANGSTROEM)
---------------------------------
  C      3.270026   -1.577789   -2.181946
  C      1.842296   -1.081704   -2.130923
  O      1.682081    0.078817   -1.278676
  P      2.038115    0.191198    0.250380
  S      1.159927    1.718271    1.110757
  O      3.623661    0.262757    0.241350
  C      4.386074    0.764145    1.353142
  C      4.297732   -0.138733    2.566694
  S      1.577089   -1.694670    1.105706
  C     -0.166604   -1.352591    1.445281
  S     -1.243596   -1.555092   -0.013723
  P     -1.957565    0.424386   -0.429201
  S     -1.057244    1.524553   -1.772744
  O     -2.079342    1.107373    0.984807
  C     -2.982853    0.649797    2.027010
  C     -4.259425    1.464399    2.017897
  O     -3.476716    0.116666   -0.801801
  C     -3.885116   -0.179746   -2.146243
  C     -3.338355   -1.509694   -2.622400
  H      3.938901   -0.768189   -2.461928
  H      3.570018   -1.963823   -1.209727
  H      3.339028   -2.373751   -2.916939
  H      1.167799   -1.866340   -1.773833
  H      1.498424   -0.718228   -3.100909
  H      5.403598    0.819018    0.963602
  H      4.025548    1.769226    1.594084
  H      4.997175    0.208648    3.320245
  H      3.291277   -0.109033    2.980471
  H      4.538000   -1.163516    2.295658
  H     -0.252039   -0.330549    1.819308
  H     -0.486602   -2.084386    2.181756
  H     -3.192361   -0.412405    1.878892
  H     -2.425409    0.799531    2.954073
  H     -4.025016    2.521674    2.108176
  H     -4.803329    1.303714    1.091022
  H     -4.878342    1.160271    2.856315
  H     -4.974698   -0.184644   -2.095349
  H     -3.543805    0.632071   -2.796566
  H     -3.607981   -2.302975   -1.930020
  H     -3.739326   -1.733644   -3.605494
  H     -2.251731   -1.455262   -2.688391

----------------------------
CARTESIAN COORDINATES (A.U.)
----------------------------
  NO LB      ZA    FRAG     MASS         X           Y           Z
   0 C     6.0000    0    12.011    6.179454   -2.981589   -4.123281
   1 C     6.0000    0    12.011    3.481434   -2.044125   -4.026860
   2 O     8.0000    0    15.999    3.178673    0.148942   -2.416348
   3 P    15.0000    0    30.974    3.851479    0.361312    0.473149
   4 S    16.0000    0    32.060    2.191945    3.247062    2.099026
   5 O     8.0000    0    15.999    6.847727    0.496539    0.456085
   6 C     6.0000    0    12.011    8.288479    1.444024    2.557067
   7 C     6.0000    0    12.011    8.121537   -0.262168    4.850348
   8 S    16.0000    0    32.060    2.980267   -3.202462    2.089482
   9 C     6.0000    0    12.011   -0.314836   -2.556027    2.731184
  10 S    16.0000    0    32.060   -2.350056   -2.938698   -0.025933
  11 P    15.0000    0    30.974   -3.699262    0.801973   -0.811073
  12 S    16.0000    0    32.060   -1.997902    2.880987   -3.350002
  13 O     8.0000    0    15.999   -3.929388    2.092631    1.861015
  14 C     6.0000    0    12.011   -5.636775    1.227938    3.830494
  15 C     6.0000    0    12.011   -8.049146    2.767312    3.813274
  16 O     8.0000    0    15.999   -6.570041    0.220466   -1.515185
  17 C     6.0000    0    12.011   -7.341806   -0.339670   -4.055812
  18 C     6.0000    0    12.011   -6.308576   -2.852908   -4.955617
  19 H     1.0000    0     1.008    7.443444   -1.451668   -4.652370
  20 H     1.0000    0     1.008    6.746357   -3.711088   -2.286052
  21 H     1.0000    0     1.008    6.309848   -4.485740   -5.512215
  22 H     1.0000    0     1.008    2.206821   -3.526871   -3.352059
  23 H     1.0000    0     1.008    2.831611   -1.357255   -5.859869
  24 H     1.0000    0     1.008   10.211320    1.547719    1.820944
  25 H     1.0000    0     1.008    7.607183    3.343353    3.012383
  26 H     1.0000    0     1.008    9.443293    0.394288    6.274354
  27 H     1.0000    0     1.008    6.219612   -0.206042    5.632274
  28 H     1.0000    0     1.008    8.575576   -2.198727    4.338164
  29 H     1.0000    0     1.008   -0.476285   -0.624647    3.437993
  30 H     1.0000    0     1.008   -0.919545   -3.938919    4.122922
  31 H     1.0000    0     1.008   -6.032688   -0.779333    3.550592
  32 H     1.0000    0     1.008   -4.583359    1.510894    5.582389
  33 H     1.0000    0     1.008   -7.606177    4.765274    3.983876
  34 H     1.0000    0     1.008   -9.076977    2.463662    2.061734
  35 H     1.0000    0     1.008   -9.218730    2.192594    5.397652
  36 H     1.0000    0     1.008   -9.400817   -0.348927   -3.959635
  37 H     1.0000    0     1.008   -6.696822    1.194440   -5.284744
  38 H     1.0000    0     1.008   -6.818095   -4.351991   -3.647209
  39 H     1.0000    0     1.008   -7.066303   -3.276112   -6.813396
  40 H     1.0000    0     1.008   -4.255155   -2.750047   -5.080323

--------------------------------
INTERNAL COORDINATES (ANGSTROEM)
--------------------------------
 C      0   0   0     0.000000000000     0.00000000     0.00000000
 C      1   0   0     1.512321743995     0.00000000     0.00000000
 O      2   1   0     1.448724139456   112.76943976     0.00000000
 P      3   2   1     1.573976437190   127.13281667   302.13196954
 S      4   3   2     1.960462749377   112.37263478   197.80535404
 O      4   3   2     1.587185800784   102.92402034    74.11199515
 C      6   4   3     1.438313335731   122.74122876   160.91448033
 C      7   6   4     1.515157368718   112.36350298    67.67720798
 S      4   3   2     2.121467993947   106.20312634   323.99742427
 C      9   4   3     1.809086542957    96.72173416   273.29630977
 S     10   9   4     1.824722137533   113.44190671    81.03297779
 P     11  10   9     2.144925776010   104.41407966   246.10378145
 S     12  11  10     1.956029772356   119.92746425    96.21906274
 O     12  11  10     1.575029798455   104.59721469   326.66520630
 C     14  12  11     1.453235825349   123.73657458   296.77341467
 C     15  14  12     1.514362977184   110.51238787   262.74023619
 O     12  11  10     1.594158604966   100.62238849   220.40524910
 C     17  12  11     1.436027562806   121.98383034   270.83258160
 C     18  17  12     1.514739114404   111.89298726    67.70903197
 H      1   2   3     1.086845951628   110.20280873   306.17497769
 H      1   2   3     1.088223039027   110.27180336    66.49257279
 H      1   2   3     1.085601777130   108.86614307   186.15424250
 H      2   1   3     1.094582760809   110.95347268   238.29276401
 H      2   1   3     1.091437590748   112.12926288   115.44550373
 H      7   6   4     1.090919797100   103.64663225   188.47400162
 H      7   6   4     1.094632713740   108.39915515   305.15770138
 H      8   7   6     1.085234599103   109.13669879   172.02086920
 H      8   7   6     1.088597797257   110.00403703   291.38833347
 H      8   7   6     1.086907709262   110.43975475    51.69644300
 H     10   9   4     1.091680179558   108.46767012   319.30231658
 H     10   9   4     1.086425401022   106.48545588   198.53985384
 H     15  14  12     1.092751236846   109.15085572    25.24133404
 H     15  14  12     1.092066589723   104.37537206   143.10332650
 H     16  15  14     1.086705968165   109.93868369   304.63198347
 H     16  15  14     1.086622811464   110.33669497    64.66863614
 H     16  15  14     1.085585183100   108.98100419   184.79359212
 H     18  17  12     1.090780752514   103.96487717   188.52387279
 H     18  17  12     1.094741427573   108.32600591   305.53288121
 H     19  18  17     1.086914124396   110.54987020    54.37508507
 H     19  18  17     1.085083258388   109.42833636   175.13280627
 H     19  18  17     1.089985990638   109.57456947   294.46554048

---------------------------
INTERNAL COORDINATES (A.U.)
---------------------------
 C      0   0   0     0.000000000000     0.00000000     0.00000000
 C      1   0   0     2.857873922525     0.00000000     0.00000000
 O      2   1   0     2.737691867172   112.76943976     0.00000000
 P      3   2   1     2.974384407534   127.13281667   302.13196954
 S      4   3   2     3.704737692078   112.37263478   197.80535404
 O      4   3   2     2.999346487130   102.92402034    74.11199515
 C      6   4   3     2.718018299299   122.74122876   160.91448033
 C      7   6   4     2.863232476669   112.36350298    67.67720798
 S      4   3   2     4.008993510439   106.20312634   323.99742427
 C      9   4   3     3.418678118750    96.72173416   273.29630977
 S     10   9   4     3.448225110440   113.44190671    81.03297779
 P     11  10   9     4.053322294247   104.41407966   246.10378145
 S     12  11  10     3.696360579549   119.92746425    96.21906274
 O     12  11  10     2.976374971844   104.59721469   326.66520630
 C     14  12  11     2.746217717913   123.73657458   296.77341467
 C     15  14  12     2.861731294228   110.51238787   262.74023619
 O     12  11  10     3.012523177420   100.62238849   220.40524910
 C     17  12  11     2.713698814466   121.98383034   270.83258160
 C     18  17  12     2.862442090562   111.89298726    67.70903197
 H      1   2   3     2.053841198339   110.20280873   306.17497769
 H      1   2   3     2.056443516385   110.27180336    66.49257279
 H      1   2   3     2.051490049273   108.86614307   186.15424250
 H      2   1   3     2.068461648840   110.95347268   238.29276401
 H      2   1   3     2.062518138781   112.12926288   115.44550373
 H      7   6   4     2.061539650591   103.64663225   188.47400162
 H      7   6   4     2.068556046200   108.39915515   305.15770138
 H      8   7   6     2.050796183360   109.13669879   172.02086920
 H      8   7   6     2.057151706806   110.00403703   291.38833347
 H      8   7   6     2.053957903352   110.43975475    51.69644300
 H     10   9   4     2.062976565194   108.46767012   319.30231658
 H     10   9   4     2.053046472866   106.48545588   198.53985384
 H     15  14  12     2.065000570142   109.15085572    25.24133404
 H     15  14  12     2.063706774582   104.37537206   143.10332650
 H     16  15  14     2.053576667930   109.93868369   304.63198347
 H     16  15  14     2.053419524539   110.33669497    64.66863614
 H     16  15  14     2.051458691101   108.98100419   184.79359212
 H     18  17  12     2.061276894403   103.96487717   188.52387279
 H     18  17  12     2.068761485571   108.32600591   305.53288121
 H     19  18  17     2.053970026199   110.54987020    54.37508507
 H     19  18  17     2.050510190856   109.42833636   175.13280627
 H     19  18  17     2.059775012118   109.57456947   294.46554048

---------------------
BASIS SET INFORMATION
---------------------
There are 5 groups of distinct atoms

 Group   1 Type C   : 7s4p1d contracted to 3s2p1d pattern {511/31/1}
 Group   2 Type O   : 7s4p1d contracted to 3s2p1d pattern {511/31/1}
 Group   3 Type P   : 10s7p1d contracted to 4s3p1d pattern {5311/511/1}
 Group   4 Type S   : 10s7p1d contracted to 4s3p1d pattern {5311/511/1}
 Group   5 Type H   : 4s contracted to 2s pattern {31}

Atom   0C    basis set group =>   1
Atom   1C    basis set group =>   1
Atom   2O    basis set group =>   2
Atom   3P    basis set group =>   3
Atom   4S    basis set group =>   4
Atom   5O    basis set group =>   2
Atom   6C    basis set group =>   1
Atom   7C    basis set group =>   1
Atom   8S    basis set group =>   4
Atom   9C    basis set group =>   1
Atom  10S    basis set group =>   4
Atom  11P    basis set group =>   3
Atom  12S    basis set group =>   4
Atom  13O    basis set group =>   2
Atom  14C    basis set group =>   1
Atom  15C    basis set group =>   1
Atom  16O    basis set group =>   2
Atom  17C    basis set group =>   1
Atom  18C    basis set group =>   1
Atom  19H    basis set group =>   5
Atom  20H    basis set group =>   5
Atom  21H    basis set group =>   5
Atom  22H    basis set group =>   5
Atom  23H    basis set group =>   5
Atom  24H    basis set group =>   5
Atom  25H    basis set group =>   5
Atom  26H    basis set group =>   5
Atom  27H    basis set group =>   5
Atom  28H    basis set group =>   5
Atom  29H    basis set group =>   5
Atom  30H    basis set group =>   5
Atom  31H    basis set group =>   5
Atom  32H    basis set group =>   5
Atom  33H    basis set group =>   5
Atom  34H    basis set group =>   5
Atom  35H    basis set group =>   5
Atom  36H    basis set group =>   5
Atom  37H    basis set group =>   5
Atom  38H    basis set group =>   5
Atom  39H    basis set group =>   5
Atom  40H    basis set group =>   5
---------------------------------
AUXILIARY/J BASIS SET INFORMATION
---------------------------------
There are 5 groups of distinct atoms

 Group   1 Type C   : 12s5p4d2f1g contracted to 6s4p3d1f1g pattern {711111/2111/211/2/1}
 Group   2 Type O   : 12s5p4d2f1g contracted to 6s4p3d1f1g pattern {711111/2111/211/2/1}
 Group   3 Type P   : 14s5p5d2f1g contracted to 8s4p3d1f1g pattern {71111111/2111/311/2/1}
 Group   4 Type S   : 14s5p5d2f1g contracted to 8s4p3d1f1g pattern {71111111/2111/311/2/1}
 Group   5 Type H   : 5s2p1d contracted to 3s1p1d pattern {311/2/1}

Atom   0C    basis set group =>   1
Atom   1C    basis set group =>   1
Atom   2O    basis set group =>   2
Atom   3P    basis set group =>   3
Atom   4S    basis set group =>   4
Atom   5O    basis set group =>   2
Atom   6C    basis set group =>   1
Atom   7C    basis set group =>   1
Atom   8S    basis set group =>   4
Atom   9C    basis set group =>   1
Atom  10S    basis set group =>   4
Atom  11P    basis set group =>   3
Atom  12S    basis set group =>   4
Atom  13O    basis set group =>   2
Atom  14C    basis set group =>   1
Atom  15C    basis set group =>   1
Atom  16O    basis set group =>   2
Atom  17C    basis set group =>   1
Atom  18C    basis set group =>   1
Atom  19H    basis set group =>   5
Atom  20H    basis set group =>   5
Atom  21H    basis set group =>   5
Atom  22H    basis set group =>   5
Atom  23H    basis set group =>   5
Atom  24H    basis set group =>   5
Atom  25H    basis set group =>   5
Atom  26H    basis set group =>   5
Atom  27H    basis set group =>   5
Atom  28H    basis set group =>   5
Atom  29H    basis set group =>   5
Atom  30H    basis set group =>   5
Atom  31H    basis set group =>   5
Atom  32H    basis set group =>   5
Atom  33H    basis set group =>   5
Atom  34H    basis set group =>   5
Atom  35H    basis set group =>   5
Atom  36H    basis set group =>   5
Atom  37H    basis set group =>   5
Atom  38H    basis set group =>   5
Atom  39H    basis set group =>   5
Atom  40H    basis set group =>   5
------------------------------------------------------------------------------
                             ORCA STARTUP CALCULATIONS
                           -- RI-GTO INTEGRALS CHOSEN --
------------------------------------------------------------------------------
------------------------------------------------------------------------------
                   ___                                                        
                  /   \      - P O W E R E D   B Y -                         
                 /     \                                                     
                 |  |  |   _    _      __       _____    __    __             
                 |  |  |  | |  | |    /  \     |  _  \  |  |  /  |          
                  \  \/   | |  | |   /    \    | | | |  |  | /  /          
                 / \  \   | |__| |  /  /\  \   | |_| |  |  |/  /          
                |  |  |   |  __  | /  /__\  \  |    /   |      \           
                |  |  |   | |  | | |   __   |  |    \   |  |\   \          
                \     /   | |  | | |  |  |  |  | |\  \  |  | \   \       
                 \___/    |_|  |_| |__|  |__|  |_| \__\ |__|  \__/        
                                                                              
                      - O R C A' S   B I G   F R I E N D -                    
                                      &                                       
                       - I N T E G R A L  F E E D E R -                       
                                                                              
 v1 FN, 2020, v2 2021, v3 2022-2024                                           
------------------------------------------------------------------------------


----------------------
SHARK INTEGRAL PACKAGE
----------------------

Number of atoms                             ...     41
Number of basis functions                   ...    334
Number of shells                            ...    170
Maximum angular momentum                    ...      2
Integral batch strategy                     ... SHARK/LIBINT Hybrid
RI-J (if used) integral strategy            ... SPLIT-RIJ (Revised 2003 algorithm where possible)
Printlevel                                  ...      1
Contraction scheme used                     ... SEGMENTED contraction
Prescreening option                         ... SCHWARTZ
   Thresh                                   ... 1.000e-09
   Tcut                                     ... 1.000e-10
   Tpresel                                  ... 1.000e-10 
Coulomb Range Separation                    ... NOT USED
Exchange Range Separation                   ... NOT USED
Multipole approximations                    ... NOT USED
Finite Nucleus Model                        ... NOT USED
CABS basis                                  ... NOT available
Auxiliary Coulomb fitting basis             ... AVAILABLE
   # of basis functions in Aux-J            ...   1185
   # of shells in Aux-J                     ...    407
   Maximum angular momentum in Aux-J        ...      4
Auxiliary J/K fitting basis                 ... NOT available
Auxiliary Correlation fitting basis         ... NOT available
Auxiliary 'external' fitting basis          ... NOT available

Checking pre-screening integrals            ... done (  0.0 sec) Dimension = 170
Check shell pair data                       ... done (  0.0 sec)
Shell pair information
Shell pair cut-off parameter TPreSel        ...   1.0e-10
Total number of shell pairs                 ...     14535
Shell pairs after pre-screening             ...     10343
Total number of primitive shell pairs       ...     62501
Primitive shell pairs kept                  ...     25656
          la=0 lb=0:   3974 shell pairs
          la=1 lb=0:   3537 shell pairs
          la=1 lb=1:    820 shell pairs
          la=2 lb=0:   1302 shell pairs
          la=2 lb=1:    597 shell pairs
          la=2 lb=2:    113 shell pairs

Calculating one electron integrals          ... done (  0.1 sec)
Calculating RI/J V-Matrix + Cholesky decomp.... done (  0.1 sec)
Calculating Nuclear repulsion               ... done (  0.0 sec) ENN=   2815.533494698332 Eh

Diagonalization of the overlap matrix:
Smallest eigenvalue                        ... 3.171e-03
Time for diagonalization                   ...    0.010 sec
Threshold for overlap eigenvalues          ... 1.000e-07
Number of eigenvalues below threshold      ... 0
Time for construction of square roots      ...    0.022 sec
Total time needed                          ...    0.041 sec

-------------------
DFT GRID GENERATION
-------------------

General Integration Accuracy     IntAcc      ... 4.159
Radial Grid Type                 RadialGrid  ... OptM3 with GC (2021)
Angular Grid (max. ang.)         AngularGrid ... 3 (Lebedev-194)
Angular grid pruning method      GridPruning ... 4 (adaptive)
Weight generation scheme         WeightScheme... mBecke (2022)
Basis function cutoff            BFCut       ... 1.0000e-10
Integration weight cutoff        WCut        ... 1.0000e-14
Partially contracted basis set               ... off
Rotationally invariant grid construction     ... off
Angular grids for H and He will be reduced by one unit

Total number of grid points                  ...    97324
Total number of batches                      ...     1542
Average number of points per batch           ...       63
Average number of grid points per atom       ...     2374
Initializing property integral containers    ... done (  0.0 sec)

SHARK setup successfully completed in   1.5 seconds

Maximum memory used throughout the entire STARTUP-calculation: 51.9 MB
-------------------------------------------------------------------------------
                                 ORCA GUESS
                   Start orbitals & Density for SCF / CASSCF
-------------------------------------------------------------------------------

------------
SCF SETTINGS
------------
Hamiltonian:
 Density Functional     Method          .... DFT(GTOs)
 Exchange Functional    Exchange        .... PBE
   PBE kappa parameter   XKappa         ....  0.804000
   PBE mue parameter    XMuePBE         ....  0.219520
 Correlation Functional Correlation     .... PBE
   PBE beta parameter  CBetaPBE         ....  0.066725
 LDA part of GGA corr.  LDAOpt          .... PW91-LDA
 Gradients option       PostSCFGGA      .... off
   NL short-range parameter             ....  6.400000
 RI-approximation to the Coulomb term is turned on
   Number of AuxJ basis functions       .... 1185


General Settings:
 Integral files         IntName         .... sp
 Hartree-Fock type      HFTyp           .... RHF
 Total Charge           Charge          ....    0
 Multiplicity           Mult            ....    1
 Number of Electrons    NEL             ....  202
 Basis Dimension        Dim             ....  334
 Nuclear Repulsion      ENuc            ....   2815.5334946983 Eh

Convergence Acceleration:
 AO-DIIS                CNVDIIS         .... on
   Start iteration      DIISMaxIt       ....    12
   Startup error        DIISStart       ....  0.200000
   # of expansion vecs  DIISMaxEq       ....     5
   Bias factor          DIISBfac        ....   1.050
   Max. coefficient     DIISMaxC        ....  10.000
 MO-DIIS                CNVKDIIS        .... off
 Trust-Rad. Augm. Hess. CNVTRAH         .... auto
   Auto Start mean grad. ratio tolernc. ....  1.125000
   Auto Start start iteration           ....    50
   Auto Start num. interpolation iter.  ....    10
   Max. Number of Micro iterations      ....    24
   Max. Number of Macro iterations      .... Maxiter - #DIIS iter
   Number of Davidson start vectors     ....     2
   Converg. threshold    (grad. norm)   ....   1.000e-04
   Grad. Scal. Fac. for Micro threshold ....   0.100
   Minimum threshold for Micro iter.    ....   1.000e-02
   NR start threshold (gradient norm)   ....   1.000e-04
   Initial trust radius                 ....   0.400
   Minimum AH scaling param. (alpha)    ....   1.000
   Maximum AH scaling param. (alpha)    .... 1000.000
   Quad. conv. algorithm                .... NR
   White noise on init. David. guess    .... on
   Maximum white noise                  ....   0.010
   Pseudo random numbers                .... off
   Inactive MOs                         .... canonical
   Orbital update algorithm             .... Taylor
   Preconditioner                       .... Diag
   Full preconditioner red. dimension   ....   250
 SOSCF                  CNVSOSCF        .... on
   Start iteration      SOSCFMaxIt      ....   150
   Startup grad/error   SOSCFStart      ....  0.003300
   Hessian update       SOSCFHessUp     .... L-BFGS
 Level Shifting         CNVShift        .... on
   Level shift para.    LevelShift      ....    0.2500
   Turn off err/grad.   ShiftErr        ....    0.0010
 Zerner damping         CNVZerner       .... off
 Static damping         CNVDamp         .... on
   Fraction old density DampFac         ....    0.7000
   Max. Damping (<1)    DampMax         ....    0.9800
   Min. Damping (>=0)   DampMin         ....    0.0000
   Turn off err/grad.   DampErr         ....    0.1000

SCF Procedure:
 Maximum # iterations   MaxIter         ....   125
 SCF integral mode      SCFMode         .... Direct
   Integral package                     .... SHARK and LIBINT hybrid scheme
 Reset frequency        DirectResetFreq ....    20
 Integral Threshold     Thresh          ....  1.000e-09 Eh
 Primitive CutOff       TCut            ....  1.000e-10 Eh

Convergence Tolerance:
 Convergence Check Mode ConvCheckMode   .... Total+1el-Energy
 Convergence forced     ConvForced      .... 0
 Energy Change          TolE            ....  1.000e-05 Eh
 1-El. energy change                    ....  1.000e-02 Eh
 Orbital Gradient       TolG            ....  1.000e-04
 Orbital Rotation angle TolX            ....  1.000e-04
 DIIS Error             TolErr          ....  5.000e-04

------------------------------
INITIAL GUESS: MODEL POTENTIAL
------------------------------
Loading Hartree-Fock densities                     ... done
Calculating cut-offs                               ... done
Initializing the effective Hamiltonian             ... done
Setting up the integral package (SHARK)            ... done
Starting the Coulomb interaction                   ... done (   0.7 sec)
Making the grid                                    ... done (   0.6 sec)
Mapping shells                                     ... done
Starting the XC term evaluation                    ... done (   0.4 sec)
  promolecular density results
     # of electrons  =    201.996369805
     EX              =   -229.997413173
     EC              =     -7.289885761
     EX+EC           =   -237.287298934
Transforming the Hamiltonian                       ... done (   0.0 sec)
Diagonalizing the Hamiltonian                      ... done (   0.0 sec)
Back transforming the eigenvectors                 ... done (   0.0 sec)
Now organizing SCF variables                       ... done
                      ------------------
                      INITIAL GUESS DONE (   1.7 sec)
                      ------------------
             **** ENERGY FILE WAS UPDATED (sp.en.tmp) ****
Finished Guess after   2.0 sec
Maximum memory used throughout the entire GUESS-calculation: 39.4 MB

-------------------------------------------------------------------------------------------
                                      ORCA LEAN-SCF
                              memory conserving SCF solver
-------------------------------------------------------------------------------------------

----------------------------------------D-I-I-S--------------------------------------------
Iteration    Energy (Eh)           Delta-E    RMSDP     MaxDP     DIISErr   Damp  Time(sec)
-------------------------------------------------------------------------------------------
               ***  Starting incremental Fock matrix formation  ***
    1    -2929.1708864886363699     0.00e+00  2.76e-03  1.39e-01  1.80e-01  0.700   2.3
    2    -2929.4005424036245131    -2.30e-01  1.80e-03  7.13e-02  7.56e-02  0.700   2.1
                               ***Turning on AO-DIIS***
    3    -2929.4722938768013591    -7.18e-02  7.01e-04  1.95e-02  2.24e-02  0.700   2.0
    4    -2929.5178394794916130    -4.55e-02  1.07e-03  3.78e-02  1.02e-02  0.000   2.0
    5    -2929.6245863759027088    -1.07e-01  3.26e-04  1.33e-02  7.79e-03  0.000   2.0
                              *** Initializing SOSCF ***
---------------------------------------S-O-S-C-F--------------------------------------
Iteration    Energy (Eh)           Delta-E    RMSDP     MaxDP     MaxGrad    Time(sec)
--------------------------------------------------------------------------------------
    6    -2929.6257376061744253    -1.15e-03  1.15e-04  3.18e-03  2.13e-03     1.9
               *** Restarting incremental Fock matrix formation ***
    7    -2929.6258760020659793    -1.38e-04  8.05e-05  2.30e-03  2.23e-04     2.1
    8    -2929.6258778407004684    -1.84e-06  3.75e-05  8.49e-04  2.61e-04     1.7
                 **** Energy Check signals convergence ****

               *****************************************************
               *                     SUCCESS                       *
               *           SCF CONVERGED AFTER   8 CYCLES          *
               *****************************************************

             **** ENERGY FILE WAS UPDATED (sp.en.tmp) ****

----------------
TOTAL SCF ENERGY
----------------

Total Energy       :      -2929.62587784070047 Eh          -79719.17298 eV

Components:
Nuclear Repulsion  :       2815.53349469833165 Eh           76614.56140 eV
Electronic Energy  :      -5745.15937253903212 Eh         -156333.73438 eV
One Electron Energy:      -9650.48330810197331 Eh         -262603.00129 eV
Two Electron Energy:       3905.32393556294119 Eh          106269.26691 eV

Virial components:
Potential Energy   :      -5848.92483877248833 Eh         -159157.33627 eV
Kinetic Energy     :       2919.29896093178786 Eh           79438.16329 eV
Virial Ratio       :          2.00353746466090

DFT components:
N(Alpha)           :      100.999127164158 electrons
N(Beta)            :      100.999127164158 electrons
N(Total)           :      201.998254328315 electrons
E(X)               :     -231.802521793822 Eh       
E(C)               :       -7.297299618883 Eh       
E(XC)              :     -239.099821412706 Eh       

---------------
SCF CONVERGENCE
---------------

  Last Energy change         ...    1.8386e-06  Tolerance :   1.0000e-05
  Last MAX-Density change    ...    8.4905e-04  Tolerance :   1.0000e-03
  Last RMS-Density change    ...    3.7542e-05  Tolerance :   1.0000e-04
  Last DIIS Error            ...    2.1279e-03  Tolerance :   5.0000e-04
  Last Orbital Gradient      ...    2.6078e-04  Tolerance :   1.0000e-04
  Last Orbital Rotation      ...    4.5935e-04  Tolerance :   1.0000e-04


----------------
ORBITAL ENERGIES
----------------

  NO   OCC          E(Eh)            E(eV) 
   0   2.0000     -88.043742     -2395.7920 
   1   2.0000     -88.038695     -2395.6547 
   2   2.0000     -87.978191     -2394.0083 
   3   2.0000     -87.972656     -2393.8577 
   4   2.0000     -76.421159     -2079.5254 
   5   2.0000     -76.419317     -2079.4753 
   6   2.0000     -18.790096      -511.3045 
   7   2.0000     -18.788909      -511.2722 
   8   2.0000     -18.786036      -511.1940 
   9   2.0000     -18.781767      -511.0779 
  10   2.0000      -9.958204      -270.9765 
  11   2.0000      -9.956326      -270.9254 
  12   2.0000      -9.950585      -270.7692 
  13   2.0000      -9.949184      -270.7311 
  14   2.0000      -9.946571      -270.6600 
  15   2.0000      -9.884886      -268.9814 
  16   2.0000      -9.884805      -268.9792 
  17   2.0000      -9.883338      -268.9393 
  18   2.0000      -9.882364      -268.9128 
  19   2.0000      -7.688757      -209.2217 
  20   2.0000      -7.683340      -209.0743 
  21   2.0000      -7.623178      -207.4372 
  22   2.0000      -7.617794      -207.2907 
  23   2.0000      -6.418597      -174.6589 
  24   2.0000      -6.416720      -174.6078 
  25   2.0000      -5.716456      -155.5527 
  26   2.0000      -5.713187      -155.4637 
  27   2.0000      -5.711346      -155.4136 
  28   2.0000      -5.707605      -155.3118 
  29   2.0000      -5.705976      -155.2675 
  30   2.0000      -5.700502      -155.1185 
  31   2.0000      -5.652185      -153.8038 
  32   2.0000      -5.646948      -153.6613 
  33   2.0000      -5.643832      -153.5765 
  34   2.0000      -5.643194      -153.5591 
  35   2.0000      -5.638492      -153.4312 
  36   2.0000      -5.637642      -153.4080 
  37   2.0000      -4.641296      -126.2961 
  38   2.0000      -4.640477      -126.2738 
  39   2.0000      -4.639909      -126.2583 
  40   2.0000      -4.638831      -126.2290 
  41   2.0000      -4.638540      -126.2211 
  42   2.0000      -4.636555      -126.1671 
  43   2.0000      -0.984262       -26.7831 
  44   2.0000      -0.981899       -26.7188 
  45   2.0000      -0.941461       -25.6185 
  46   2.0000      -0.939704       -25.5707 
  47   2.0000      -0.760305       -20.6890 
  48   2.0000      -0.716061       -19.4850 
  49   2.0000      -0.708162       -19.2701 
  50   2.0000      -0.688949       -18.7472 
  51   2.0000      -0.686755       -18.6876 
  52   2.0000      -0.675017       -18.3682 
  53   2.0000      -0.646946       -17.6043 
  54   2.0000      -0.630088       -17.1456 
  55   2.0000      -0.596363       -16.2279 
  56   2.0000      -0.586635       -15.9631 
  57   2.0000      -0.574623       -15.6363 
  58   2.0000      -0.571179       -15.5426 
  59   2.0000      -0.560544       -15.2532 
  60   2.0000      -0.500267       -13.6130 
  61   2.0000      -0.488582       -13.2950 
  62   2.0000      -0.472191       -12.8490 
  63   2.0000      -0.466832       -12.7031 
  64   2.0000      -0.454439       -12.3659 
  65   2.0000      -0.445808       -12.1310 
  66   2.0000      -0.440151       -11.9771 
  67   2.0000      -0.436129       -11.8677 
  68   2.0000      -0.426171       -11.5967 
  69   2.0000      -0.423815       -11.5326 
  70   2.0000      -0.413095       -11.2409 
  71   2.0000      -0.393259       -10.7011 
  72   2.0000      -0.390889       -10.6366 
  73   2.0000      -0.384728       -10.4690 
  74   2.0000      -0.379591       -10.3292 
  75   2.0000      -0.365387        -9.9427 
  76   2.0000      -0.361037        -9.8243 
  77   2.0000      -0.356646        -9.7048 
  78   2.0000      -0.356369        -9.6973 
  79   2.0000      -0.352445        -9.5905 
  80   2.0000      -0.347686        -9.4610 
  81   2.0000      -0.344624        -9.3777 
  82   2.0000      -0.342571        -9.3218 
  83   2.0000      -0.334298        -9.0967 
  84   2.0000      -0.329081        -8.9547 
  85   2.0000      -0.314742        -8.5646 
  86   2.0000      -0.310095        -8.4381 
  87   2.0000      -0.295969        -8.0537 
  88   2.0000      -0.289766        -7.8849 
  89   2.0000      -0.289329        -7.8730 
  90   2.0000      -0.285699        -7.7743 
  91   2.0000      -0.267258        -7.2725 
  92   2.0000      -0.265734        -7.2310 
  93   2.0000      -0.258877        -7.0444 
  94   2.0000      -0.254647        -6.9293 
  95   2.0000      -0.238766        -6.4972 
  96   2.0000      -0.217588        -5.9209 
  97   2.0000      -0.206891        -5.6298 
  98   2.0000      -0.197752        -5.3811 
  99   2.0000      -0.185220        -5.0401 
 100   2.0000      -0.176319        -4.7979 
 101   0.0000      -0.040460        -1.1010 
 102   0.0000      -0.029246        -0.7958 
 103   0.0000      -0.018591        -0.5059 
 104   0.0000       0.005496         0.1496 
 105   0.0000       0.024413         0.6643 
 106   0.0000       0.029595         0.8053 
 107   0.0000       0.036290         0.9875 
 108   0.0000       0.039368         1.0713 
 109   0.0000       0.044011         1.1976 
 110   0.0000       0.050506         1.3743 
 111   0.0000       0.052694         1.4339 
*Only the first 10 virtual orbitals were printed.

                    ********************************
                    * MULLIKEN POPULATION ANALYSIS *
                    ********************************

-----------------------
MULLIKEN ATOMIC CHARGES
-----------------------
   0 C :   -0.304428
   1 C :   -0.006408
   2 O :   -0.337724
   3 P :    0.595977
   4 S :   -0.294415
   5 O :   -0.372496
   6 C :   -0.001328
   7 C :   -0.315929
   8 S :   -0.106934
   9 C :   -0.363250
  10 S :   -0.121138
  11 P :    0.595205
  12 S :   -0.277365
  13 O :   -0.351972
  14 C :   -0.024309
  15 C :   -0.280414
  16 O :   -0.385022
  17 C :    0.001506
  18 C :   -0.327251
  19 H :    0.121602
  20 H :    0.113336
  21 H :    0.110889
  22 H :    0.114997
  23 H :    0.111140
  24 H :    0.104474
  25 H :    0.114135
  26 H :    0.113102
  27 H :    0.124905
  28 H :    0.114706
  29 H :    0.212731
  30 H :    0.180480
  31 H :    0.101280
  32 H :    0.110763
  33 H :    0.123930
  34 H :    0.122936
  35 H :    0.107043
  36 H :    0.101615
  37 H :    0.110727
  38 H :    0.120058
  39 H :    0.115513
  40 H :    0.127332
Sum of atomic charges:   -0.0000000

--------------------------------
MULLIKEN REDUCED ORBITAL CHARGES
--------------------------------
  0 C s       :     3.096599  s :     3.096599
      pz      :     1.076781  p :     3.179647
      px      :     1.030671
      py      :     1.072195
      dz2     :     0.005166  d :     0.028182
      dxz     :     0.004108
      dyz     :     0.007244
      dx2y2   :     0.004614
      dxy     :     0.007050

  1 C s       :     3.084455  s :     3.084455
      pz      :     0.952703  p :     2.862298
      px      :     1.056333
      py      :     0.853263
      dz2     :     0.010656  d :     0.059655
      dxz     :     0.008611
      dyz     :     0.015393
      dx2y2   :     0.010754
      dxy     :     0.014241

  2 O s       :     3.750935  s :     3.750935
      pz      :     1.303827  p :     4.573570
      px      :     1.744798
      py      :     1.524945
      dz2     :     0.004092  d :     0.013218
      dxz     :     0.002398
      dyz     :     0.002928
      dx2y2   :     0.002081
      dxy     :     0.001718

  3 P s       :     5.209599  s :     5.209599
      pz      :     2.848153  p :     8.599206
      px      :     2.819013
      py      :     2.932040
      dz2     :     0.148840  d :     0.595218
      dxz     :     0.109627
      dyz     :     0.104184
      dx2y2   :     0.135264
      dxy     :     0.097303

  4 S s       :     5.920409  s :     5.920409
      pz      :     3.563254  p :    10.330265
      px      :     3.551361
      py      :     3.215651
      dz2     :     0.004831  d :     0.043741
      dxz     :     0.005516
      dyz     :     0.011666
      dx2y2   :     0.009612
      dxy     :     0.012117

  5 O s       :     3.756233  s :     3.756233
      pz      :     1.555886  p :     4.603260
      px      :     1.324329
      py      :     1.723046
      dz2     :     0.003217  d :     0.013002
      dxz     :     0.002658
      dyz     :     0.001898
      dx2y2   :     0.003127
      dxy     :     0.002102

  6 C s       :     3.075367  s :     3.075367
      pz      :     0.848157  p :     2.865554
      px      :     0.971656
      py      :     1.045740
      dz2     :     0.014335  d :     0.060407
      dxz     :     0.015479
      dyz     :     0.012116
      dx2y2   :     0.012149
      dxy     :     0.006329

  7 C s       :     3.105671  s :     3.105671
      pz      :     1.036953  p :     3.182190
      px      :     1.093089
      py      :     1.052148
      dz2     :     0.004116  d :     0.028068
      dxz     :     0.007698
      dyz     :     0.005422
      dx2y2   :     0.008227
      dxy     :     0.002604

  8 S s       :     5.881504  s :     5.881504
      pz      :     3.699379  p :    10.150431
      px      :     3.091390
      py      :     3.359662
      dz2     :     0.008983  d :     0.074999
      dxz     :     0.009861
      dyz     :     0.012227
      dx2y2   :     0.027643
      dxy     :     0.016285

  9 C s       :     3.219777  s :     3.219777
      pz      :     1.025219  p :     3.103586
      px      :     0.908259
      py      :     1.170107
      dz2     :     0.006731  d :     0.039888
      dxz     :     0.009876
      dyz     :     0.007631
      dx2y2   :     0.010987
      dxy     :     0.004662

 10 S s       :     5.875535  s :     5.875535
      pz      :     3.356454  p :    10.174691
      px      :     3.496934
      py      :     3.321303
      dz2     :     0.015012  d :     0.070913
      dxz     :     0.016594
      dyz     :     0.012485
      dx2y2   :     0.015763
      dxy     :     0.011059

 11 P s       :     5.218950  s :     5.218950
      pz      :     2.861795  p :     8.600450
      px      :     2.839846
      py      :     2.898809
      dz2     :     0.141519  d :     0.585395
      dxz     :     0.107472
      dyz     :     0.110455
      dx2y2   :     0.116858
      dxy     :     0.109092

 12 S s       :     5.915413  s :     5.915413
      pz      :     3.326261  p :    10.318555
      px      :     3.577898
      py      :     3.414396
      dz2     :     0.007671  d :     0.043398
      dxz     :     0.010058
      dyz     :     0.012155
      dx2y2   :     0.005978
      dxy     :     0.007537

 13 O s       :     3.762166  s :     3.762166
      pz      :     1.296982  p :     4.576491
      px      :     1.624164
      py      :     1.655344
      dz2     :     0.003010  d :     0.013315
      dxz     :     0.002530
      dyz     :     0.003680
      dx2y2   :     0.001800
      dxy     :     0.002294

 14 C s       :     3.085652  s :     3.085652
      pz      :     0.889739  p :     2.879225
      px      :     0.939167
      py      :     1.050318
      dz2     :     0.012575  d :     0.059432
      dxz     :     0.018590
      dyz     :     0.006328
      dx2y2   :     0.013412
      dxy     :     0.008528

 15 C s       :     3.086561  s :     3.086561
      pz      :     1.076079  p :     3.166042
      px      :     1.023171
      py      :     1.066791
      dz2     :     0.005550  d :     0.027812
      dxz     :     0.008478
      dyz     :     0.001842
      dx2y2   :     0.007214
      dxy     :     0.004729

 16 O s       :     3.759124  s :     3.759124
      pz      :     1.428600  p :     4.613030
      px      :     1.421088
      py      :     1.763342
      dz2     :     0.003981  d :     0.012868
      dxz     :     0.002345
      dyz     :     0.001774
      dx2y2   :     0.002842
      dxy     :     0.001926

 17 C s       :     3.071529  s :     3.071529
      pz      :     0.767191  p :     2.866189
      px      :     1.048356
      py      :     1.050642
      dz2     :     0.017765  d :     0.060776
      dxz     :     0.009326
      dyz     :     0.016982
      dx2y2   :     0.011683
      dxy     :     0.005020

 18 C s       :     3.110939  s :     3.110939
      pz      :     1.066423  p :     3.188222
      px      :     1.087891
      py      :     1.033908
      dz2     :     0.005820  d :     0.028090
      dxz     :     0.003095
      dyz     :     0.006558
      dx2y2   :     0.009118
      dxy     :     0.003499

 19 H s       :     0.878398  s :     0.878398

 20 H s       :     0.886664  s :     0.886664

 21 H s       :     0.889111  s :     0.889111

 22 H s       :     0.885003  s :     0.885003

 23 H s       :     0.888860  s :     0.888860

 24 H s       :     0.895526  s :     0.895526

 25 H s       :     0.885865  s :     0.885865

 26 H s       :     0.886898  s :     0.886898

 27 H s       :     0.875095  s :     0.875095

 28 H s       :     0.885294  s :     0.885294

 29 H s       :     0.787269  s :     0.787269

 30 H s       :     0.819520  s :     0.819520

 31 H s       :     0.898720  s :     0.898720

 32 H s       :     0.889237  s :     0.889237

 33 H s       :     0.876070  s :     0.876070

 34 H s       :     0.877064  s :     0.877064

 35 H s       :     0.892957  s :     0.892957

 36 H s       :     0.898385  s :     0.898385

 37 H s       :     0.889273  s :     0.889273

 38 H s       :     0.879942  s :     0.879942

 39 H s       :     0.884487  s :     0.884487

 40 H s       :     0.872668  s :     0.872668


------------------------
MULLIKEN OVERLAP CHARGES
------------------------
B(  0-C ,  1-C ) :   0.9017 B(  0-C ,  2-O ) :  -0.0961 B(  0-C , 19-H ) :   0.7341 
B(  0-C , 20-H ) :   0.7337 B(  0-C , 21-H ) :   0.6921 B(  0-C , 22-H ) :  -0.0721 
B(  1-C ,  2-O ) :   0.5595 B(  1-C ,  3-P ) :  -0.0798 B(  1-C , 22-H ) :   0.7082 
B(  1-C , 23-H ) :   0.7288 B(  2-O ,  3-P ) :   0.6606 B(  2-O ,  4-S ) :  -0.0648 
B(  2-O ,  5-O ) :  -0.0592 B(  2-O ,  8-S ) :  -0.0755 B(  2-O , 22-H ) :  -0.0627 
B(  2-O , 23-H ) :  -0.0606 B(  3-P ,  4-S ) :   0.9263 B(  3-P ,  5-O ) :   0.6232 
B(  3-P ,  6-C ) :  -0.0807 B(  3-P ,  8-S ) :   0.4973 B(  3-P ,  9-C ) :  -0.0770 
B(  4-S ,  5-O ) :  -0.0702 B(  4-S ,  8-S ) :  -0.0943 B(  4-S , 25-H ) :   0.0624 
B(  4-S , 29-H ) :   0.1091 B(  5-O ,  6-C ) :   0.5570 B(  5-O ,  7-C ) :  -0.0883 
B(  5-O ,  8-S ) :  -0.0667 B(  5-O , 24-H ) :  -0.0593 B(  5-O , 25-H ) :  -0.0670 
B(  6-C ,  7-C ) :   0.9291 B(  6-C , 24-H ) :   0.7265 B(  6-C , 25-H ) :   0.7205 
B(  7-C , 24-H ) :  -0.0518 B(  7-C , 25-H ) :  -0.0663 B(  7-C , 26-H ) :   0.6893 
B(  7-C , 27-H ) :   0.7133 B(  7-C , 28-H ) :   0.7299 B(  8-S ,  9-C ) :   0.5000 
B(  8-S , 10-S ) :  -0.1618 B(  8-S , 29-H ) :  -0.0647 B(  8-S , 30-H ) :  -0.0668 
B(  9-C , 10-S ) :   0.4421 B(  9-C , 29-H ) :   0.6160 B(  9-C , 30-H ) :   0.7215 
B( 10-S , 11-P ) :   0.5315 B( 10-S , 12-S ) :  -0.0748 B( 10-S , 13-O ) :  -0.0779 
B( 10-S , 16-O ) :  -0.0846 B( 10-S , 29-H ) :  -0.0505 B( 10-S , 30-H ) :  -0.0660 
B( 11-P , 12-S ) :   0.9576 B( 11-P , 13-O ) :   0.6216 B( 11-P , 14-C ) :  -0.0650 
B( 11-P , 16-O ) :   0.5597 B( 11-P , 17-C ) :  -0.0736 B( 12-S , 13-O ) :  -0.0580 
B( 12-S , 16-O ) :  -0.0816 B( 12-S , 37-H ) :   0.0746 B( 13-O , 14-C ) :   0.5185 
B( 13-O , 15-C ) :  -0.1000 B( 13-O , 16-O ) :  -0.0532 B( 13-O , 31-H ) :  -0.0617 
B( 13-O , 32-H ) :  -0.0616 B( 14-C , 15-C ) :   0.9089 B( 14-C , 31-H ) :   0.6926 
B( 14-C , 32-H ) :   0.7268 B( 15-C , 31-H ) :  -0.0549 B( 15-C , 32-H ) :  -0.0555 
B( 15-C , 33-H ) :   0.7435 B( 15-C , 34-H ) :   0.7399 B( 15-C , 35-H ) :   0.6953 
B( 16-O , 17-C ) :   0.5704 B( 16-O , 18-C ) :  -0.0930 B( 16-O , 36-H ) :  -0.0610 
B( 16-O , 37-H ) :  -0.0714 B( 17-C , 18-C ) :   0.9270 B( 17-C , 36-H ) :   0.7160 
B( 17-C , 37-H ) :   0.7130 B( 18-C , 36-H ) :  -0.0510 B( 18-C , 37-H ) :  -0.0694 
B( 18-C , 38-H ) :   0.7230 B( 18-C , 39-H ) :   0.6881 B( 18-C , 40-H ) :   0.7113 
B( 19-H , 20-H ) :  -0.0582 B( 22-H , 23-H ) :  -0.0672 B( 24-H , 25-H ) :  -0.0638 
B( 27-H , 28-H ) :  -0.0543 B( 31-H , 32-H ) :  -0.0723 B( 36-H , 37-H ) :  -0.0637 
B( 38-H , 40-H ) :  -0.0586 


                     *******************************
                     * LOEWDIN POPULATION ANALYSIS *
                     *******************************

----------------------
LOEWDIN ATOMIC CHARGES
----------------------
   0 C :   -0.365921
   1 C :   -0.116229
   2 O :   -0.221635
   3 P :    0.570505
   4 S :   -0.294640
   5 O :   -0.241204
   6 C :   -0.117946
   7 C :   -0.371240
   8 S :    0.072284
   9 C :   -0.483686
  10 S :    0.056743
  11 P :    0.563593
  12 S :   -0.285996
  13 O :   -0.229996
  14 C :   -0.115729
  15 C :   -0.356749
  16 O :   -0.251464
  17 C :   -0.121590
  18 C :   -0.373017
  19 H :    0.128518
  20 H :    0.116129
  21 H :    0.130070
  22 H :    0.103177
  23 H :    0.122779
  24 H :    0.118486
  25 H :    0.113017
  26 H :    0.131109
  27 H :    0.120342
  28 H :    0.122348
  29 H :    0.127343
  30 H :    0.135878
  31 H :    0.105887
  32 H :    0.119315
  33 H :    0.130869
  34 H :    0.127494
  35 H :    0.128802
  36 H :    0.116916
  37 H :    0.110095
  38 H :    0.123849
  39 H :    0.132390
  40 H :    0.119102

-------------------------------
LOEWDIN REDUCED ORBITAL CHARGES
-------------------------------
  0 C s       :     2.952037  s :     2.952037
      pz      :     1.132292  p :     3.344144
      px      :     1.087290
      py      :     1.124562
      dz2     :     0.013456  d :     0.069741
      dxz     :     0.009004
      dyz     :     0.017586
      dx2y2   :     0.012194
      dxy     :     0.017501

  1 C s       :     2.929231  s :     2.929231
      pz      :     1.012941  p :     3.054337
      px      :     1.107677
      py      :     0.933719
      dz2     :     0.024540  d :     0.132660
      dxz     :     0.017207
      dyz     :     0.033274
      dx2y2   :     0.024942
      dxy     :     0.032696

  2 O s       :     3.494457  s :     3.494457
      pz      :     1.402158  p :     4.703216
      px      :     1.741092
      py      :     1.559967
      dz2     :     0.008870  d :     0.023962
      dxz     :     0.003950
      dyz     :     0.005507
      dx2y2   :     0.003257
      dxy     :     0.002377

  3 P s       :     5.050974  s :     5.050974
      pz      :     2.823845  p :     8.552194
      px      :     2.796952
      py      :     2.931397
      dz2     :     0.218648  d :     0.826326
      dxz     :     0.140041
      dyz     :     0.140091
      dx2y2   :     0.199208
      dxy     :     0.128339

  4 S s       :     5.766967  s :     5.766967
      pz      :     3.588708  p :    10.468898
      px      :     3.569401
      py      :     3.310788
      dz2     :     0.005946  d :     0.058775
      dxz     :     0.007186
      dyz     :     0.016115
      dx2y2   :     0.012094
      dxy     :     0.017434

  5 O s       :     3.498030  s :     3.498030
      pz      :     1.576195  p :     4.719285
      px      :     1.412580
      py      :     1.730510
      dz2     :     0.005873  d :     0.023889
      dxz     :     0.004911
      dyz     :     0.002952
      dx2y2   :     0.006727
      dxy     :     0.003426

  6 C s       :     2.927126  s :     2.927126
      pz      :     0.934092  p :     3.055748
      px      :     1.029846
      py      :     1.091810
      dz2     :     0.031139  d :     0.135072
      dxz     :     0.032735
      dyz     :     0.030554
      dx2y2   :     0.027819
      dxy     :     0.012825

  7 C s       :     2.954397  s :     2.954397
      pz      :     1.093786  p :     3.347557
      px      :     1.142227
      py      :     1.111545
      dz2     :     0.010282  d :     0.069286
      dxz     :     0.018003
      dyz     :     0.015240
      dx2y2   :     0.020146
      dxy     :     0.005616

  8 S s       :     5.642125  s :     5.642125
      pz      :     3.671854  p :    10.190455
      px      :     3.135332
      py      :     3.383268
      dz2     :     0.011676  d :     0.095137
      dxz     :     0.011642
      dyz     :     0.015169
      dx2y2   :     0.037008
      dxy     :     0.019643

  9 C s       :     3.061348  s :     3.061348
      pz      :     1.097123  p :     3.334364
      px      :     1.034244
      py      :     1.202997
      dz2     :     0.014308  d :     0.087974
      dxz     :     0.022121
      dyz     :     0.017166
      dx2y2   :     0.025032
      dxy     :     0.009347

 10 S s       :     5.648158  s :     5.648158
      pz      :     3.363170  p :    10.205735
      px      :     3.504656
      py      :     3.337909
      dz2     :     0.018320  d :     0.089364
      dxz     :     0.023106
      dyz     :     0.014951
      dx2y2   :     0.019345
      dxy     :     0.013642

 11 P s       :     5.062728  s :     5.062728
      pz      :     2.831331  p :     8.558546
      px      :     2.832003
      py      :     2.895212
      dz2     :     0.199057  d :     0.815134
      dxz     :     0.139357
      dyz     :     0.157969
      dx2y2   :     0.169503
      dxy     :     0.149247

 12 S s       :     5.768347  s :     5.768347
      pz      :     3.392328  p :    10.458976
      px      :     3.591002
      py      :     3.475645
      dz2     :     0.008696  d :     0.058673
      dxz     :     0.014097
      dyz     :     0.018776
      dx2y2   :     0.006687
      dxy     :     0.010417

 13 O s       :     3.502521  s :     3.502521
      pz      :     1.382907  p :     4.703582
      px      :     1.632529
      py      :     1.688146
      dz2     :     0.006122  d :     0.023894
      dxz     :     0.004959
      dyz     :     0.007309
      dx2y2   :     0.002511
      dxy     :     0.002994

 14 C s       :     2.931039  s :     2.931039
      pz      :     0.952158  p :     3.053259
      px      :     1.000848
      py      :     1.100254
      dz2     :     0.028933  d :     0.131430
      dxz     :     0.039653
      dyz     :     0.012363
      dx2y2   :     0.029362
      dxy     :     0.021120

 15 C s       :     2.951043  s :     2.951043
      pz      :     1.133175  p :     3.336652
      px      :     1.084711
      py      :     1.118766
      dz2     :     0.014389  d :     0.069053
      dxz     :     0.020212
      dyz     :     0.004049
      dx2y2   :     0.017009
      dxy     :     0.013394

 16 O s       :     3.500197  s :     3.500197
      pz      :     1.471729  p :     4.727509
      px      :     1.500167
      py      :     1.755613
      dz2     :     0.007994  d :     0.023758
      dxz     :     0.004308
      dyz     :     0.003017
      dx2y2   :     0.005538
      dxy     :     0.002901

 17 C s       :     2.926879  s :     2.926879
      pz      :     0.856559  p :     3.058496
      px      :     1.096821
      py      :     1.105116
      dz2     :     0.039686  d :     0.136214
      dxz     :     0.019204
      dyz     :     0.038726
      dx2y2   :     0.027802
      dxy     :     0.010797

 18 C s       :     2.955185  s :     2.955185
      pz      :     1.124853  p :     3.348533
      px      :     1.133444
      py      :     1.090236
      dz2     :     0.014224  d :     0.069298
      dxz     :     0.007197
      dyz     :     0.016791
      dx2y2   :     0.022385
      dxy     :     0.008701

 19 H s       :     0.871482  s :     0.871482

 20 H s       :     0.883871  s :     0.883871

 21 H s       :     0.869930  s :     0.869930

 22 H s       :     0.896823  s :     0.896823

 23 H s       :     0.877221  s :     0.877221

 24 H s       :     0.881514  s :     0.881514

 25 H s       :     0.886983  s :     0.886983

 26 H s       :     0.868891  s :     0.868891

 27 H s       :     0.879658  s :     0.879658

 28 H s       :     0.877652  s :     0.877652

 29 H s       :     0.872657  s :     0.872657

 30 H s       :     0.864122  s :     0.864122

 31 H s       :     0.894113  s :     0.894113

 32 H s       :     0.880685  s :     0.880685

 33 H s       :     0.869131  s :     0.869131

 34 H s       :     0.872506  s :     0.872506

 35 H s       :     0.871198  s :     0.871198

 36 H s       :     0.883084  s :     0.883084

 37 H s       :     0.889905  s :     0.889905

 38 H s       :     0.876151  s :     0.876151

 39 H s       :     0.867610  s :     0.867610

 40 H s       :     0.880898  s :     0.880898


---------------------------------
LOEWDIN BOND ORDERS (THRESH 0.050000)
---------------------------------
B(  0-C ,  1-C ) :   1.1603 B(  0-C ,  2-O ) :   0.0571 B(  0-C , 19-H ) :   0.9347 
B(  0-C , 20-H ) :   0.9308 B(  0-C , 21-H ) :   0.9245 B(  1-C ,  2-O ) :   1.0723 
B(  1-C ,  3-P ) :   0.0617 B(  1-C , 22-H ) :   0.9067 B(  1-C , 23-H ) :   0.9145 
B(  2-O ,  3-P ) :   1.3284 B(  2-O ,  4-S ) :   0.0735 B(  2-O ,  5-O ) :   0.0514 
B(  2-O ,  8-S ) :   0.0738 B(  3-P ,  4-S ) :   1.7324 B(  3-P ,  5-O ) :   1.2726 
B(  3-P ,  6-C ) :   0.0644 B(  3-P ,  8-S ) :   1.0227 B(  4-S ,  5-O ) :   0.0907 
B(  4-S ,  8-S ) :   0.1284 B(  4-S , 29-H ) :   0.0615 B(  5-O ,  6-C ) :   1.0902 
B(  5-O ,  7-C ) :   0.0588 B(  5-O ,  8-S ) :   0.0562 B(  6-C ,  7-C ) :   1.1573 
B(  6-C , 24-H ) :   0.9170 B(  6-C , 25-H ) :   0.9068 B(  7-C , 26-H ) :   0.9250 
B(  7-C , 27-H ) :   0.9278 B(  7-C , 28-H ) :   0.9358 B(  8-S ,  9-C ) :   1.1774 
B(  8-S , 10-S ) :   0.0959 B(  9-C , 10-S ) :   1.1614 B(  9-C , 29-H ) :   0.8963 
B(  9-C , 30-H ) :   0.9247 B( 10-S , 11-P ) :   1.0097 B( 10-S , 12-S ) :   0.1218 
B( 10-S , 13-O ) :   0.0725 B( 10-S , 16-O ) :   0.0611 B( 11-P , 12-S ) :   1.8021 
B( 11-P , 13-O ) :   1.3024 B( 11-P , 14-C ) :   0.0637 B( 11-P , 16-O ) :   1.2358 
B( 11-P , 17-C ) :   0.0656 B( 12-S , 13-O ) :   0.0722 B( 12-S , 16-O ) :   0.0970 
B( 13-O , 14-C ) :   1.0675 B( 13-O , 15-C ) :   0.0587 B( 14-C , 15-C ) :   1.1583 
B( 14-C , 31-H ) :   0.9106 B( 14-C , 32-H ) :   0.9178 B( 15-C , 33-H ) :   0.9352 
B( 15-C , 34-H ) :   0.9326 B( 15-C , 35-H ) :   0.9266 B( 16-O , 17-C ) :   1.0960 
B( 16-O , 18-C ) :   0.0604 B( 17-C , 18-C ) :   1.1561 B( 17-C , 36-H ) :   0.9166 
B( 17-C , 37-H ) :   0.9044 B( 18-C , 38-H ) :   0.9352 B( 18-C , 39-H ) :   0.9250 
B( 18-C , 40-H ) :   0.9247 

------------------------------------------
LOEWDIN REDUCED ORBITAL POPULATIONS PER MO
-------------------------------------------
THRESHOLD FOR PRINTING IS 0.1%%
                      0         1         2         3         4         5   
                 -88.04374 -88.03869 -87.97819 -87.97266 -76.42116 -76.41932
                   2.00000   2.00000   2.00000   2.00000   2.00000   2.00000
                  --------  --------  --------  --------  --------  --------
 3 P  s               0.0       0.0       0.0       0.0     100.0       0.0
 4 S  s               0.0       0.0     100.0       0.0       0.0       0.0
 8 S  s             100.0       0.0       0.0       0.0       0.0       0.0
10 S  s               0.0     100.0       0.0       0.0       0.0       0.0
11 P  s               0.0       0.0       0.0       0.0       0.0     100.0
12 S  s               0.0       0.0       0.0     100.0       0.0       0.0

                      6         7         8         9        10        11   
                 -18.79010 -18.78891 -18.78604 -18.78177  -9.95820  -9.95633
                   2.00000   2.00000   2.00000   2.00000   2.00000   2.00000
                  --------  --------  --------  --------  --------  --------
 2 O  s               0.0       0.0       0.0      99.9       0.0       0.0
 5 O  s              99.9       0.0       0.0       0.0       0.0       0.0
 9 C  s               0.0       0.0       0.0       0.0      99.8       0.0
13 O  s               0.0      99.9       0.0       0.0       0.0       0.0
14 C  s               0.0       0.0       0.0       0.0       0.0      99.7
16 O  s               0.0       0.0      99.9       0.0       0.0       0.0

                     12        13        14        15        16        17   
                  -9.95059  -9.94918  -9.94657  -9.88489  -9.88480  -9.88334
                   2.00000   2.00000   2.00000   2.00000   2.00000   2.00000
                  --------  --------  --------  --------  --------  --------
 1 C  s               0.0       0.0      99.7       0.0       0.0       0.0
 6 C  s              99.7       0.0       0.0       0.0       0.0       0.0
 7 C  s               0.0       0.0       0.0       0.0       0.0      99.7
15 C  s               0.0       0.0       0.0      99.7       0.0       0.0
17 C  s               0.0      99.7       0.0       0.0       0.0       0.0
18 C  s               0.0       0.0       0.0       0.0      99.7       0.0

                     18        19        20        21        22        23   
                  -9.88236  -7.68876  -7.68334  -7.62318  -7.61779  -6.41860
                   2.00000   2.00000   2.00000   2.00000   2.00000   2.00000
                  --------  --------  --------  --------  --------  --------
 0 C  s              99.7       0.0       0.0       0.0       0.0       0.0
 1 C  px              0.1       0.0       0.0       0.0       0.0       0.0
 2 O  pz              0.0       0.0       0.0       0.0       0.0       0.2
 3 P  s               0.0       0.0       0.0       0.0       0.0      99.3
 4 S  s               0.0       0.0       0.0      99.9       0.0       0.0
 5 O  px              0.0       0.0       0.0       0.0       0.0       0.2
 8 S  s               0.0      99.7       0.0       0.0       0.0       0.0
 9 C  px              0.0       0.2       0.1       0.0       0.0       0.0
10 S  s               0.0       0.0      99.8       0.0       0.0       0.0
12 S  s               0.0       0.0       0.0       0.0      99.9       0.0

                     24        25        26        27        28        29   
                  -6.41672  -5.71646  -5.71319  -5.71135  -5.70760  -5.70598
                   2.00000   2.00000   2.00000   2.00000   2.00000   2.00000
                  --------  --------  --------  --------  --------  --------
 8 S  pz              0.0      15.2       3.7       0.0       0.0      81.2
 8 S  px              0.0      66.4      27.8       0.0       0.0       5.8
 8 S  py              0.0      18.4      68.5       0.0       0.0      13.1
10 S  pz              0.0       0.0       0.0      44.1      19.5       0.0
10 S  px              0.0       0.0       0.0      34.0       4.0       0.0
10 S  py              0.0       0.0       0.0      21.9      76.5       0.0
11 P  s              99.3       0.0       0.0       0.0       0.0       0.0
13 O  pz              0.2       0.0       0.0       0.0       0.0       0.0
16 O  px              0.2       0.0       0.0       0.0       0.0       0.0

                     30        31        32        33        34        35   
                  -5.70050  -5.65219  -5.64695  -5.64383  -5.64319  -5.63849
                   2.00000   2.00000   2.00000   2.00000   2.00000   2.00000
                  --------  --------  --------  --------  --------  --------
 4 S  pz              0.0      16.3       0.0      28.8      54.9       0.0
 4 S  px              0.0      15.8       0.0      39.2      45.0       0.0
 4 S  py              0.0      67.9       0.0      31.9       0.2       0.0
10 S  pz             36.4       0.0       0.0       0.0       0.0       0.0
10 S  px             62.0       0.0       0.0       0.0       0.0       0.0
10 S  py              1.6       0.0       0.0       0.0       0.0       0.0
12 S  pz              0.0       0.0      47.9       0.0       0.0      50.5
12 S  px              0.0       0.0      14.7       0.0       0.0       4.6
12 S  py              0.0       0.0      37.3       0.0       0.0      44.9

                     36        37        38        39        40        41   
                  -5.63764  -4.64130  -4.64048  -4.63991  -4.63883  -4.63854
                   2.00000   2.00000   2.00000   2.00000   2.00000   2.00000
                  --------  --------  --------  --------  --------  --------
 3 P  pz              0.0      47.8      32.7       0.0      19.4       0.0
 3 P  px              0.0      47.9      48.9       0.0       3.2       0.0
 3 P  py              0.0       4.3      18.3       0.0      77.4       0.0
11 P  pz              0.0       0.0       0.0      45.3       0.0       2.5
11 P  px              0.0       0.0       0.0      18.7       0.0      76.6
11 P  py              0.0       0.0       0.0      35.9       0.0      20.8
12 S  pz              1.6       0.0       0.0       0.0       0.0       0.0
12 S  px             80.6       0.0       0.0       0.0       0.0       0.0
12 S  py             17.8       0.0       0.0       0.0       0.0       0.0

                     42        43        44        45        46        47   
                  -4.63656  -0.98426  -0.98190  -0.94146  -0.93970  -0.76031
                   2.00000   2.00000   2.00000   2.00000   2.00000   2.00000
                  --------  --------  --------  --------  --------  --------
 0 C  s               0.0       0.0       0.2       0.0       0.3       0.1
 0 C  px              0.0       0.0       0.2       0.0       0.5       0.0
 0 C  py              0.0       0.0       0.1       0.0       0.1       0.0
 1 C  s               0.0       0.0       2.5       0.0       5.1       0.4
 1 C  pz              0.0       0.0       1.3       0.0       1.8       0.0
 1 C  py              0.0       0.0       1.7       0.0       2.7       0.1
 1 C  dyz             0.0       0.0       0.2       0.0       0.3       0.0
 1 C  dx2y2           0.0       0.0       0.1       0.0       0.1       0.0
 2 O  s               0.0       0.1      22.4       0.0      36.3       0.4
 2 O  pz              0.0       0.0       0.9       0.0       0.1       0.5
 2 O  px              0.0       0.0       0.3       0.0       0.1       0.0
 2 O  py              0.0       0.0       0.3       0.0       0.9       0.1
 3 P  s               0.0       0.1      14.1       0.0       0.2       2.9
 3 P  pz              0.0       0.0       2.1       0.0       5.2       1.0
 3 P  px              0.0       0.0       2.7       0.0       5.7       0.6
 3 P  py              0.0       0.0       0.0       0.0       0.1       1.1
 3 P  dz2             0.0       0.0       0.1       0.0       2.5       0.1
 3 P  dxz             0.0       0.0       0.1       0.0       0.1       0.0
 3 P  dx2y2           0.0       0.0       0.9       0.0       0.7       0.1
 4 S  s               0.0       0.0       0.3       0.0       0.0       0.6
 4 S  py              0.0       0.0       0.2       0.0       0.0       0.2
 5 O  s               0.0       0.1      34.4       0.0      24.5       0.2
 5 O  pz              0.0       0.0       0.5       0.0       1.0       0.0
 5 O  px              0.0       0.0       1.1       0.0       0.1       0.4
 5 O  py              0.0       0.0       0.1       0.0       0.1       0.0
 6 C  s               0.0       0.0       4.0       0.0       4.0       0.3
 6 C  pz              0.0       0.0       2.3       0.0       1.8       0.0
 6 C  px              0.0       0.0       1.6       0.0       1.1       0.0
 6 C  py              0.0       0.0       0.6       0.0       0.5       0.0
 6 C  dxz             0.0       0.0       0.2       0.0       0.2       0.0
 7 C  s               0.0       0.0       0.3       0.0       0.3       0.0
 7 C  pz              0.0       0.0       0.4       0.0       0.4       0.0
 8 S  s               0.0       0.0       0.3       0.0       0.0      21.9
 8 S  px              0.0       0.0       0.0       0.0       0.0       2.5
 8 S  py              0.0       0.0       0.3       0.0       0.0       0.8
 8 S  dz2             0.0       0.0       0.0       0.0       0.0       0.1
 9 C  s               0.0       0.0       0.0       0.0       0.0      28.2
 9 C  pz              0.0       0.0       0.0       0.0       0.0       1.7
 9 C  px              0.0       0.0       0.0       0.0       0.0       0.6
10 S  s               0.0       0.3       0.0       0.0       0.0      15.7
10 S  pz              0.0       0.0       0.0       0.0       0.0       1.5
10 S  px              0.0       0.1       0.0       0.0       0.0       0.9
10 S  py              0.0       0.3       0.0       0.0       0.0       0.3
10 S  dxz             0.0       0.0       0.0       0.0       0.0       0.2
11 P  s               0.0      13.9       0.1       0.0       0.0       1.3
11 P  pz             52.1       1.6       0.0       6.1       0.0       0.0
11 P  px              4.5       3.2       0.0       3.1       0.0       0.4
11 P  py             43.3       0.1       0.0       1.6       0.0       0.9
11 P  dz2             0.0       0.1       0.0       1.5       0.0       0.0
11 P  dxz             0.0       0.0       0.0       0.4       0.0       0.0
11 P  dyz             0.0       0.5       0.0       0.3       0.0       0.0
11 P  dx2y2           0.0       0.3       0.0       0.9       0.0       0.1
11 P  dxy             0.0       0.1       0.0       0.2       0.0       0.0
12 S  s               0.0       0.3       0.0       0.0       0.0       0.1
12 S  pz              0.0       0.2       0.0       0.0       0.0       0.0
12 S  py              0.0       0.1       0.0       0.0       0.0       0.0
[...]
 1 C  dyz             0.1       7.8       0.2       0.0
 1 C  dx2y2           0.0       4.4       0.0       0.0
 1 C  dxy             0.0       0.2       0.1       0.0
 2 O  s               0.0       4.4       0.9       0.3
 2 O  pz              0.0       1.3       1.1       0.4
 2 O  py              0.0       1.7       0.1       0.0
 2 O  dz2             0.0       0.5       9.9       3.4
 2 O  dxz             0.0       1.1       3.3       0.9
 2 O  dyz             0.3      43.4       0.0       0.0
 2 O  dx2y2           0.1      20.3       0.5       0.1
 2 O  dxy             0.0       1.6       0.1       0.0
 3 P  s               0.0       0.3       0.0       0.0
 3 P  pz              0.0       0.1       1.1       0.3
 3 P  px              0.0       0.4       1.4       0.5
 3 P  dz2             0.0       0.0       1.1       0.4
 3 P  dxz             0.0       0.2       0.0       0.0
 3 P  dyz             0.0       0.3       0.0       0.0
 3 P  dx2y2           0.0       0.1       0.3       0.1
 5 O  s               0.0       0.5       0.2       0.0
 5 O  pz              0.0       0.0       1.1       0.3
 5 O  px              0.0       0.2       3.2       0.9
 5 O  py              0.0       0.0       0.3       0.1
 5 O  dz2             0.0       0.9      15.7       4.4
 5 O  dxz             0.0       0.4      16.3       3.4
 5 O  dyz             0.0       0.1       6.1       1.3
 5 O  dx2y2           0.0       2.9       4.3       1.9
 5 O  dxy             0.0       0.0       1.7       0.3
 6 C  s               0.0       0.0       1.1       0.3
 6 C  pz              0.0       0.0       1.1       0.2
 6 C  px              0.0       0.0       0.6       0.2
 6 C  py              0.0       0.0       0.2       0.0
 6 C  dz2             0.0       0.1       0.4       0.1
 6 C  dxz             0.0       0.0       3.4       0.8
 6 C  dyz             0.0       0.0       1.1       0.2
 6 C  dx2y2           0.0       0.0       0.2       0.0
 6 C  dxy             0.0       0.0       0.7       0.2
11 P  s               0.7       0.0       0.0       0.0
11 P  pz              0.1       0.0       0.3       1.5
11 P  px              0.4       0.0       0.1       0.5
11 P  py              0.0       0.0       0.1       0.4
11 P  dz2             0.1       0.0       0.1       0.6
11 P  dxz             0.0       0.0       0.2       0.7
11 P  dx2y2           0.2       0.0       0.0       0.2
11 P  dxy             0.0       0.0       0.0       0.1
13 O  s               2.5       0.0       0.0       0.3
13 O  pz              2.4       0.0       0.4       2.1
13 O  px              1.2       0.0       0.0       0.3
13 O  dz2             2.4       0.0       0.6       3.7
13 O  dxz            31.4       0.1       1.2       3.0
13 O  dyz            11.3       0.1       2.4      11.1
13 O  dx2y2           4.1       0.0       0.3       1.5
13 O  dxy             7.7       0.0       0.1       0.6
14 C  s               1.4       0.0       0.1       0.3
14 C  pz              1.4       0.0       0.1       0.3
14 C  px              1.4       0.0       0.0       0.2
14 C  py              0.2       0.0       0.0       0.0
14 C  dz2             1.1       0.0       0.1       0.3
14 C  dxz             6.4       0.0       0.2       0.7
14 C  dyz             1.3       0.0       0.1       0.2
14 C  dx2y2           0.5       0.0       0.0       0.1
14 C  dxy             1.7       0.0       0.0       0.0
15 C  px              0.1       0.0       0.0       0.0
15 C  dx2y2           0.1       0.0       0.0       0.0
16 O  s               0.1       0.0       0.2       0.2
16 O  pz              0.9       0.0       0.6       2.0
16 O  px              0.6       0.0       0.4       1.6
16 O  py              0.1       0.0       0.1       0.2
16 O  dz2            11.5       0.2       8.5      28.5
16 O  dxz             0.2       0.0       0.8       1.4
16 O  dyz             0.8       0.0       0.9       2.7
16 O  dx2y2           1.0       0.0       1.0       5.2
16 O  dxy             0.2       0.0       0.0       0.1
17 C  s               0.4       0.0       0.3       1.0
17 C  pz              0.5       0.0       0.4       1.4
17 C  px              0.1       0.0       0.1       0.2
17 C  py              0.0       0.0       0.0       0.1
17 C  dz2             1.1       0.0       1.0       2.7
17 C  dxz             0.7       0.0       0.5       1.7
17 C  dyz             0.2       0.0       0.1       0.4
17 C  dxy             0.1       0.0       0.0       0.1
23 H  s               0.0       0.1       0.0       0.0


                      *****************************
                      * MAYER POPULATION ANALYSIS *
                      *****************************

  NA   - Mulliken gross atomic population
  ZA   - Total nuclear charge
  QA   - Mulliken gross atomic charge
  VA   - Mayer's total valence
  BVA  - Mayer's bonded valence
  FA   - Mayer's free valence

  ATOM       NA         ZA         QA         VA         BVA        FA
  0 C      6.3044     6.0000    -0.3044     4.0046     4.0046    -0.0000
  1 C      6.0064     6.0000    -0.0064     3.9957     3.9957    -0.0000
  2 O      8.3377     8.0000    -0.3377     2.2103     2.2103     0.0000
  3 P     14.4040    15.0000     0.5960     4.9712     4.9712     0.0000
  4 S     16.2944    16.0000    -0.2944     2.0836     2.0836    -0.0000
  5 O      8.3725     8.0000    -0.3725     2.1786     2.1786     0.0000
  6 C      6.0013     6.0000    -0.0013     4.0034     4.0034     0.0000
  7 C      6.3159     6.0000    -0.3159     3.9869     3.9869     0.0000
  8 S     16.1069    16.0000    -0.1069     2.2640     2.2640    -0.0000
  9 C      6.3633     6.0000    -0.3633     3.8265     3.8265    -0.0000
 10 S     16.1211    16.0000    -0.1211     2.2555     2.2555     0.0000
 11 P     14.4048    15.0000     0.5952     4.9681     4.9681    -0.0000
 12 S     16.2774    16.0000    -0.2774     2.0665     2.0665     0.0000
 13 O      8.3520     8.0000    -0.3520     2.1790     2.1790    -0.0000
 14 C      6.0243     6.0000    -0.0243     4.0103     4.0103    -0.0000
 15 C      6.2804     6.0000    -0.2804     4.0009     4.0009    -0.0000
 16 O      8.3850     8.0000    -0.3850     2.1540     2.1540    -0.0000
 17 C      5.9985     6.0000     0.0015     4.0066     4.0066    -0.0000
 18 C      6.3273     6.0000    -0.3273     3.9844     3.9844    -0.0000
 19 H      0.8784     1.0000     0.1216     0.9612     0.9612    -0.0000
 20 H      0.8867     1.0000     0.1133     0.9736     0.9736    -0.0000
 21 H      0.8891     1.0000     0.1109     0.9535     0.9535    -0.0000
 22 H      0.8850     1.0000     0.1150     0.9784     0.9784     0.0000
 23 H      0.8889     1.0000     0.1111     0.9568     0.9568    -0.0000
 24 H      0.8955     1.0000     0.1045     0.9494     0.9494    -0.0000
 25 H      0.8859     1.0000     0.1141     0.9830     0.9830     0.0000
 26 H      0.8869     1.0000     0.1131     0.9549     0.9549     0.0000
 27 H      0.8751     1.0000     0.1249     0.9857     0.9857     0.0000
 28 H      0.8853     1.0000     0.1147     0.9619     0.9619     0.0000
 29 H      0.7873     1.0000     0.2127     0.9854     0.9854    -0.0000
 30 H      0.8195     1.0000     0.1805     0.9313     0.9313    -0.0000
 31 H      0.8987     1.0000     0.1013     0.9763     0.9763    -0.0000
 32 H      0.8892     1.0000     0.1108     0.9458     0.9458    -0.0000
 33 H      0.8761     1.0000     0.1239     0.9579     0.9579    -0.0000
 34 H      0.8771     1.0000     0.1229     0.9798     0.9798    -0.0000
 35 H      0.8930     1.0000     0.1070     0.9552     0.9552    -0.0000
 36 H      0.8984     1.0000     0.1016     0.9485     0.9485     0.0000
 37 H      0.8893     1.0000     0.1107     0.9910     0.9910    -0.0000
 38 H      0.8799     1.0000     0.1201     0.9606     0.9606    -0.0000
 39 H      0.8845     1.0000     0.1155     0.9554     0.9554    -0.0000
 40 H      0.8727     1.0000     0.1273     0.9804     0.9804    -0.0000

  Mayer bond orders larger than 0.100000
B(  0-C ,  1-C ) :   1.1667 B(  0-C , 19-H ) :   0.9439 B(  0-C , 20-H ) :   0.9387 
B(  0-C , 21-H ) :   0.9372 B(  1-C ,  2-O ) :   0.8983 B(  1-C , 22-H ) :   0.9097 
B(  1-C , 23-H ) :   0.9319 B(  2-O ,  3-P ) :   1.1658 B(  3-P ,  4-S ) :   1.6261 
B(  3-P ,  5-O ) :   1.0947 B(  3-P ,  8-S ) :   0.9276 B(  4-S ,  8-S ) :   0.1064 
B(  5-O ,  6-C ) :   0.9061 B(  6-C ,  7-C ) :   1.1652 B(  6-C , 24-H ) :   0.9340 
B(  6-C , 25-H ) :   0.9151 B(  7-C , 26-H ) :   0.9378 B(  7-C , 27-H ) :   0.9343 
B(  7-C , 28-H ) :   0.9452 B(  8-S ,  9-C ) :   1.0120 B(  9-C , 10-S ) :   0.9923 
B(  9-C , 29-H ) :   0.8474 B(  9-C , 30-H ) :   0.9112 B( 10-S , 11-P ) :   0.9300 
B( 10-S , 12-S ) :   0.1055 B( 11-P , 12-S ) :   1.6900 B( 11-P , 13-O ) :   1.1254 
B( 11-P , 16-O ) :   1.0464 B( 13-O , 14-C ) :   0.8905 B( 14-C , 15-C ) :   1.1726 
B( 14-C , 31-H ) :   0.9119 B( 14-C , 32-H ) :   0.9303 B( 15-C , 33-H ) :   0.9472 
B( 15-C , 34-H ) :   0.9425 B( 15-C , 35-H ) :   0.9392 B( 16-O , 17-C ) :   0.9152 
B( 17-C , 18-C ) :   1.1653 B( 17-C , 36-H ) :   0.9319 B( 17-C , 37-H ) :   0.9112 
B( 18-C , 38-H ) :   0.9420 B( 18-C , 39-H ) :   0.9380 B( 18-C , 40-H ) :   0.9303 


-------
TIMINGS
-------

Total SCF time: 0 days 0 hours 0 min 16 sec 

Total time                  ....      16.748 sec
Sum of individual times     ....      16.253 sec  ( 97.0%)

SCF preparation             ....       0.216 sec  (  1.3%)
Fock matrix formation       ....      14.903 sec  ( 89.0%)
  Startup                   ....       0.062 sec  (  0.4% of F)
  Split-RI-J                ....       8.905 sec  ( 59.8% of F)
  XC integration            ....       5.462 sec  ( 36.7% of F)
    Basis function eval.    ....       2.055 sec  ( 37.6% of XC)
    Density eval.           ....       1.057 sec  ( 19.3% of XC)
    XC-Functional eval.     ....       0.398 sec  (  7.3% of XC)
    XC-Potential eval.      ....       1.208 sec  ( 22.1% of XC)
Diagonalization             ....       0.000 sec  (  0.0%)
Density matrix formation    ....       0.229 sec  (  1.4%)
Total Energy calculation    ....       0.032 sec  (  0.2%)
Population analysis         ....       0.203 sec  (  1.2%)
Orbital Transformation      ....       0.078 sec  (  0.5%)
Orbital Orthonormalization  ....       0.000 sec  (  0.0%)
DIIS solution               ....       0.459 sec  (  2.7%)
  MO trafo                  ....       0.000 sec  (  0.0 % of DIIS)
  Orb grad                  ....       0.000 sec  (  0.0 % of DIIS)
  Energy W gradient         ....       0.000 sec  (  0.0 % of DIIS)
  DIIS error                ....       0.024 sec  (  5.3 % of DIIS)
  DIIS work                 ....       0.379 sec  ( 82.5 % of DIIS)
  Form Q                    ....       0.000 sec  (  0.0 % of DIIS)
  Form QpQm                 ....       0.000 sec  (  0.0 % of DIIS)
  Exp/Cayley                ....       0.000 sec  (  0.0 % of DIIS)
  Orb update                ....       0.000 sec  (  0.0 % of DIIS)
  Wake-sleep                ....       0.014 sec  (  3.1 % of DIIS)
SOSCF solution              ....       0.133 sec  (  0.8%)
  MO trafo                  ....       0.068 sec  ( 51.1 % of SOSCF)
  Orb grad                  ....       0.001 sec  (  1.1 % of SOSCF)
  Rot update                ....       0.027 sec  ( 20.1 % of SOSCF)
  Step                      ....       0.037 sec  ( 27.6 % of SOSCF)
Finished LeanSCF after  16.8 sec

Maximum memory used throughout the entire LEANSCF-calculation: 34.8 MB


-------------------------------------------------------------------------------
                          DFT DISPERSION CORRECTION                            
                                                                               
                                DFTD4 V3.4.0                                   
-------------------------------------------------------------------------------
The PBE functional is recognized
Active option DFTDOPT                   ...         5   

-------------------------   ----------------
Dispersion correction           -0.068220731
-------------------------   ----------------

------------------   -----------------
gCP correction             0.186516750
------------------   -----------------

-------------------------   --------------------
FINAL SINGLE POINT ENERGY     -2929.507581822267
-------------------------   --------------------


------------------------------------------------------------------------------
                              ORCA PROPERTY CALCULATIONS
------------------------------------------------------------------------------

GBWName                                 ... sp.gbw
Number of atoms                         ...     41
Number of basis functions               ...    334
Max core memory                         ...   1024 MB

Electric properties:
Dipole moment                           ... YES
Quadrupole moment                       ...  NO
Static polarizability (Dipole/Dipole)   ...  NO
Static polarizability (Dipole/Quad.)    ...  NO
Static polarizability (Quad./Quad.)     ...  NO
Static polarizability (Velocity)        ...  NO

Atomic electric properties:
Dipole moment                           ...  NO
Quadrupole moment                       ...  NO
Static polarizability                   ...  NO

Choice of electric origin               ... Center of mass
Position of electric origin             ...    -0.000001    -0.000006     0.000002

General magnetic properties:
Magnetizability                         ...  NO

EPR properties:
g-Tensor (aka g-matrix)                 ...  NO
Zero-Field splitting spin-orbit         ...  NO
Zero-field splitting spin-spin          ...  NO
Hyperfine couplings                     ...  NO (   0 nuclei)
Quadrupole couplings                    ...  NO (   0 nuclei)
Contact density                         ...  NO (   0 nuclei)

NMR properties:
Chemical shifts                         ...  NO (   0 nuclei)
Spin-rotation constants                 ...  NO (   0 nuclei)
Spin-spin couplings                     ...  NO (   0 nuclei,    0 pairs)

Choice of magnetic origin               ... GIAO
Position of magnetic origin             ...     0.000000     0.000000     0.000000

Properties with geometric perturbations:
SCF Hessian                             ...  NO
IR spectrum                             ...  NO
VCD spectrum                            ...  NO
X-ray spectroscopy properties:
SCF XES/XAS/RIXS spectra                ...  NO


-------------
DIPOLE MOMENT
-------------

Method             : SCF
Type of density    : Electron Density
Multiplicity       :   1
Irrep              :   0
Energy             : -2929.6258778407004684 Eh
Relativity type    : 
Basis              : AO
                                X                 Y                 Z
Electronic contribution:      2.094859166       6.828199281      -0.974848399
Nuclear contribution   :     -2.350116575      -8.268990665       1.508581310
                        -----------------------------------------
Total Dipole Moment    :     -0.255257409      -1.440791384       0.533732911
                        -----------------------------------------
Magnitude (a.u.)       :      1.557532336
Magnitude (Debye)      :      3.958932576



--------------------
Rotational spectrum 
--------------------
 
Rotational constants in cm-1:             0.012741             0.005501             0.004887 
Rotational constants in MHz :           381.973727           164.927543           146.516430 

Dipole components along the rotational axes: 
x,y,z [a.u.] :     0.071227     0.084421     1.553611 
x,y,z [Debye]:     0.181044     0.214581     3.948965 

 

Dipole moment calculation done in   0.0 sec 

Maximum memory used throughout the entire PROP-calculation: 24.1 MB

--------------------------------
SUGGESTED CITATIONS FOR THIS RUN
--------------------------------

Below you find a list of papers that are relevant to this ORCA run
We neither can nor want to force you to cite these papers, but we appreciate if you do
You receive ORCA, which is the product of decades of hard work by many enthusiastic individuals, for free
The only thing we kindly ask in return is that you cite our papers,
We deeply appreciate it, if you show your appreciation for ORCA by not just citing the generic ORCA reference.

Please note that relegating all ORCA citations to the supporting information does *not* help us.
SI sections are not indexed - citations you put there will not count into any citation statistics
But we need these citations in order to attract the funding resources that allow us to do what we are doing

Therefore, if you are a happy ORCA user, please consider citing a few of the papers listed below in the main body of your paper

In addition to the list printed below, the program has created the file sp.bibtex that contains the list in bibtex format
You can import this file easily into all common literature databanks and citation aid programs


List of essential papers. We consider these as the minimum necessary citations

  1. Neese,F.
     Software update: the ORCA program system, version 5.0
     WIRES Comput. Molec. Sci., 2022 12(1)e1606
     doi.org/10.1002/wcms.1606

List of papers to cite with high priority. The work reported in these papers was absolutely
necessary for this run to complete.
Our perspective: the developers of density functionals and basis sets usually get cited in chemistry papers
Good! But without the algorithms to do something with them, the functionals or basis sets would not do anything.
Hence, in our opinion, the algorithm design and method developments papers are equally worthy of getting cited

  1. Neese,F.
     An improvement of the resolution of the identity approximation for the formation of the Coulomb matrix
     J. Comp. Chem., 2003 24(14)1740-1747
     doi.org/10.1002/jcc.10318
  2. Neese,F.
     The SHARK Integral Generation and Digestion System
     J. Comp. Chem., 2022  1-16
     doi.org/10.1002/jcc.26942
  3. Caldeweyher,E.; Bannwarth,C.; Grimme,S.
     Extension of the D3 dispersion coefficient model
     J. Chem. Phys., 2017 147 034112-XXXX
     doi.org/10.1063/1.4993215
  4. Caldeweyher,E.; Ehlert,S.; Hansen,A.; Neugebauer,H.; Spicher,S.; Bannwarth,C.; Grimme,S.
     A generally applicable atomic-charge dependent London dispersion correction
     J. Chem. Phys., 2019 150 154122-XXXX
     doi.org/10.1063/1.5090222
  5. Caldeweyher,E.; Mewes,J.; Ehlert,S.; Grimme,S.
     Extension and evaluation of the D4 London-dispersion model for periodic systems
     Phys. Chem. Chem. Phys., 2020 22(16)8499-8512
     doi.org/10.1039/D0CP00502A

List of suggested additional citations. These are papers that are important in the 'surrounding' of 
of this run, or papers that preceded the highly important papers. If you like your results we are grateful for a citation.

  1. Neese,F.
     The ORCA program system
     WIRES Comput. Molec. Sci., 2012 2(1)73-78
     doi.org/10.1002/wcms.81
  2. Neese,F.
     Software update: the ORCA program system, version 4.0
     WIRES Comput. Molec. Sci., 2018 8(1)1-6
     doi.org/10.1002/wcms.1327
  3. Neese,F.; Wennmohs,F.; Becker,U.; Riplinger,C.
     The ORCA quantum chemistry program package
     J. Chem. Phys., 2020 152 Art. No. L224108
     doi.org/10.1063/5.0004608

List of optional additional citations

  1. Neese,F.
     Approximate second-order SCF convergence for spin unrestricted wavefunctions
     Chem. Phys. Lett., 2000 325(1-3)93-98
     doi.org/10.1016/s0009-2614(00)00662-x

Timings for individual modules:

Sum of individual times          ...       20.498 sec (=   0.342 min)
Startup calculation              ...        1.553 sec (=   0.026 min)   7.6 %
SCF iterations                   ...       18.834 sec (=   0.314 min)  91.9 %
Property calculations            ...        0.111 sec (=   0.002 min)   0.5 %
                             ****ORCA TERMINATED NORMALLY****
TOTAL RUN TIME: 0 days 0 hours 0 minutes 21 seconds 258 msec
