      -----------------------------------------------------------      
     |                   =====================                   |     
     |                           x T B                           |     
     |                   =====================                   |     
     |                         S. Grimme                         |     
     |          Mulliken Center for Theoretical Chemistry        |     
     |                    University of Bonn                     |     
      -----------------------------------------------------------      

   * xtb version 6.7.1 (edcfbbe) compiled by 'albert@albert-system' on 2024-07-22

   xtb is free software: you can redistribute it and/or modify it under
   the terms of the GNU Lesser General Public License as published by
   the Free Software Foundation, either version 3 of the License, or
   (at your option) any later version.
   
   xtb is distributed in the hope that it will be useful,
   but WITHOUT ANY WARRANTY; without even the implied warranty of
   MERCHANTABILITY or FITNESS FOR A PARTICULAR PURPOSE.  See the
   GNU Lesser General Public License for more details.
   
   Cite this work as:
   * C. Bannwarth, E. Caldeweyher, S. Ehlert, A. Hansen, P. Pracht,
     J. Seibert, S. Spicher, S. Grimme, WIREs Comput. Mol. Sci., 2020, 11,
     e01493. DOI: 10.1002/wcms.1493
   
   for GFN2-xTB:
   * C. Bannwarth, S. Ehlert and S. Grimme., J. Chem. Theory Comput., 2019,
     15, 1652-1671. DOI: 10.1021/acs.jctc.8b01176
   for GFN1-xTB:
   * S. Grimme, C. Bannwarth, P. Shushkov, J. Chem. Theory Comput., 2017,
     13, 1989-2009. DOI: 10.1021/acs.jctc.7b00118
   for GFN0-xTB:
   * P. Pracht, E. Caldeweyher, S. Ehlert, S. Grimme, ChemRxiv, 2019, preprint.
     DOI: 10.26434/chemrxiv.8326202.v1
   for GFN-FF:
   * S. Spicher and S. Grimme, Angew. Chem. Int. Ed., 2020, 59, 15665-15673.
     DOI: 10.1002/anie.202004239
   
   for ALPB and GBSA implicit solvation:
   * S. Ehlert, M. Stahn, S. Spicher, S. Grimme, J. Chem. Theory Comput.,
     2021, 17, 4250-4261. DOI: 10.1021/acs.jctc.1c00471
   
   for ddCOSMO and CPCM-X implicit solvation:
   * M. Stahn, S. Ehlert, S. Grimme, J. Phys. Chem. A,
     2023, XX, XXXX-XXXX. DOI: 10.1021/acs.jpca.3c04382
   
   for DFT-D4:
   * E. Caldeweyher, C. Bannwarth and S. Grimme, J. Chem. Phys., 2017,
     147, 034112. DOI: 10.1063/1.4993215
   * E. Caldeweyher, S. Ehlert, A. Hansen, H. Neugebauer, S. Spicher,
     C. Bannwarth and S. Grimme, J. Chem. Phys., 2019, 150, 154122.
     DOI: 10.1063/1.5090222
   * E. Caldeweyher, J.-M. Mewes, S. Ehlert and S. Grimme, Phys. Chem. Chem. Phys.
     2020, 22, 8499-8512. DOI: 10.1039/D0CP00502A
   
   for sTDA-xTB:
   * S. Grimme and C. Bannwarth, J. Chem. Phys., 2016, 145, 054103.
     DOI: 10.1063/1.4959605
   
   in the mass-spec context:
   * V. Asgeirsson, C. Bauer and S. Grimme, Chem. Sci., 2017, 8, 4879.
     DOI: 10.1039/c7sc00601b
   * J. Koopman and S. Grimme, ACS Omega 2019, 4, 12, 15120-15133.
     DOI: 10.1021/acsomega.9b02011
   
   for metadynamics refer to:
   * S. Grimme, J. Chem. Theory Comput., 2019, 155, 2847-2862
     DOI: 10.1021/acs.jctc.9b00143
   
   for SPH calculations refer to:
   * S. Spicher and S. Grimme, J. Chem. Theory Comput., 2021, 17, 1701-1714
     DOI: 10.1021/acs.jctc.0c01306
   
   for ONIOM refer to:
   * C. Plett, A. Katbashev, S. Ehlert, S. Grimme, M. Bursch,
     Phys. Chem. Chem. Phys., 2023, 25, 17860-17868. DOI: 10.1039/D3CP02178E
   
   for DIPRO refer to:
   * J. Kohn, N. Gildemeister, S. Grimme, D. Fazzi, A. Hansen,
     J. Chem. Phys., 2023, just accepted.
   
   for PTB refer to:
   * S. Grimme, M. Mueller, A. Hansen, J. Chem. Phys., 2023, 158, 124111.
     DOI: 10.1063/5.0137838
   
   with help from (in alphabetical order)
   P. Atkinson, C. Bannwarth, F. Bohle, G. Brandenburg, E. Caldeweyher
   M. Checinski, S. Dohm, S. Ehlert, S. Ehrlich, I. Gerasimov, C. Hölzer
   A. Katbashev, J. Kohn, J. Koopman, C. Lavigne, S. Lehtola, F. März, M. Müller,
   F. Musil, H. Neugebauer, J. Pisarek, C. Plett, P. Pracht, F. Pultar,
   J. Seibert, P. Shushkov, S. Spicher, M. Stahn, M. Steiner, T. Strunk,
   J. Stückrath, T. Rose, and J. Unsleber
   
 * started run on 2025/04/09 at 07:31:32.694     
   ID    Z sym.   atoms
    1    6 C      1, 2, 4, 6, 7, 9, 12, 13, 18, 20
    2    8 O      3, 5, 10, 11, 17, 19
    3    1 H      8, 21-38
    4   16 S      14, 16
    5   15 P      15

           -------------------------------------------------
          |                Calculation Setup                |
           -------------------------------------------------

          program call               : /software/projects/pawsey0265/mwang1/xtb/bin/xtb gas.coord --gfn2 --sp --chrg 0 --norestart --parallel 1
          hostname                   : nid002043
          coordinate file            : gas.coord
          omp threads                :                     1


           -------------------------------------------------
          |                 G F N 2 - x T B                 |
           -------------------------------------------------

        Reference                      10.1021/acs.jctc.8b01176
      * Hamiltonian:
        H0-scaling (s, p, d)           1.850000    2.230000    2.230000
        zeta-weighting                 0.500000
      * Dispersion:
        s8                             2.700000
        a1                             0.520000
        a2                             5.000000
        s9                             5.000000
      * Repulsion:
        kExp                           1.500000    1.000000
        rExp                           1.000000
      * Coulomb:
        alpha                          2.000000
        third order                    shell-resolved
        anisotropic                    true
        a3                             3.000000
        a5                             4.000000
        cn-shift                       1.200000
        cn-exp                         4.000000
        max-rad                        5.000000


          ...................................................
          :                      SETUP                      :
          :.................................................:
          :  # basis functions                 113          :
          :  # atomic orbitals                 110          :
          :  # shells                           60          :
          :  # electrons                       112          :
          :  max. iterations                   250          :
          :  Hamiltonian                  GFN2-xTB          :
          :  restarted?                      false          :
          :  GBSA solvation                  false          :
          :  PC potential                    false          :
          :  electronic temp.          300.0000000     K    :
          :  accuracy                    1.0000000          :
          :  -> integral cutoff          0.2500000E+02      :
          :  -> integral neglect         0.1000000E-07      :
          :  -> SCF convergence          0.1000000E-05 Eh   :
          :  -> wf. convergence          0.1000000E-03 e    :
          :  Broyden damping             0.4000000          :
          :  net charge                          0          :
          :  unpaired electrons                  0          :
          ...................................................

 iter      E             dE          RMSdq      gap      omega  full diag
   1    -65.0277712 -0.650278E+02  0.587E+00    3.96       0.0  T
   2    -65.1970572 -0.169286E+00  0.330E+00    2.39       1.0  T
   3    -65.2062329 -0.917564E-02  0.145E+00    2.58       1.0  T
   4    -65.2166103 -0.103774E-01  0.455E-01    2.07       1.0  T
   5    -65.2183784 -0.176810E-02  0.221E-01    2.30       1.0  T
   6    -65.2185424 -0.164014E-03  0.865E-02    2.26       1.0  T
   7    -65.2185649 -0.224727E-04  0.404E-02    2.27       1.0  T
   8    -65.2185715 -0.660200E-05  0.171E-02    2.27       1.0  T
   9    -65.2185723 -0.787808E-06  0.476E-03    2.27       3.4  T
  10    -65.2185724 -0.145846E-06  0.220E-03    2.27       7.4  T
  11    -65.2185724 -0.438536E-08  0.682E-04    2.27      23.8  T
  12    -65.2185724 -0.128180E-08  0.201E-04    2.27      80.8  T

   *** convergence criteria satisfied after 12 iterations ***

         #    Occupation            Energy/Eh            Energy/eV
      -------------------------------------------------------------
         1        2.0000           -0.7774786             -21.1563
       ...           ...                  ...                  ...
        50        2.0000           -0.4411069             -12.0031
        51        2.0000           -0.4341003             -11.8125
        52        2.0000           -0.4277686             -11.6402
        53        2.0000           -0.4163960             -11.3307
        54        2.0000           -0.3792546             -10.3200
        55        2.0000           -0.3501346              -9.5276
        56        2.0000           -0.3457005              -9.4070 (HOMO)
        57                         -0.2621570              -7.1337 (LUMO)
        58                         -0.2462754              -6.7015
        59                         -0.2385891              -6.4923
        60                         -0.1870365              -5.0895
        61                         -0.1192213              -3.2442
       ...                                ...                  ...
       110                          1.5745579              42.8459
      -------------------------------------------------------------
                  HL-Gap            0.0835435 Eh            2.2733 eV
             Fermi-level           -0.3039288 Eh           -8.2703 eV

 SCC (total)                   0 d,  0 h,  0 min,  0.122 sec
 SCC setup                      ...        0 min,  0.000 sec (  0.348%)
 Dispersion                     ...        0 min,  0.000 sec (  0.319%)
 classical contributions        ...        0 min,  0.000 sec (  0.066%)
 integral evaluation            ...        0 min,  0.053 sec ( 43.008%)
 iterations                     ...        0 min,  0.033 sec ( 26.710%)
 molecular gradient             ...        0 min,  0.036 sec ( 29.228%)
 printout                       ...        0 min,  0.000 sec (  0.297%)

         :::::::::::::::::::::::::::::::::::::::::::::::::::::
         ::                     SUMMARY                     ::
         :::::::::::::::::::::::::::::::::::::::::::::::::::::
         :: total energy             -64.650492721157 Eh    ::
         :: gradient norm              0.048730571649 Eh/a0 ::
         :: HOMO-LUMO gap              2.273334089264 eV    ::
         ::.................................................::
         :: SCC energy               -65.217515974084 Eh    ::
         :: -> isotropic ES            0.145797858092 Eh    ::
         :: -> anisotropic ES         -0.014614241598 Eh    ::
         :: -> anisotropic XC          0.016273300217 Eh    ::
         :: -> dispersion             -0.044453226667 Eh    ::
         :: repulsion energy           0.567023252927 Eh    ::
         :: add. restraining           0.000000000000 Eh    ::
         :: total charge               0.000000000000 e     ::
         :::::::::::::::::::::::::::::::::::::::::::::::::::::

           -------------------------------------------------
          |                Property Printout                |
           -------------------------------------------------

    * Orbital Energies and Occupations

         #    Occupation            Energy/Eh            Energy/eV
      -------------------------------------------------------------
         1        2.0000           -0.7774786             -21.1563
       ...           ...                  ...                  ...
        44        2.0000           -0.4638549             -12.6221
        45        2.0000           -0.4624767             -12.5846
        46        2.0000           -0.4606449             -12.5348
        47        2.0000           -0.4538008             -12.3485
        48        2.0000           -0.4505895             -12.2612
        49        2.0000           -0.4447375             -12.1019
        50        2.0000           -0.4411069             -12.0031
        51        2.0000           -0.4341003             -11.8125
        52        2.0000           -0.4277686             -11.6402
        53        2.0000           -0.4163960             -11.3307
        54        2.0000           -0.3792546             -10.3200
        55        2.0000           -0.3501346              -9.5276
        56        2.0000           -0.3457005              -9.4070 (HOMO)
        57                         -0.2621570              -7.1337 (LUMO)
        58                         -0.2462754              -6.7015
        59                         -0.2385891              -6.4923
        60                         -0.1870365              -5.0895
        61                         -0.1192213              -3.2442
        62                         -0.1081612              -2.9432
        63                         -0.0804087              -2.1880
        64                         -0.0426807              -1.1614
        65                         -0.0182841              -0.4975
        66                         -0.0110558              -0.3008
        67                         -0.0014819              -0.0403
       ...                                ...                  ...
       110                          1.5745579              42.8459
      -------------------------------------------------------------
                  HL-Gap            0.0835435 Eh            2.2733 eV
             Fermi-level           -0.3039288 Eh           -8.2703 eV

     #   Z          covCN         q      C6AA      α(0)
     1   6 C        3.751    -0.117    22.797     6.809
     2   6 C        3.689     0.076    19.492     6.319
     3   8 O        1.703    -0.251    18.157     5.753
     4   6 C        2.709     0.361    20.867     7.477
     5   8 O        0.869    -0.394    21.550     6.224
     6   6 C        3.825    -0.093    22.250     6.712
     7   6 C        3.851     0.000    20.542     6.446
     8   1 H        0.924     0.090     1.877     2.143
     9   6 C        2.777     0.361    20.872     7.483
    10   8 O        1.038    -0.384    21.275     6.189
    11   8 O        1.703    -0.233    17.865     5.707
    12   6 C        3.692     0.074    19.524     6.322
    13   6 C        3.751    -0.119    22.833     6.814
    14  16 S        1.982    -0.099   145.197    20.281
    15  15 P        4.005     0.390   144.049    21.560
    16  16 S        0.925    -0.433   158.170    21.272
    17   8 O        1.656    -0.259    18.300     5.775
    18   6 C        3.768     0.041    19.913     6.360
    19   8 O        1.666    -0.255    18.239     5.765
    20   6 C        3.820     0.044    19.817     6.335
    21   1 H        0.925     0.073     2.057     2.243
    22   1 H        0.925     0.056     2.241     2.341
    23   1 H        0.925     0.052     2.294     2.369
    24   1 H        0.924     0.075     2.029     2.228
    25   1 H        0.924     0.055     2.264     2.353
    26   1 H        0.924     0.091     1.865     2.136
    27   1 H        0.925     0.083     1.951     2.184
    28   1 H        0.924     0.074     2.047     2.237
    29   1 H        0.924     0.072     2.069     2.249
    30   1 H        0.925     0.065     2.145     2.290
    31   1 H        0.925     0.059     2.206     2.322
    32   1 H        0.925     0.063     2.164     2.301
    33   1 H        0.925     0.062     2.181     2.310
    34   1 H        0.925     0.061     2.188     2.313
    35   1 H        0.924     0.072     2.067     2.249
    36   1 H        0.924     0.066     2.125     2.280
    37   1 H        0.925     0.068     2.110     2.272
    38   1 H        0.924     0.051     2.307     2.375

 Mol. C6AA /au·bohr⁶  :      18378.738257
 Mol. C8AA /au·bohr⁸  :     515287.123240
 Mol. α(0) /au        :        208.797863


Wiberg/Mayer (AO) data.
largest (>0.10) Wiberg bond orders for each atom

 ---------------------------------------------------------------------------
     #   Z sym  total        # sym  WBO       # sym  WBO       # sym  WBO
 ---------------------------------------------------------------------------
     1   6 C    3.989 --     2 C    1.015    23 H    0.986    22 H    0.982
                            21 H    0.980
     2   6 C    3.911 --     1 C    1.015    25 H    0.969    24 H    0.968
                             3 O    0.916
     3   8 O    2.341 --     4 C    1.183     2 C    0.916     5 O    0.179
     4   6 C    3.926 --     5 O    1.711     3 O    1.183     6 C    0.964
     5   8 O    2.081 --     4 C    1.711     3 O    0.179
     6   6 C    3.990 --     7 C    0.978    27 H    0.965     4 C    0.964
                            26 H    0.954
     7   6 C    3.982 --    14 S    0.981     6 C    0.978     9 C    0.952
                             8 H    0.938
     8   1 H    0.991 --     7 C    0.938
     9   6 C    3.924 --    10 O    1.664    11 O    1.214     7 C    0.952
    10   8 O    2.136 --     9 C    1.664    11 O    0.168    15 P    0.157
    11   8 O    2.360 --     9 C    1.214    12 C    0.905    10 O    0.168
    12   6 C    3.903 --    13 C    1.018    28 H    0.969    29 H    0.966
                            11 O    0.905
    13   6 C    3.989 --    12 C    1.018    31 H    0.985    30 H    0.984
                            32 H    0.980
    14  16 S    2.241 --     7 C    0.981    15 P    0.941    16 S    0.136
    15  15 P    5.240 --    16 S    1.448    17 O    1.265    19 O    1.260
                            14 S    0.941    10 O    0.157
    16  16 S    1.825 --    15 P    1.448    14 S    0.136
    17   8 O    2.382 --    15 P    1.265    18 C    0.939
    18   6 C    3.917 --    34 H    0.982    33 H    0.979    35 H    0.973
                            17 O    0.939
    19   8 O    2.370 --    15 P    1.260    20 C    0.937
    20   6 C    3.921 --    38 H    0.982    37 H    0.980    36 H    0.974
                            19 O    0.937
    21   1 H    0.995 --     1 C    0.980
    22   1 H    0.996 --     1 C    0.982
    23   1 H    0.997 --     1 C    0.986
    24   1 H    0.994 --     2 C    0.968
    25   1 H    0.997 --     2 C    0.969
    26   1 H    0.991 --     6 C    0.954
    27   1 H    0.993 --     6 C    0.965
    28   1 H    0.995 --    12 C    0.969
    29   1 H    0.995 --    12 C    0.966
    30   1 H    0.996 --    13 C    0.984
    31   1 H    0.996 --    13 C    0.985
    32   1 H    0.995 --    13 C    0.980
    33   1 H    0.996 --    18 C    0.979
    34   1 H    0.996 --    18 C    0.982
    35   1 H    0.995 --    18 C    0.973
    36   1 H    0.996 --    20 C    0.974
    37   1 H    0.995 --    20 C    0.980
    38   1 H    0.997 --    20 C    0.982
 ---------------------------------------------------------------------------

Topologies differ in total number of bonds
Writing topology from bond orders to xtbtopo.mol

molecular dipole:
                 x           y           z       tot (Debye)
 q only:        1.731       1.410       0.019
   full:        1.573       1.438      -0.122       5.426
molecular quadrupole (traceless):
                xx          xy          yy          xz          yz          zz
 q only:        4.454       5.981       3.991      -2.397       0.578      -8.445
  q+dip:        7.954       4.083       5.712      -6.199       2.147     -13.666
   full:        6.662       5.005       6.348      -6.545       1.874     -13.010


           -------------------------------------------------
          | TOTAL ENERGY              -64.650492721157 Eh   |
          | GRADIENT NORM               0.048730571649 Eh/α |
          | HOMO-LUMO GAP               2.273334089264 eV   |
           -------------------------------------------------

------------------------------------------------------------------------
 * finished run on 2025/04/09 at 07:31:32.872     
------------------------------------------------------------------------
 total:
 * wall-time:     0 d,  0 h,  0 min,  0.177 sec
 *  cpu-time:     0 d,  0 h,  0 min,  0.107 sec
 * ratio c/w:     0.605 speedup
 SCF:
 * wall-time:     0 d,  0 h,  0 min,  0.123 sec
 *  cpu-time:     0 d,  0 h,  0 min,  0.086 sec
 * ratio c/w:     0.699 speedup

