20
 energy: -36.154418834989 gnorm: 0.052906360766 xtb: 6.7.1 (edcfbbe)
C            0.87682746482647        1.36999029642003       -0.63730280322537
C            1.59773901891898        0.15693450723878       -0.07526439233381
H            2.56908777322699        0.05503838657082       -0.58266317486419
C            0.77482461419998       -1.11750170485504       -0.30515738895693
H            1.21016894694861       -1.94081519952905        0.27808535434566
C           -0.68050708095363       -0.91870716568477        0.13668142964946
H           -1.27929758512452       -1.76424335777871       -0.21844956466770
C           -1.26451971889437        0.37034761843091       -0.44973021477024
H           -1.33513755607373        0.30787197217165       -1.54448240312791
O           -0.44617868587304        1.49442094150913       -0.08958679811141
O           -2.55478303697333        0.61516332989836        0.04393141929655
O           -0.79531717069081       -0.89698803864781        1.56295372312937
O            0.73862795467586       -1.44080138910320       -1.69768749593999
O            1.78328243949926        0.26102374742120        1.34945756756145
H            0.82956299856063        1.29339313461346       -1.73364148493268
H            1.40834438311100        2.28958103261452       -0.37508932121936
H           -2.53480757433467        0.39409196362596        0.98978263769358
H           -0.09341639686270       -0.30743899542938        1.88917641950939
H            1.64610779713115       -1.61570425214280       -1.98160771907565
H            2.15810515337154        1.13219134967454        1.53854597037645
20
 energy: -36.156677878084 gnorm: 0.027723874660 xtb: 6.7.1 (edcfbbe)
C            0.86927583150485        1.37327674551192       -0.63773043957161
C            1.59527802519421        0.15981790845159       -0.06519779051604
H            2.57384551955624        0.06282291310890       -0.55732459657586
C            0.77500064116979       -1.11558465420476       -0.31902442377430
H            1.20498626607462       -1.93887008097967        0.26687589485136
C           -0.67535781006715       -0.91744527805777        0.13863292978626
H           -1.27964476436220       -1.75953710604532       -0.21177003844619
C           -1.25728966019531        0.37687492083876       -0.44678495372627
H           -1.32721318154438        0.30613526130405       -1.54084021125697
O           -0.44132097759960        1.49310900026418       -0.09640341400319
O           -2.53683726491998        0.61531640010437        0.03830989079025
O           -0.79355654401429       -0.89510671377309        1.55067466151169
O            0.74043857131640       -1.44279793709807       -1.69882609503980
O            1.77748698987051        0.26299257605566        1.34461268544742
H            0.81217340440146        1.28684161270041       -1.73081099307691
H            1.37698129511424        2.30300596896205       -0.37228109833541
H           -2.52728090535385        0.40772220077560        0.98955321325526
H           -0.08453341742767       -0.31970510326152        1.88990205105361
H            1.64153835059910       -1.64816147491139       -1.98857774849575
H            2.16474336937269        1.12714101727268        1.54496223645910
20
 energy: -36.157488895834 gnorm: 0.005785052492 xtb: 6.7.1 (edcfbbe)
C            0.85898812664121        1.37526650809851       -0.63928606532959
C            1.59722518562389        0.16553675062153       -0.05546587025312
H            2.57980553490321        0.07488082187068       -0.54249570208876
C            0.77860901519088       -1.11244247944765       -0.32846364509571
H            1.20964757208129       -1.93609535399958        0.25893069277473
C           -0.67000609775632       -0.91471809750747        0.14215761108269
H           -1.27852266117905       -1.75316435183961       -0.21006497236310
C           -1.25858102065862        0.38358873637193       -0.44529346213573
H           -1.32401853231046        0.30272123109634       -1.54111673003381
O           -0.44143665251149        1.48899501654028       -0.10257730431397
O           -2.52771994511263        0.61683308524041        0.03158006998080
O           -0.78363011435737       -0.89740681499608        1.54075082435101
O            0.74290168387011       -1.42971162691100       -1.69649768660720
O            1.76253522045217        0.26384347198692        1.34121060949769
H            0.80436636467382        1.27310829010817       -1.73042222536344
H            1.35319286884980        2.31094662461072       -0.37567023405100
H           -2.52981636015442        0.43047923674663        0.98956873985156
H           -0.06763688044546       -0.33791862001496        1.89574041103154
H            1.63274837878049       -1.68281140630553       -1.99378177638094
H            2.17006205210865        1.11591715474837        1.55914847578304
20
 energy: -36.157578093885 gnorm: 0.004428766958 xtb: 6.7.1 (edcfbbe)
C            0.85727372573611        1.37758979711839       -0.64023552720133
C            1.59656736852947        0.16881024144306       -0.05238313079198
H            2.57852308749496        0.08060255478891       -0.54197210485712
C            0.77971277131035       -1.11111533722005       -0.33040867980284
H            1.21263656146704       -1.93453396695720        0.25716992871367
C           -0.66912557042173       -0.91632979916328        0.14406502564640
H           -1.27679767187135       -1.75483435654780       -0.21152513504303
C           -1.25918191018738        0.38345570270578       -0.44499012924991
H           -1.32244807727424        0.29858619622640       -1.54158753130947
O           -0.44328823566717        1.49037071713555       -0.10394918276569
O           -2.52885452474436        0.61597420386638        0.02948902481551
O           -0.78109786277520       -0.90027816289479        1.54213757513817
O            0.74313076895473       -1.42253935388251       -1.69844242689832
O            1.75600557437069        0.26555022660924        1.34406887017509
H            0.80639219754576        1.26977375409220       -1.73153964069194
H            1.35372565047766        2.31336792945562       -0.38127887316950
H           -2.53282010613498        0.44069609429477        0.98937298931868
H           -0.06278509626911       -0.34529478479725        1.89936177169708
H            1.62719807914428       -1.69342679692276       -1.99606140544318
H            2.17394700900415        1.11142331766793        1.56666034205638
20
 energy: -36.157652156443 gnorm: 0.003792773615 xtb: 6.7.1 (edcfbbe)
C            0.85424427480774        1.38066530193949       -0.64059038368738
C            1.59599715845148        0.17394346870979       -0.04858136557965
H            2.57782555859171        0.08987092410453       -0.53992800679827
C            0.78185370655408       -1.10855517567446       -0.33150982348932
H            1.21848361649666       -1.93234112545474        0.25363628875942
C           -0.66784411839075       -0.91813919129998        0.14602071713177
H           -1.27399995740092       -1.75661976175230       -0.21399584982515
C           -1.26076764801630        0.38227848069025       -0.44547835945885
H           -1.32076426925422        0.29273905145966       -1.54250495580162
O           -0.44771568799460        1.49287198438299       -0.10570668689091
O           -2.53289387616004        0.61392068337844        0.02513215097991
O           -0.77807061458970       -0.90526918002974        1.54436443792865
O            0.74419438691520       -1.40978249832560       -1.70113012317820
O            1.74834127451453        0.26848149345527        1.34829701768715
H            0.80720240591521        1.26641124602927       -1.73199545524543
H            1.35331350520318        2.31721622941895       -0.38847176028121
H           -2.53791551333223        0.45785774733962        0.98759693417507
H           -0.05524084245581       -0.35764640419380        1.90320767555821
H            1.61769761611963       -1.71345294498887       -1.99646599174803
H            2.18477276271483        1.10339784782983        1.57605530010051
20
 energy: -36.157679525107 gnorm: 0.003072475706 xtb: 6.7.1 (edcfbbe)
C            0.85249868410337        1.38234686681008       -0.63993775052651
C            1.59529943327386        0.17677746437172       -0.04698435473785
H            2.57748496768018        0.09472820933072       -0.53754988551812
C            0.78285567936204       -1.10654655975245       -0.33206774367730
H            1.22092646209490       -1.93091155800869        0.25054721435071
C           -0.66701104324822       -0.91865629904442        0.14628977714443
H           -1.27231628828911       -1.75740058923828       -0.21452101302109
C           -1.26117907723359        0.38097112427282       -0.44620975611758
H           -1.31986349241846        0.29035984485908       -1.54294131643460
O           -0.45030034425744        1.49359638849777       -0.10619578058978
O           -2.53497745720283        0.61132782972343        0.02212023642671
O           -0.77704612179919       -0.90691743286608        1.54494694521277
O            0.74537087268034       -1.40312953757133       -1.70304858356176
O            1.74581661878668        0.27035307280823        1.35023304896247
H            0.80621811412229        1.26662939782593       -1.73123190951878
H            1.35086582430180        2.31970817310252       -0.38909215974902
H           -2.53932268033983        0.46662072748671        0.98580484493247
H           -0.05197568902949       -0.36250710296945        1.90358820386970
H            1.61181302312167       -1.72806241997941       -1.99506840826214
H            2.19355625298073        1.09856057735969        1.57927015115192
20
 energy: -36.157705744684 gnorm: 0.001780192675 xtb: 6.7.1 (edcfbbe)
C            0.85025085371595        1.38447999580574       -0.63786945956993
C            1.59442376040991        0.17992818917221       -0.04592426668874
H            2.57716612533081        0.09991331498744       -0.53468533018582
C            0.78404165006091       -1.10382192529621       -0.33285561300293
H            1.22329088167200       -1.92910199871529        0.24609680647460
C           -0.66580445848881       -0.91882036095535        0.14566101341899
H           -1.27006044511130       -1.75854334022192       -0.21400170844175
C           -1.26156577582542        0.37876765561113       -0.44749474446365
H           -1.31884188615721        0.28838003105229       -1.54369738648177
O           -0.45374079547889        1.49326382941234       -0.10596233864672
O           -2.53746080914138        0.60681645416354        0.01781876375225
O           -0.77564750026491       -0.90712429469910        1.54477832483605
O            0.74746626520949       -1.39590753725189       -1.70576913402384
O            1.74455741779342        0.27223912637273        1.35184533996249
H            0.80449002843154        1.26975022090874       -1.72903999323859
H            1.34543981998739        2.32295665016406       -0.38511554316500
H           -2.54014297252776        0.47602644419415        0.98290331562365
H           -0.04923522486983       -0.36421352109954        1.90216042045996
H            1.60391545885063       -1.74927544837115       -1.99196530275572
H            2.20617134509316        1.09213469178465        1.58106859647313
20
 energy: -36.157716504424 gnorm: 0.001104047386 xtb: 6.7.1 (edcfbbe)
C            0.84850205566164        1.38656255000249       -0.63478014198757
C            1.59394122632090        0.18180711578225       -0.04610544677814
H            2.57656420304310        0.10287076336074       -0.53439654366681
C            0.78476007745233       -1.10185229939214       -0.33378686962502
H            1.22438261761235       -1.92761387870623        0.24299767568834
C           -0.66492526472997       -0.91874343038540        0.14461003786212
H           -1.26836570898744       -1.76007338193607       -0.21213078290147
C           -1.26181731145995        0.37672427087529       -0.44886290433733
H           -1.31770045685487        0.28762973134676       -1.54498387779906
O           -0.45655124709103        1.49162432600915       -0.10467017576560
O           -2.53908640639589        0.60240011405398        0.01378625054848
O           -0.77409584196091       -0.90533347048013        1.54403079711185
O            0.74944135154236       -1.39201773895968       -1.70800539755766
O            1.74611155141360        0.27264162449077        1.35203046323530
H            0.80371529699924        1.27584961485747       -1.72615898203065
H            1.33960462665119        2.32554768584319       -0.37666322442084
H           -2.54077035196628        0.48025766458093        0.97972468788783
H           -0.04903456243674       -0.35964659690932        1.89978373717914
H            1.59704617240568       -1.76777681918225       -1.98878444363381
H            2.21699171147038        1.08699033176677        1.58031690132759
20
 energy: -36.157720575413 gnorm: 0.000752593693 xtb: 6.7.1 (edcfbbe)
C            0.84811605597768        1.38766967893846       -0.63305274931676
C            1.59424060385527        0.18197689292999       -0.04666604385277
H            2.57596857233673        0.10325895144632       -0.53693573219305
C            0.78488119212499       -1.10170510232733       -0.33424925512818
H            1.22440984779074       -1.92724841117100        0.24313457178066
C           -0.66481010676207       -0.91876169234203        0.14446623548626
H           -1.26806134480282       -1.76073088604899       -0.21121378023626
C           -1.26193888310203        0.37649113637190       -0.44917751884836
H           -1.31666621807423        0.28776106298022       -1.54567395884116
O           -0.45725798872240        1.49096965806493       -0.10349718880942
O           -2.53949577553965        0.60149410177968        0.01232597246951
O           -0.77333842001864       -0.90433748455085        1.54383428090460
O            0.74965943728183       -1.39196034664752       -1.70836725728813
O            1.74855016333808        0.27177733424826        1.35130190380013
H            0.80436866335155        1.27965246079967       -1.72480720882826
H            1.33848615524975        2.32620364294480       -0.37212408814865
H           -2.54238396107768        0.47808306967430        0.97817320839528
H           -0.05042602797973       -0.35519143272202        1.89921526297120
H            1.59493414770235       -1.77379565796812       -1.98793091172859
H            2.21947762575997        1.08624120061792        1.57919601774861
20
 energy: -36.157723672881 gnorm: 0.000513994146 xtb: 6.7.1 (edcfbbe)
C            0.84779308199258        1.38919507228054       -0.63058103467752
C            1.59468203515502        0.18204123357594       -0.04768699365338
H            2.57470758288138        0.10370373935019       -0.54166738503865
C            0.78488116559116       -1.10176627550461       -0.33453165056775
H            1.22481598968136       -1.92640996463741        0.24398160713098
C           -0.66484730047001       -0.91882729012301        0.14464738645590
H           -1.26804138278282       -1.76121091498019       -0.21012779604543
C           -1.26183368958272        0.37634750264443       -0.44950346327469
H           -1.31440047518500        0.28821021654415       -1.54633989669103
O           -0.45792983182106        1.49059327249831       -0.10143892614133
O           -2.54020421240260        0.60068493845286        0.01001815646001
O           -0.77273092409703       -0.90342602724422        1.54405700365290
O            0.74982451105839       -1.39247664951043       -1.70845043574676
O            1.75314256736770        0.27020357547913        1.34995796084079
H            0.80519213405539        1.28504468483424       -1.72288771847898
H            1.33813766106681        2.32680606087148       -0.36612998025853
H           -2.54570214131483        0.47303945812905        0.97547810554312
H           -0.05329703732604       -0.34890272652925        1.89871564555295
H            1.59180999488504       -1.78086068578648       -1.98665556490640
H            2.22271400993698        1.08585895667387        1.57709674018047
20
 energy: -36.157723394031 gnorm: 0.001291885089 xtb: 6.7.1 (edcfbbe)
C            0.84724194560555        1.39047899205104       -0.62909524246620
C            1.59504111464592        0.18293081192179       -0.04781361798454
H            2.57436337023413        0.10523274848200       -0.54336998552764
C            0.78523728993477       -1.10104933617841       -0.33493111289018
H            1.22527028571522       -1.92563083241797        0.24352399478902
C           -0.66445850504687       -0.91855673426949        0.14472811160055
H           -1.26756198883695       -1.76096260452690       -0.21009967068166
C           -1.26171538954648        0.37646684462161       -0.44965221885797
H           -1.31267541333596        0.28848295496422       -1.54653028288527
O           -0.45853121857426        1.49084192273900       -0.10019759793539
O           -2.54076611314660        0.59988387031595        0.00826831286441
O           -0.77209126227232       -0.90334674483047        1.54398561915750
O            0.74976315519980       -1.39090058010971       -1.70884672407173
O            1.75500710065850        0.26991381238970        1.34950733854577
H            0.80493284272296        1.28759093793296       -1.72154006741994
H            1.33731494493692        2.32796338602207       -0.36351467621783
H           -2.54794063715821        0.47095807840899        0.97362294945977
H           -0.05374699366641       -0.34744527275851        1.89862603581879
H            1.58861795086766       -1.79022805694894       -1.98559602610492
H            2.22541125975233        1.08522397920965        1.57687662114414
20
 energy: -36.157724410106 gnorm: 0.000182283046 xtb: 6.7.1 (edcfbbe)
C            0.84754726635905        1.38992970395759       -0.62971276093744
C            1.59495612324415        0.18257333213330       -0.04780145143918
H            2.57454659099705        0.10454866041294       -0.54272892699195
C            0.78510324224148       -1.10135682921984       -0.33464628999804
H            1.22515155656700       -1.92588229037547        0.24383342774760
C           -0.66456321329023       -0.91851471688823        0.14482314916715
H           -1.26780884873468       -1.76076538992504       -0.21014926787461
C           -1.26159965590246        0.37657522272121       -0.44950289192900
H           -1.31289118876135        0.28858548697603       -1.54630790792971
O           -0.45805891762405        1.49094018046670       -0.10049175017401
O           -2.54047240639759        0.60038650641395        0.00881942190429
O           -0.77245782818169       -0.90326177841724        1.54409839712008
O            0.74960568521340       -1.39175846371822       -1.70851923099434
O            1.75442156651319        0.26999095143016        1.34959064203373
H            0.80479630744791        1.28628090304827       -1.72203349491454
H            1.33791778632297        2.32748763802473       -0.36497144818969
H           -2.54742231759442        0.47083578534791        0.97405074576836
H           -0.05345368912608       -0.34840468435797        1.89881608865028
H            1.58946036489650       -1.78606822532691       -1.98613148436174
H            2.22393531449955        1.08572618431472        1.57691679367942
20
 energy: -36.157724521872 gnorm: 0.000108896208 xtb: 6.7.1 (edcfbbe)
C            0.84761016730235        1.38996608351442       -0.62979109823489
C            1.59496951107191        0.18265706711200       -0.04779327834020
H            2.57459674171500        0.10465094888253       -0.54263734645596
C            0.78507859221453       -1.10123350726404       -0.33465424823916
H            1.22518307768320       -1.92576119156520        0.24372006820778
C           -0.66456495250872       -0.91841790140793        0.14485947513991
H           -1.26780314367790       -1.76064398872863       -0.21019737110247
C           -1.26150242726862        0.37667643774640       -0.44947094162026
H           -1.31268557010286        0.28881347342382       -1.54626774394352
O           -0.45792427026066        1.49107671592610       -0.10038897310713
O           -2.54039386402287        0.60045484119863        0.00881607641546
O           -0.77256430950677       -0.90325056146036        1.54415748672792
O            0.74963379191035       -1.39151645468556       -1.70860055230781
O            1.75440079126153        0.27005709291277        1.34963451566332
H            0.80468313262526        1.28617441018258       -1.72210092695172
H            1.33806983762335        2.32753654325723       -0.36523992328307
H           -2.54749888569986        0.47023265119920        0.97396474964068
H           -0.05331532750867       -0.34880896172833        1.89896244683293
H            1.58905980215730       -1.78671356914245       -1.98601695283261
H            2.22368104368183        1.08589804764541        1.57699629812747
20
 energy: -36.157724662515 gnorm: 0.000096482231 xtb: 6.7.1 (edcfbbe)
C            0.84778850455006        1.39005074917410       -0.62990489556705
C            1.59507447698048        0.18281067207388       -0.04775399995677
H            2.57482095107265        0.10476023509740       -0.54234706074743
C            0.78518014770664       -1.10104777457583       -0.33469897295146
H            1.22527914760922       -1.92565636846189        0.24349884432189
C           -0.66445023234254       -0.91813554383140        0.14476715016450
H           -1.26770991462618       -1.76026840939146       -0.21050408398052
C           -1.26139071254423        0.37702639652327       -0.44933018119077
H           -1.31245396490889        0.28935924320768       -1.54611735471770
O           -0.45761440259646        1.49142476559905       -0.10023244587415
O           -2.54021580780811        0.60083812481752        0.00905238450009
O           -0.77264214889849       -0.90317784771439        1.54405021803106
O            0.74967897886552       -1.39108024944012       -1.70874013574592
O            1.75422026318083        0.27021212060190        1.34971554435481
H            0.80454523234833        1.28582684291597       -1.72215672369657
H            1.33844360612730        2.32767792419984       -0.36587800131115
H           -2.54763708871736        0.46869825628937        0.97400714775566
H           -0.05287594963260       -0.34966083934371        1.89911941956823
H            1.58812876619584       -1.78837575211172       -1.98582814228908
H            2.22254388612766        1.08656563138911        1.57723304966901
20
 energy: -36.157724603950 gnorm: 0.000228014285 xtb: 6.7.1 (edcfbbe)
C            0.84797876713273        1.39014033892895       -0.63002947843664
C            1.59518618910485        0.18297449353294       -0.04770989555999
H            2.57506057523085        0.10487907429700       -0.54203509647420
C            0.78528517941485       -1.10084631796234       -0.33475427461098
H            1.22536908199024       -1.92554245576319        0.24326281238602
C           -0.66433269599956       -0.91784183074300        0.14466368755686
H           -1.26761373567095       -1.75987719795037       -0.21083539979110
C           -1.26127386794751        0.37739518871526       -0.44918631741369
H           -1.31223455539309        0.28993519587777       -1.54596485216777
O           -0.45728817682187        1.49178853305791       -0.10007847603227
O           -2.54001850254938        0.60123848568118        0.00932450084802
O           -0.77272399122914       -0.90310924061625        1.54393215763317
O            0.74973554218075       -1.39061208733836       -1.70889471682576
O            1.75402041657111        0.27037775477133        1.34980506927841
H            0.80441385463657        1.28546599656638       -1.72222150977508
H            1.33883573446751        2.32782546164930       -0.36654494202209
H           -2.54774736493975        0.46708732465953        0.97407496954463
H           -0.05242090914015       -0.35055076972080        1.89927864546218
H            1.58715617360293       -1.79015697655465       -1.98562459397677
H            2.22132602404869        1.08727720593000        1.57748947071373
20
 energy: -36.157724713115 gnorm: 0.000073469821 xtb: 6.7.1 (edcfbbe)
C            0.84794393804504        1.39003593767081       -0.63004141447414
C            1.59514413428960        0.18284814799655       -0.04770366929204
H            2.57500083735234        0.10476129252177       -0.54207029383123
C            0.78518658684671       -1.10092306843012       -0.33479481371951
H            1.22514824660261       -1.92561590611977        0.24336799964238
C           -0.66444922739315       -0.91803336977095        0.14465009814370
H           -1.26772203408557       -1.76012604826452       -0.21071449596927
C           -1.26135000264617        0.37720391080543       -0.44933055872865
H           -1.31272047672451        0.28963083391029       -1.54613436940788
O           -0.45743706006406        1.49154433815334       -0.10034798034623
O           -2.53997946483788        0.60100885055557        0.00951159212849
O           -0.77268692460613       -0.90314815051707        1.54394574309986
O            0.74977837574141       -1.39083653233903       -1.70887042833509
O            1.75399685853615        0.27028434976668        1.34980666474331
H            0.80469270690612        1.28564302645657       -1.72227310006407
H            1.33864851092344        2.32766760499418       -0.36615683992222
H           -2.54719212639262        0.46789794498200        0.97435478566159
H           -0.05272986772880       -0.34990583821819        1.89907637310670
H            1.58784867948957       -1.78913914612039       -1.98574272017138
H            2.22159204843559        1.08704999898542        1.57741918807235
20
 energy: -36.157724657921 gnorm: 0.000167954236 xtb: 6.7.1 (edcfbbe)
C            0.84791376678544        1.38994877012353       -0.63004753016337
C            1.59511405980835        0.18274273605621       -0.04769976146786
H            2.57495276657989        0.10466616230119       -0.54210881734000
C            0.78508304232795       -1.10096814938064       -0.33483721759227
H            1.22492332937473       -1.92565948297106        0.24346020820121
C           -0.66456587771513       -0.91820462388686        0.14464952472532
H           -1.26783027292238       -1.76035407736601       -0.21058773261513
C           -1.26141012540294        0.37702798391810       -0.44947775009579
H           -1.31315028094967        0.28935803876776       -1.54630837942272
O           -0.45757099958463        1.49132131478366       -0.10058898441508
O           -2.53993087915707        0.60077724791389        0.00966827054298
O           -0.77265425142106       -0.90316925195815        1.54397330585807
O            0.74980267924494       -1.39102492243638       -1.70885207484825
O            1.75398771037641        0.27019509181280        1.34980766127031
H            0.80494966686455        1.28582541105351       -1.72231647838118
H            1.33847810023836        2.32752693507288       -0.36578532231825
H           -2.54667834990484        0.46857494073345        0.97458624292628
H           -0.05300753493785       -0.34930633860349        1.89890018385664
H            1.58844889464311       -1.78826240478658       -1.98584339483542
H            2.22185829444154        1.08683279587076        1.57735980645118
20
 energy: -36.157724737757 gnorm: 0.000049561821 xtb: 6.7.1 (edcfbbe)
C            0.84794626053032        1.39001913232096       -0.63008627008866
C            1.59509798008619        0.18283122585279       -0.04765908625872
H            2.57496908355556        0.10477804536002       -0.54199993228098
C            0.78523597451748       -1.10098762829699       -0.33485527822984
H            1.22519000120116       -1.92568364960170        0.24333342287059
C           -0.66442735528936       -0.91810411576111        0.14453944297245
H           -1.26768379836310       -1.76019076165008       -0.21085488953236
C           -1.26139624865439        0.37718709301170       -0.44930481645151
H           -1.31299449413012        0.28961233586971       -1.54610326258322
O           -0.45747090087391        1.49150497193787       -0.10046146013469
O           -2.53996694190110        0.60103593528329        0.00975917560151
O           -0.77268397510196       -0.90329372559005        1.54383634749424
O            0.74996616727069       -1.39078753568514       -1.70895379391268
O            1.75388315266515        0.27033452283438        1.34986057647817
H            0.80482452661341        1.28565415902987       -1.72233470004882
H            1.33860368978610        2.32765032300768       -0.36611514229576
H           -2.54690902162988        0.46829240521602        0.97465318154449
H           -0.05286667324131       -0.34982232729353        1.89896565886482
H            1.58799156349080       -1.78932139324545       -1.98571881186380
H            2.22140474815794        1.08713916441835        1.57745139819144
