
                                 *****************
                                 * O   R   C   A *
                                 *****************

                                            #,                                       
                                            ###                                      
                                            ####                                     
                                            #####                                    
                                            ######                                   
                                           ########,                                 
                                     ,,################,,,,,                         
                               ,,#################################,,                 
                          ,,##########################################,,             
                       ,#########################################, ''#####,          
                    ,#############################################,,   '####,        
                  ,##################################################,,,,####,       
                ,###########''''           ''''###############################       
              ,#####''   ,,,,##########,,,,          '''####'''          '####       
            ,##' ,,,,###########################,,,                        '##       
           ' ,,###''''                  '''############,,,                           
         ,,##''                                '''############,,,,        ,,,,,,###''
      ,#''                                            '''#######################'''  
     '                                                          ''''####''''         
             ,#######,   #######,   ,#######,      ##                                
            ,#'     '#,  ##    ##  ,#'     '#,    #''#        ,####,   ,####,        
            ##       ##  ##   ,#'  ##            #'  '#       #'       #'  '#        
            ##       ##  #######   ##           ,######,      #####,   #    #        
            '#,     ,#'  ##    ##  '#,     ,#' ,#      #,     #,   #   #,  ,#        
             '#######'   ##     ##  '#######'  #'      '#     '####' # '####'        



                #########################################################
                #                        -***-                          #
                #          Department of theory and spectroscopy        #
                #                                                       #
                #                      Frank Neese                      #
                #                                                       #
                #     Directorship, Architecture, Infrastructure        #
                #                    SHARK, DRIVERS                     #
                #        Core code/Algorithms in most modules           #
                #                                                       #
                #        Max Planck Institute fuer Kohlenforschung      #
                #                Kaiser Wilhelm Platz 1                 #
                #                 D-45470 Muelheim/Ruhr                 #
                #                      Germany                          #
                #                                                       #
                #                  All rights reserved                  #
                #                        -***-                          #
                #########################################################


                         Program Version 6.0.0  -   RELEASE  -


 With contributions from (in alphabetic order):
   Daniel Aravena         : Magnetic Suceptibility
   Michael Atanasov       : Ab Initio Ligand Field Theory (pilot matlab implementation)
   Alexander A. Auer      : GIAO ZORA, VPT2 properties, NMR spectrum
   Ute Becker             : All parallelization in ORCA, NUMFREQ, NUMCALC
   Giovanni Bistoni       : ED, misc. LED, open-shell LED, HFLD
   Martin Brehm           : Molecular dynamics
   Dmytro Bykov           : pre 5.0 version of the SCF Hessian
   Marcos Casanova-Páez   : Triplet and SCS-CIS(D). UHF-(DLPNO)-IP/EA/STEOM-CCSD. UHF-CVS-IP/STEOM-CCSD
   Vijay G. Chilkuri      : MRCI spin determinant printing, contributions to CSF-ICE
   Pauline Colinet        : FMM embedding
   Dipayan Datta          : RHF DLPNO-CCSD density
   Achintya Kumar Dutta   : EOM-CC, STEOM-CC
   Nicolas Foglia         : Exact transition moments, OPA infrastructure, MCD improvements
   Dmitry Ganyushin       : Spin-Orbit,Spin-Spin,Magnetic field MRCI
   Miquel Garcia          : C-PCM and meta-GGA Hessian, CCSD/C-PCM, Gaussian charge scheme
   Tiago L. C. Gouveia    : GS-ROHF, GS-ROCIS
   Yang Guo               : DLPNO-NEVPT2, F12-NEVPT2, CIM, IAO-localization
   Andreas Hansen         : Spin unrestricted coupled pair/coupled cluster methods
   Ingolf Harden          : AUTO-CI MPn and infrastructure 
   Benjamin Helmich-Paris : MC-RPA, TRAH-(SCF,CASSCF), AVAS, COSX integrals, SCF dyn. polar.
   Lee Huntington         : MR-EOM, pCC
   Robert Izsak           : Overlap fitted RIJCOSX, COSX-SCS-MP3, EOM
   Riya Kayal             : Wick's Theorem for AUTO-CI, AUTO-CI UHF-CCSDT
   Emily Kempfer          : AUTO-CI, RHF CISDT and CCSDT
   Christian Kollmar      : KDIIS, OOCD, Brueckner-CCSD(T), CCSD density, CASPT2, CASPT2-K, improved NEVPT2
   Axel Koslowski         : Symmetry handling
   Simone Kossmann        : Meta GGA functionals, TD-DFT gradient, OOMP2, (MP2 Hessian; deprecated post 5.0)
   Lucas Lang             : DCDCAS
   Marvin Lechner         : AUTO-CI (C++ implementation), FIC-MRCC
   Spencer Leger          : CASSCF response
   Dagmar Lenk            : GEPOL surface, SMD, ORCA-2-JSON
   Dimitrios Liakos       : Extrapolation schemes; Compound Job, initial MDCI parallelization
   Dimitrios Manganas     : Further ROCIS development; embedding schemes. LFT, Crystal Embedding
   Dimitrios Pantazis     : SARC Basis sets
   Anastasios Papadopoulos: AUTO-CI, single reference methods and gradients
   Taras Petrenko         : pre 6.0 DFT Hessian and TD-DFT gradient, (ASA, deprecated), ECA, 1-Electron XAS/XES, NRVS
   Peter Pinski           : DLPNO-MP2, DLPNO-MP2 Gradient
   Christoph Reimann      : Effective Core Potentials
   Marius Retegan         : Local ZFS, SOC
   Christoph Riplinger    : Optimizer, TS searches, QM/MM, DLPNO-CCSD(T), (RO)-DLPNO pert. Triples
   Michael Roemelt        : Original ROCIS implementation
   Masaaki Saitow         : Open-shell DLPNO-CCSD energy and density
   Barbara Sandhoefer     : DKH picture change effects
   Kantharuban Sivalingam : CASSCF convergence/infrastructure, NEVPT2 and variants, FIC-MRCI
   Bernardo de Souza      : ESD, SOC TD-DFT
   Georgi Stoychev        : AutoAux, RI-MP2 NMR, DLPNO-MP2 response, X2C
   Van Anh Tran           : RI-MP2 g-tensors
   Willem Van den Heuvel  : Paramagnetic NMR
   Zikuan Wang            : NOTCH, Electric field optimization 
   Frank Wennmohs         : Technical directorship and infrastructure
   Hang Xu                : AUTO-CI-Response properties 


 We gratefully acknowledge several colleagues who have allowed us to
 interface, adapt or use parts of their codes:
   Stefan Grimme, W. Hujo, H. Kruse, P. Pracht,  : VdW corrections, initial TS optimization,
                  C. Bannwarth, S. Ehlert,         DFT functionals, gCP, sTDA/sTD-DF
                  L. Wittmann, M. Mueller
   Ed Valeev, F. Pavosevic, A. Kumar             : LibInt (2-el integral package), F12 methods
   Garnet Chan, S. Sharma, J. Yang, R. Olivares  : DMRG
   Ulf Ekstrom                                   : XCFun DFT Library
   Mihaly Kallay                                 : mrcc  (arbitrary order and MRCC methods)
   Frank Weinhold                                : gennbo (NPA and NBO analysis)
   Simon Mueller                                 : openCOSMO-RS
   Christopher J. Cramer and Donald G. Truhlar   : smd solvation model
   Lars Goerigk                                  : TD-DFT with DH, B97 family of functionals
   V. Asgeirsson, H. Jonsson                     : NEB implementation
   FAccTs GmbH                                   : IRC, NEB, NEB-TS, DLPNO-Multilevel, CI-OPT
                                                   MM, QMMM, 2- and 3-layer-ONIOM, Crystal-QMMM,
                                                   LR-CPCM, SF, NACMEs, symmetry and pop. for TD-DFT,
                                                   nearIR, NL-DFT gradient (VV10), updates on ESD,
                                                   ML-optimized integration grids, MBIS, APM,
                                                   GOAT, DOCKER, SOLVATOR, interface openCOSMO-RS
   S Lehtola, MJT Oliveira, MAL Marques          : LibXC Library
   Liviu Ungur et al                             : ANISO software


 Your calculation uses the libint2 library for the computation of 2-el integrals
 For citations please refer to: http://libint.valeyev.net

 Your ORCA version has been built with support for libXC version: 6.2.2
 For citations please refer to: https://libxc.gitlab.io

 This ORCA versions uses:
   CBLAS   interface :  Fast vector & matrix operations
   LAPACKE interface :  Fast linear algebra routines
   SCALAPACK package :  Parallel linear algebra routines
   Shared memory     :  Shared parallel matrices
   BLAS/LAPACK       :  OpenBLAS 0.3.27  USE64BITINT DYNAMIC_ARCH NO_AFFINITY SapphireRapids SINGLE_THREADED
        Core in use  :  SapphireRapids
   Copyright (c) 2011-2014, The OpenBLAS Project


Your calculation utilizes the geometrical counterpoise correction gCP
Please cite in your paper:
H.Kruse, S. Grimme J.Chem.Phys., 136, (2012), 154101 
   

Your calculation utilizes the atom-pairwise dispersion correction
based on EEQ partial charges (D4)


Your calculation utilizes the SMD solvation module
Please cite in your paper:
A.V. Marenich, C.J. Cramer, D.G. Truhlar J. Phys. Chem. B, 113, (2009), 6378 

================================================================================

----- Orbital basis set information -----
Your calculation utilizes the basis: def2-mTZVPP
   Stefan Grimme, Andreas Hansen, Sebastian Ehlert, and Jan-Michael Mewes 
   J. Chem. Phys. 154, 064103 (2021). DOI: 10.1063/5.0040021

----- AuxJ basis set information -----
Your calculation utilizes the auxiliary basis: def2/J
   F. Weigend, Phys. Chem. Chem. Phys. 8, 1057 (2006).

================================================================================
                                        WARNINGS
                       Please study these warnings very carefully!
================================================================================

Using LibXC functional ID 497 : Re-regularized SCAN exchange by Furness et al
[ 1]  J. W. Furness, A. D. Kaplan, J. Ning, J. P. Perdew, and J. Sun.,  J. Phys. Chem. Lett. 11, 8208-8215 (2020)
[ 2]  J. W. Furness, A. D. Kaplan, J. Ning, J. P. Perdew, and J. Sun.,  J. Phys. Chem. Lett. 11, 9248-9248 (2020)
Using LibXC functional ID 498 : Re-regularized SCAN correlation by Furness et al
[ 1]  J. W. Furness, A. D. Kaplan, J. Ning, J. P. Perdew, and J. Sun.,  J. Phys. Chem. Lett. 11, 8208-8215 (2020)
[ 2]  J. W. Furness, A. D. Kaplan, J. Ning, J. P. Perdew, and J. Sun.,  J. Phys. Chem. Lett. 11, 9248-9248 (2020)
Using LibXC functional ID 497 : Re-regularized SCAN exchange by Furness et al
[ 1]  J. W. Furness, A. D. Kaplan, J. Ning, J. P. Perdew, and J. Sun.,  J. Phys. Chem. Lett. 11, 8208-8215 (2020)
[ 2]  J. W. Furness, A. D. Kaplan, J. Ning, J. P. Perdew, and J. Sun.,  J. Phys. Chem. Lett. 11, 9248-9248 (2020)
Using LibXC functional ID 498 : Re-regularized SCAN correlation by Furness et al
[ 1]  J. W. Furness, A. D. Kaplan, J. Ning, J. P. Perdew, and J. Sun.,  J. Phys. Chem. Lett. 11, 8208-8215 (2020)
[ 2]  J. W. Furness, A. D. Kaplan, J. Ning, J. P. Perdew, and J. Sun.,  J. Phys. Chem. Lett. 11, 9248-9248 (2020)

================================================================================
                                       INPUT FILE
================================================================================
NAME = sp_solv.inp
|  1> ! r2scan-3c def2/J RI DEFGRID2 scfconv6 printgap
|  2> %output
|  3>     printlevel normal
|  4> end
|  5> %cpcm
|  6>     smd true
|  7>     smdsolvent "water"
|  8> end
|  9> * xyz 0 1
| 10> C -3.9806698277 -0.6950194865 0.0009850252
| 11> C -3.9806802376 0.6950062742 0.0016968114
| 12> C -2.784932151 1.3826232228 0.0011738833
| 13> C -1.5685323929 0.6986279268 -1.46217e-05
| 14> C -1.5685196902 -0.6986060669 -0.0006140782
| 15> C -2.7849123316 -1.3826239966 -0.0002451682
| 16> C -0.3138949593 -1.4613323662 -0.0011388879
| 17> O -0.3655465831 -2.7101400524 -0.0021317242
| 18> C 0.9229922217 -0.7159126692 -0.000201829
| 19> C 2.1536783197 -1.4160277395 0.0005145663
| 20> C 3.3681287995 -0.6768673955 0.0014565463
| 21> C 3.3681289003 0.6768455184 0.0011675531
| 22> C 2.1536889795 1.4160125676 8.53152e-05
| 23> C 0.9229783491 0.7159161851 -0.0003013779
| 24> C -0.3139061642 1.4613556561 -0.000731027
| 25> O -0.3655328294 2.7101615891 -0.0015219328
| 26> N 2.2271852365 2.752427993 -0.000621056
| 27> N 2.2271475569 -2.7524473152 0.0010019435
| 28> H -4.9142881584 -1.2360590619 0.0012436969
| 29> H -4.9143035804 1.2360301529 0.0028496067
| 30> H -2.7583037225 2.4625887566 0.0017728132
| 31> H -2.7582927635 -2.4625920911 -0.0007605474
| 32> H 4.2974235709 -1.2257055829 0.0023322351
| 33> H 4.2974301519 1.2256825684 0.0016093274
| 34> H 3.1235138912 3.206194024 -0.000131878
| 35> H 1.3590887369 3.2751684977 -0.0012496553
| 36> H 1.3590070773 -3.2751171173 -0.0006691367
| 37> H 3.1234544366 -3.2062352658 3.46453e-05
| 38> *
| 39> 
| 40>                          ****END OF INPUT****
================================================================================

                       ****************************
                       * Single Point Calculation *
                       ****************************

---------------------------------
CARTESIAN COORDINATES (ANGSTROEM)
---------------------------------
  C     -3.980670   -0.695019    0.000985
  C     -3.980680    0.695006    0.001697
  C     -2.784932    1.382623    0.001174
  C     -1.568532    0.698628   -0.000015
  C     -1.568520   -0.698606   -0.000614
  C     -2.784912   -1.382624   -0.000245
  C     -0.313895   -1.461332   -0.001139
  O     -0.365547   -2.710140   -0.002132
  C      0.922992   -0.715913   -0.000202
  C      2.153678   -1.416028    0.000515
  C      3.368129   -0.676867    0.001457
  C      3.368129    0.676846    0.001168
  C      2.153689    1.416013    0.000085
  C      0.922978    0.715916   -0.000301
  C     -0.313906    1.461356   -0.000731
  O     -0.365533    2.710162   -0.001522
  N      2.227185    2.752428   -0.000621
  N      2.227148   -2.752447    0.001002
  H     -4.914288   -1.236059    0.001244
  H     -4.914304    1.236030    0.002850
  H     -2.758304    2.462589    0.001773
  H     -2.758293   -2.462592   -0.000761
  H      4.297424   -1.225706    0.002332
  H      4.297430    1.225683    0.001609
  H      3.123514    3.206194   -0.000132
  H      1.359089    3.275168   -0.001250
  H      1.359007   -3.275117   -0.000669
  H      3.123454   -3.206235    0.000035

----------------------------
CARTESIAN COORDINATES (A.U.)
----------------------------
  NO LB      ZA    FRAG     MASS         X           Y           Z
   0 C     6.0000    0    12.011   -7.522376   -1.313396    0.001861
   1 C     6.0000    0    12.011   -7.522395    1.313372    0.003207
   2 C     6.0000    0    12.011   -5.262759    2.612779    0.002218
   3 C     6.0000    0    12.011   -2.964097    1.320215   -0.000028
   4 C     6.0000    0    12.011   -2.964073   -1.320174   -0.001160
   5 C     6.0000    0    12.011   -5.262722   -2.612781   -0.000463
   6 C     6.0000    0    12.011   -0.593176   -2.761518   -0.002152
   7 O     8.0000    0    15.999   -0.690783   -5.121422   -0.004028
   8 C     6.0000    0    12.011    1.744203   -1.352879   -0.000381
   9 C     6.0000    0    12.011    4.069862   -2.675905    0.000972
  10 C     6.0000    0    12.011    6.364841   -1.279094    0.002752
  11 C     6.0000    0    12.011    6.364841    1.279053    0.002206
  12 C     6.0000    0    12.011    4.069882    2.675876    0.000161
  13 C     6.0000    0    12.011    1.744176    1.352886   -0.000570
  14 C     6.0000    0    12.011   -0.593197    2.761562   -0.001381
  15 O     8.0000    0    15.999   -0.690757    5.121463   -0.002876
  16 N     7.0000    0    14.007    4.208770    5.201335   -0.001174
  17 N     7.0000    0    14.007    4.208699   -5.201372    0.001893
  18 H     1.0000    0     1.008   -9.286659   -2.335813    0.002350
  19 H     1.0000    0     1.008   -9.286688    2.335758    0.005385
  20 H     1.0000    0     1.008   -5.212439    4.653618    0.003350
  21 H     1.0000    0     1.008   -5.212418   -4.653625   -0.001437
  22 H     1.0000    0     1.008    8.120954   -2.316248    0.004407
  23 H     1.0000    0     1.008    8.120966    2.316204    0.003041
  24 H     1.0000    0     1.008    5.902586    6.058829   -0.000249
  25 H     1.0000    0     1.008    2.568306    6.189172   -0.002362
  26 H     1.0000    0     1.008    2.568151   -6.189074   -0.001264
  27 H     1.0000    0     1.008    5.902473   -6.058907    0.000065

--------------------------------
INTERNAL COORDINATES (ANGSTROEM)
--------------------------------
 C      0   0   0     0.000000000000     0.00000000     0.00000000
 C      1   0   0     1.390025942980     0.00000000     0.00000000
 C      2   1   0     1.379358846734   119.90067858     0.00000000
 C      3   2   1     1.395521174687   120.74934089     0.00000000
 C      4   3   2     1.397234122350   119.35006890     0.00000000
 C      1   2   3     1.379361252597   119.90092630     0.00000000
 C      5   4   3     1.468276165595   121.29727500   180.03313661
 O      7   5   4     1.249875799061   118.92830931   180.02436525
 C      7   5   4     1.444140332958   117.62763150     0.03636342
 C      9   7   5     1.415891908549   119.28964952   179.94504131
 C     10   9   7     1.421706323175   119.03897582   180.00096022
 C     11  10   9     1.353712944747   121.32625628   359.97465700
 C     12  11  10     1.421700889461   121.32671776     0.00000000
 C     13  12  11     1.415903863297   119.03966422     0.00000000
 C     14  13  12     1.444148014839   119.29006316   179.96956844
 O     15  14  13     1.249872872090   123.44363293     0.04057151
 N     13  12  11     1.338435051842   118.17892061   180.02316581
 N     10   9   7     1.338437614783   122.78142022   359.96748803
 H      1   2   3     1.079058421254   120.09220553   180.00905139
 H      2   1   3     1.079055472384   120.09223551   180.01181648
 H      3   2   1     1.080293935055   121.31354613   180.00406050
 H      6   1   2     1.080296233521   121.31246293   179.99645039
 H     11  10   9     1.079264979016   118.10780040   179.97965396
 H     12  11  10     1.079269715522   120.56571569   180.01742434
 H     17  13  12     1.004643671866   119.99858429     0.00000000
 H     17  13  12     1.013335858938   117.90722989   180.00907616
 H     18  10   9     1.013338248985   117.90359373     0.09691942
 H     18  10   9     1.004634491929   119.99908067   179.90320959

---------------------------
INTERNAL COORDINATES (A.U.)
---------------------------
 C      0   0   0     0.000000000000     0.00000000     0.00000000
 C      1   0   0     2.626768351278     0.00000000     0.00000000
 C      2   1   0     2.606610460729   119.90067858     0.00000000
 C      3   2   1     2.637152834247   120.74934089     0.00000000
 C      4   3   2     2.640389836212   119.35006890     0.00000000
 C      1   2   3     2.606615007150   119.90092630     0.00000000
 C      5   4   3     2.774639841939   121.29727500   180.03313661
 O      7   5   4     2.361922961640   118.92830931   180.02436525
 C      7   5   4     2.729029728241   117.62763150     0.03636342
 C      9   7   5     2.675647942392   119.28964952   179.94504131
 C     10   9   7     2.686635593664   119.03897582   180.00096022
 C     11  10   9     2.558146729517   121.32625628   359.97465700
 C     12  11  10     2.686625325434   121.32671776     0.00000000
 C     13  12  11     2.675670533593   119.03966422     0.00000000
 C     14  13  12     2.729044244892   119.29006316   179.96956844
 O     15  14  13     2.361917430469   123.44363293     0.04057151
 N     13  12  11     2.529275696023   118.17892061   180.02316581
 N     10   9   7     2.529280539278   122.78142022   359.96748803
 H      1   2   3     2.039124898671   120.09220553   180.00905139
 H      2   1   3     2.039119326115   120.09223551   180.01181648
 H      3   2   1     2.041459681391   121.31354613   180.00406050
 H      6   1   2     2.041464024861   121.31246293   179.99645039
 H     11  10   9     2.039515236273   118.10780040   179.97965396
 H     12  11  10     2.039524186971   120.56571569   180.01742434
 H     17  13  12     1.898501402004   119.99858429     0.00000000
 H     17  13  12     1.914927255074   117.90722989   180.00907616
 H     18  10   9     1.914931771609   117.90359373     0.09691942
 H     18  10   9     1.898484054437   119.99908067   179.90320959

---------------------
BASIS SET INFORMATION
---------------------
There are 4 groups of distinct atoms

 Group   1 Type C   : 11s6p1d contracted to 5s3p1d pattern {62111/411/1}
 Group   2 Type O   : 11s6p2d contracted to 5s3p2d pattern {62111/411/11}
 Group   3 Type N   : 11s6p2d contracted to 5s3p2d pattern {62111/411/11}
 Group   4 Type H   : 4s1p contracted to 2s1p pattern {31/1}

Atom   0C    basis set group =>   1
Atom   1C    basis set group =>   1
Atom   2C    basis set group =>   1
Atom   3C    basis set group =>   1
Atom   4C    basis set group =>   1
Atom   5C    basis set group =>   1
Atom   6C    basis set group =>   1
Atom   7O    basis set group =>   2
Atom   8C    basis set group =>   1
Atom   9C    basis set group =>   1
Atom  10C    basis set group =>   1
Atom  11C    basis set group =>   1
Atom  12C    basis set group =>   1
Atom  13C    basis set group =>   1
Atom  14C    basis set group =>   1
Atom  15O    basis set group =>   2
Atom  16N    basis set group =>   3
Atom  17N    basis set group =>   3
Atom  18H    basis set group =>   4
Atom  19H    basis set group =>   4
Atom  20H    basis set group =>   4
Atom  21H    basis set group =>   4
Atom  22H    basis set group =>   4
Atom  23H    basis set group =>   4
Atom  24H    basis set group =>   4
Atom  25H    basis set group =>   4
Atom  26H    basis set group =>   4
Atom  27H    basis set group =>   4
---------------------------------
AUXILIARY/J BASIS SET INFORMATION
---------------------------------
There are 4 groups of distinct atoms

 Group   1 Type C   : 12s5p4d2f1g contracted to 6s4p3d1f1g pattern {711111/2111/211/2/1}
 Group   2 Type O   : 12s5p4d2f1g contracted to 6s4p3d1f1g pattern {711111/2111/211/2/1}
 Group   3 Type N   : 12s5p4d2f1g contracted to 6s4p3d1f1g pattern {711111/2111/211/2/1}
 Group   4 Type H   : 5s2p1d contracted to 3s1p1d pattern {311/2/1}

Atom   0C    basis set group =>   1
Atom   1C    basis set group =>   1
Atom   2C    basis set group =>   1
Atom   3C    basis set group =>   1
Atom   4C    basis set group =>   1
Atom   5C    basis set group =>   1
Atom   6C    basis set group =>   1
Atom   7O    basis set group =>   2
Atom   8C    basis set group =>   1
Atom   9C    basis set group =>   1
Atom  10C    basis set group =>   1
Atom  11C    basis set group =>   1
Atom  12C    basis set group =>   1
Atom  13C    basis set group =>   1
Atom  14C    basis set group =>   1
Atom  15O    basis set group =>   2
Atom  16N    basis set group =>   3
Atom  17N    basis set group =>   3
Atom  18H    basis set group =>   4
Atom  19H    basis set group =>   4
Atom  20H    basis set group =>   4
Atom  21H    basis set group =>   4
Atom  22H    basis set group =>   4
Atom  23H    basis set group =>   4
Atom  24H    basis set group =>   4
Atom  25H    basis set group =>   4
Atom  26H    basis set group =>   4
Atom  27H    basis set group =>   4

Checking for AutoStart:
The File: sp_solv.gbw exists
Trying to determine its content:
     ... Fine, the file contains calculation information
     ... Fine, the calculation information was read
     ... Fine, the file contains a basis set
     ... Fine, the basis set was read
     ... Fine, the file contains a geometry
     ... Fine, the geometry was read
     ... Fine, the file contains a set of orbitals
     ... Fine, the orbitals can be read
     => possible old guess file was deleted
     => GBW file was renamed to GES file
     => GES file is set as startup file
     => Guess is set to MORead
     ... now leaving AutoStart

------------------------------------------------------------------------------
                             ORCA STARTUP CALCULATIONS
                           -- RI-GTO INTEGRALS CHOSEN --
------------------------------------------------------------------------------
------------------------------------------------------------------------------
                   ___                                                        
                  /   \      - P O W E R E D   B Y -                         
                 /     \                                                     
                 |  |  |   _    _      __       _____    __    __             
                 |  |  |  | |  | |    /  \     |  _  \  |  |  /  |          
                  \  \/   | |  | |   /    \    | | | |  |  | /  /          
                 / \  \   | |__| |  /  /\  \   | |_| |  |  |/  /          
                |  |  |   |  __  | /  /__\  \  |    /   |      \           
                |  |  |   | |  | | |   __   |  |    \   |  |\   \          
                \     /   | |  | | |  |  |  |  | |\  \  |  | \   \       
                 \___/    |_|  |_| |__|  |__|  |_| \__\ |__|  \__/        
                                                                              
                      - O R C A' S   B I G   F R I E N D -                    
                                      &                                       
                       - I N T E G R A L  F E E D E R -                       
                                                                              
 v1 FN, 2020, v2 2021, v3 2022-2024                                           
------------------------------------------------------------------------------


----------------------
SHARK INTEGRAL PACKAGE
----------------------

Number of atoms                             ...     28
Number of basis functions                   ...    412
Number of shells                            ...    196
Maximum angular momentum                    ...      2
Integral batch strategy                     ... SHARK/LIBINT Hybrid
RI-J (if used) integral strategy            ... SPLIT-RIJ (Revised 2003 algorithm where possible)
Printlevel                                  ...      1
Contraction scheme used                     ... SEGMENTED contraction
Prescreening option                         ... SCHWARTZ
   Thresh                                   ... 1.000e-10
   Tcut                                     ... 1.000e-11
   Tpresel                                  ... 1.000e-11 
Coulomb Range Separation                    ... NOT USED
Exchange Range Separation                   ... NOT USED
Multipole approximations                    ... NOT USED
Finite Nucleus Model                        ... NOT USED
CABS basis                                  ... NOT available
Auxiliary Coulomb fitting basis             ... AVAILABLE
   # of basis functions in Aux-J            ...    992
   # of shells in Aux-J                     ...    320
   Maximum angular momentum in Aux-J        ...      4
Auxiliary J/K fitting basis                 ... NOT available
Auxiliary Correlation fitting basis         ... NOT available
Auxiliary 'external' fitting basis          ... NOT available

Checking pre-screening integrals            ... done (  0.0 sec) Dimension = 196
Check shell pair data                       ... done (  0.0 sec)
Shell pair information
Shell pair cut-off parameter TPreSel        ...   1.0e-11
Total number of shell pairs                 ...     19306
Shell pairs after pre-screening             ...     14976
Total number of primitive shell pairs       ...     72057
Primitive shell pairs kept                  ...     36210
          la=0 lb=0:   4432 shell pairs
          la=1 lb=0:   5614 shell pairs
          la=1 lb=1:   1767 shell pairs
          la=2 lb=0:   1806 shell pairs
          la=2 lb=1:   1152 shell pairs
          la=2 lb=2:    205 shell pairs

Calculating one electron integrals          ... done (  0.1 sec)
Calculating RI/J V-Matrix + Cholesky decomp.... done (  0.4 sec)
Calculating Nuclear repulsion               ... done (  0.0 sec) ENN=   1243.556074767587 Eh

Diagonalization of the overlap matrix:
Smallest eigenvalue                        ... 5.620e-06
Time for diagonalization                   ...    0.014 sec
Threshold for overlap eigenvalues          ... 1.000e-07
Number of eigenvalues below threshold      ... 0
Time for construction of square roots      ...    0.025 sec
Total time needed                          ...    0.145 sec

-------------------
DFT GRID GENERATION
-------------------

General Integration Accuracy     IntAcc      ... 4.388
Radial Grid Type                 RadialGrid  ... OptM3 with GC (2021)
Angular Grid (max. ang.)         AngularGrid ... 4 (Lebedev-302)
Angular grid pruning method      GridPruning ... 4 (adaptive)
Weight generation scheme         WeightScheme... mBecke (2022)
Basis function cutoff            BFCut       ... 1.0000e-10
Integration weight cutoff        WCut        ... 1.0000e-14
Partially contracted basis set               ... off
Rotationally invariant grid construction     ... off
Angular grids for H and He will be reduced by one unit
Diffuse basis detected: some atoms will have their outermost
                        angular grid increased by 1.

Total number of grid points                  ...   139995
Total number of batches                      ...     2204
Average number of points per batch           ...       63
Average number of grid points per atom       ...     5000
Initializing property integral containers    ... done (  0.0 sec)

SHARK setup successfully completed in   4.7 seconds

Maximum memory used throughout the entire STARTUP-calculation: 72.1 MB
-------------------------------------------------------------------------------
                                 ORCA GUESS
                   Start orbitals & Density for SCF / CASSCF
-------------------------------------------------------------------------------

------------
SCF SETTINGS
------------
Hamiltonian:
 Density Functional     Method          .... DFT(GTOs)
  Functional kind                       .... Exchange
  Functional name                       .... Re-regularized SCAN exchange by Furness et al
  Functional family                     .... MGGA
  Functional refs                              
    [ 0] J. W. Furness, A. D. Kaplan, J. Ning, J. P. Perdew, and J. Sun.,  J. Phys. Chem. Lett. 11, 8208-8215 (2020), doi: 10.1021/acs.jpclett.0c02405
    [ 1] J. W. Furness, A. D. Kaplan, J. Ning, J. P. Perdew, and J. Sun.,  J. Phys. Chem. Lett. 11, 9248-9248 (2020), doi: 10.1021/acs.jpclett.0c03077
  Functional external parameters        .... 6
    Parameter  0 _c1        =  6.670000e-01 : c1 parameter        
    Parameter  1 _c2        =  8.000000e-01 : c2 parameter        
    Parameter  2 _d         =  1.240000e+00 : d parameter         
    Parameter  3 _k1        =  6.500000e-02 : k1 parameter        
    Parameter  4 _eta       =  1.000000e-03 : eta parameter       
    Parameter  5 _dp2       =  3.610000e-01 : dp2 parameter       
  Functional kind                       .... Correlation
  Functional name                       .... Re-regularized SCAN correlation by Furness et al
  Functional family                     .... MGGA
  Functional refs                              
    [ 0] J. W. Furness, A. D. Kaplan, J. Ning, J. P. Perdew, and J. Sun.,  J. Phys. Chem. Lett. 11, 8208-8215 (2020), doi: 10.1021/acs.jpclett.0c02405
    [ 1] J. W. Furness, A. D. Kaplan, J. Ning, J. P. Perdew, and J. Sun.,  J. Phys. Chem. Lett. 11, 9248-9248 (2020), doi: 10.1021/acs.jpclett.0c03077
  Functional external parameters        .... 1
    Parameter  0 _eta       =  1.000000e-03 : Regularization parameter
 Gradients option       PostSCFGGA      .... off
 RI-approximation to the Coulomb term is turned on
   Number of AuxJ basis functions       .... 992


General Settings:
 Integral files         IntName         .... sp_solv
 Hartree-Fock type      HFTyp           .... RHF
 Total Charge           Charge          ....    0
 Multiplicity           Mult            ....    1
 Number of Electrons    NEL             ....  124
 Basis Dimension        Dim             ....  412
 Nuclear Repulsion      ENuc            ....   1243.5560747676 Eh

Convergence Acceleration:
 AO-DIIS                CNVDIIS         .... on
   Start iteration      DIISMaxIt       ....    12
   Startup error        DIISStart       ....  0.200000
   # of expansion vecs  DIISMaxEq       ....     5
   Bias factor          DIISBfac        ....   1.050
   Max. coefficient     DIISMaxC        ....  10.000
 MO-DIIS                CNVKDIIS        .... off
 Trust-Rad. Augm. Hess. CNVTRAH         .... auto
   Auto Start mean grad. ratio tolernc. ....  1.125000
   Auto Start start iteration           ....     1
   Auto Start num. interpolation iter.  ....    10
   Max. Number of Micro iterations      ....    24
   Max. Number of Macro iterations      .... Maxiter - #DIIS iter
   Number of Davidson start vectors     ....     2
   Converg. threshold    (grad. norm)   ....   3.330e-04
   Grad. Scal. Fac. for Micro threshold ....   0.100
   Minimum threshold for Micro iter.    ....   1.000e-02
   NR start threshold (gradient norm)   ....   1.000e-04
   Initial trust radius                 ....   0.400
   Minimum AH scaling param. (alpha)    ....   1.000
   Maximum AH scaling param. (alpha)    .... 1000.000
   Quad. conv. algorithm                .... NR
   White noise on init. David. guess    .... on
   Maximum white noise                  ....   0.010
   Pseudo random numbers                .... off
   Inactive MOs                         .... canonical
   Orbital update algorithm             .... Taylor
   Preconditioner                       .... Diag
   Full preconditioner red. dimension   ....   250
   COSX micro iterations for RIJONX calc.... off
 SOSCF                  CNVSOSCF        .... on
   Start iteration      SOSCFMaxIt      ....   150
   Startup grad/error   SOSCFStart      ....  0.003300
   Hessian update       SOSCFHessUp     .... L-BFGS
 Level Shifting         CNVShift        .... on
   Level shift para.    LevelShift      ....    0.2500
   Turn off err/grad.   ShiftErr        ....    0.0010
 Zerner damping         CNVZerner       .... off
 Static damping         CNVDamp         .... on
   Fraction old density DampFac         ....    0.7000
   Max. Damping (<1)    DampMax         ....    0.9800
   Min. Damping (>=0)   DampMin         ....    0.0000
   Turn off err/grad.   DampErr         ....    0.1000

SCF Procedure:
 Maximum # iterations   MaxIter         ....   125
 SCF integral mode      SCFMode         .... Direct
   Integral package                     .... SHARK and LIBINT hybrid scheme
 Reset frequency        DirectResetFreq ....    20
 Integral Threshold     Thresh          ....  1.000e-10 Eh
 Primitive CutOff       TCut            ....  1.000e-11 Eh

Convergence Tolerance:
 Convergence Check Mode ConvCheckMode   .... Total+1el-Energy
 Convergence forced     ConvForced      .... 0
 Energy Change          TolE            ....  1.000e-06 Eh
 1-El. energy change                    ....  1.000e-03 Eh
 Orbital Gradient       TolG            ....  3.330e-04
 Orbital Rotation angle TolX            ....  3.330e-04
 DIIS Error             TolErr          ....  1.000e-06

---------------------
INITIAL GUESS: MOREAD
---------------------
Guess MOs are being read from file: sp_solv.ges
Input Geometry matches current geometry (good)
Atom 0: N(Shells)= 9 and 6 - projection required
Input basis set needs projection
NBasis(read)= 272
NBasis(calc)= 412
Basis set overlap was calculated
Using GuessMode=FMatrix for the initial guess
C*T matrix was formed
Effective Fockian was calculated
Effective Fockian was diagonalized
Initial density was built
                      ------------------
                      INITIAL GUESS DONE (   0.2 sec)
                      ------------------
             **** ENERGY FILE WAS UPDATED (sp_solv.en.tmp) ****
Finished Guess after   1.4 sec
Maximum memory used throughout the entire GUESS-calculation: 40.3 MB

-------------------------------------------------------------------------------------------
                                      ORCA LEAN-SCF
                              memory conserving SCF solver
-------------------------------------------------------------------------------------------

--------------------
CPCM SOLVATION MODEL
--------------------
CPCM parameters:
  Epsilon                                         ...      78.3550
  Refrac                                          ...       1.3328
  Rsolv                                           ...       1.3000
  Surface type                                    ... GAUSSIAN VDW
  Discretization scheme                           ... Constant charge density
    Threshold for H atoms                         ...       5.0000 (charges/Ang^2)
    Threshold for non-H atoms                     ...       5.0000 (charges/Ang^2)
  Epsilon function type                           ...         CPCM
Solvent:                                          ... WATER
SMD-CDS solvent descriptors:
  Soln                                            ...       1.3328
  Soln25                                          ...       1.3323
  Sola                                            ...       0.0000
  Solb                                            ...       0.0000
  Solg                                            ...       0.0000
  Solc                                            ...       0.0000
  Solh                                            ...       0.0000
Radii:
  Scheme                                          ... Element-dependent radii
  Radius for C  used is    3.4960 Bohr (=   1.8500 Ang.)
  Radius for O  used is    2.8724 Bohr (=   1.5200 Ang.)
  Radius for N  used is    3.5716 Bohr (=   1.8900 Ang.)
  Radius for H  used is    2.2677 Bohr (=   1.2000 Ang.)
Calculating surface                               ...        done! (  0.0s)
Cavity surface points                             ...         2053
Cavity Volume                                     ...    1524.3491
Cavity Surface-area                               ...     839.5221
Calculating surface distance matrix               ...        done! (  0.0s)
Performing Cholesky decomposition & store         ...        done! (  1.0s)
Overall time for CPCM initialization              ...                 1.0s

----------------------------------------D-I-I-S--------------------------------------------
Iteration    Energy (Eh)           Delta-E    RMSDP     MaxDP     DIISErr   Damp  Time(sec)
-------------------------------------------------------------------------------------------
               ***  Starting incremental Fock matrix formation  ***
    1    -798.9902808540418846     0.00e+00  3.84e-02  2.05e+00  6.26e-01  0.700  11.7
Warning: op=0 Small HOMO/LUMO gap (   0.053) - skipping pre-diagonalization
         Will do a full diagonalization
    2    -799.1031795845995020    -1.13e-01  2.85e-02  1.48e+00  4.41e-01  0.700   9.2
    3    -799.1832765689518965    -8.01e-02  1.99e-02  1.04e+00  3.10e-01  0.700  10.7
    4    -799.2394608439244621    -5.62e-02  1.39e-02  7.30e-01  2.17e-01  0.700   8.6
                               ***Turning on AO-DIIS***
    5    -799.2788934220993724    -3.94e-02  9.74e-03  5.13e-01  1.52e-01  0.700   9.7
    6    -799.3065239426732660    -2.76e-02  6.82e-03  3.60e-01  1.06e-01  0.700   8.0
    7    -799.3259243350812540    -1.94e-02  4.78e-03  2.52e-01  7.41e-02  0.700   9.1
    8    -799.3395247702342203    -1.36e-02  1.12e-02  5.89e-01  5.21e-02  0.000   9.8
                              *** Initializing SOSCF ***
---------------------------------------S-O-S-C-F--------------------------------------
Iteration    Energy (Eh)           Delta-E    RMSDP     MaxDP     MaxGrad    Time(sec)
--------------------------------------------------------------------------------------
    9    -799.3713113425662868    -3.18e-02  1.31e-04  6.63e-03  5.07e-04     9.5
               *** Restarting incremental Fock matrix formation ***
   10    -799.3713124555508784    -1.11e-06  1.44e-04  1.14e-02  4.97e-04     9.7
   11    -799.3712980300117579     1.44e-05  9.53e-05  5.29e-03  9.29e-04     8.3
   12    -799.3713168359670362    -1.88e-05  6.12e-05  3.26e-03  4.95e-05     8.3
                  *** Gradient check signals convergence ***

               *****************************************************
               *                     SUCCESS                       *
               *           SCF CONVERGED AFTER  12 CYCLES          *
               *****************************************************


SMD CDS free energy correction energy :                 5.12983     Kcal/mol
Total Energy after SMD CDS correction =              -799.363141935 Eh
             **** ENERGY FILE WAS UPDATED (sp_solv.en.tmp) ****

----------------
TOTAL SCF ENERGY
----------------

Total Energy       :       -799.36314193524174 Eh          -21751.77693 eV

Components:
Nuclear Repulsion  :       1243.55607476758723 Eh           33838.88113 eV
Electronic Energy  :      -2042.88961270276923 Eh          -55589.85250 eV
One Electron Energy:      -3556.59271489752837 Eh          -96779.80796 eV
Two Electron Energy:       1513.70310219475914 Eh           41189.95547 eV
CPCM Dielectric    :         -0.03777890078498 Eh              -1.02802 eV
SMD CDS (Gcds)     :          0.00817490072534 Eh               0.22245 eV

Virial components:
Potential Energy   :      -1595.67501464741963 Eh          -43420.52461 eV
Kinetic Energy     :        796.31187271217789 Eh           21668.74767 eV
Virial Ratio       :          2.00383175151297

DFT components:
N(Alpha)           :       62.000029746342 electrons
N(Beta)            :       62.000029746342 electrons
N(Total)           :      124.000059492685 electrons
E(X)               :     -106.478677819269 Eh       
E(C)               :       -4.116544397555 Eh       
E(XC)              :     -110.595222216824 Eh       

CPCM Solvation Model Properties:
Surface-charge          :         -0.04701614004877
Corrected charge        :         -0.00000000000000
Outlying charge corr.   :          0.00013816401699 Eh               0.00376 eV
Free-energy (cav+disp)  :          0.00817490072534 Eh               0.22245 eV

---------------
SCF CONVERGENCE
---------------

  Last Energy change         ...    1.8806e-05  Tolerance :   1.0000e-06
  Last MAX-Density change    ...    3.2584e-03  Tolerance :   1.0000e-05
  Last RMS-Density change    ...    6.1177e-05  Tolerance :   1.0000e-06
  Last DIIS Error            ...    5.0688e-04  Tolerance :   1.0000e-06
  Last Orbital Gradient      ...    4.9496e-05  Tolerance :   3.3300e-04
  Last Orbital Rotation      ...    2.8011e-04  Tolerance :   3.3300e-04


----------------
ORBITAL ENERGIES
----------------

  NO   OCC          E(Eh)            E(eV) 
   0   2.0000     -18.933049      -515.1945 
   1   2.0000     -18.933044      -515.1943 
   2   2.0000     -14.176927      -385.7738 
   3   2.0000     -14.176923      -385.7737 
   4   2.0000     -10.115013      -275.2435 
   5   2.0000     -10.115001      -275.2432 
   6   2.0000     -10.098755      -274.8011 
   7   2.0000     -10.098746      -274.8009 
   8   2.0000     -10.053219      -273.5620 
   9   2.0000     -10.052605      -273.5453 
  10   2.0000     -10.051145      -273.5056 
  11   2.0000     -10.050731      -273.4943 
  12   2.0000     -10.049733      -273.4671 
  13   2.0000     -10.049429      -273.4589 
  14   2.0000     -10.043782      -273.3052 
  15   2.0000     -10.043366      -273.2939 
  16   2.0000     -10.042466      -273.2694 
  17   2.0000     -10.042452      -273.2690 
  18   2.0000      -0.999561       -27.1994 
  19   2.0000      -0.997045       -27.1310 
  20   2.0000      -0.912055       -24.8183 
  21   2.0000      -0.902486       -24.5579 
  22   2.0000      -0.843429       -22.9509 
  23   2.0000      -0.811169       -22.0730 
  24   2.0000      -0.768750       -20.9187 
  25   2.0000      -0.731272       -19.8989 
  26   2.0000      -0.727335       -19.7918 
  27   2.0000      -0.701797       -19.0969 
  28   2.0000      -0.647051       -17.6071 
  29   2.0000      -0.624423       -16.9914 
  30   2.0000      -0.610792       -16.6205 
  31   2.0000      -0.572257       -15.5719 
  32   2.0000      -0.549518       -14.9532 
  33   2.0000      -0.534120       -14.5341 
  34   2.0000      -0.527828       -14.3629 
  35   2.0000      -0.499401       -13.5894 
  36   2.0000      -0.486051       -13.2261 
  37   2.0000      -0.462094       -12.5742 
  38   2.0000      -0.461990       -12.5714 
  39   2.0000      -0.444071       -12.0838 
  40   2.0000      -0.431879       -11.7520 
  41   2.0000      -0.421539       -11.4707 
  42   2.0000      -0.418036       -11.3753 
  43   2.0000      -0.403004       -10.9663 
  44   2.0000      -0.400029       -10.8853 
  45   2.0000      -0.396451       -10.7880 
  46   2.0000      -0.385224       -10.4825 
  47   2.0000      -0.376075       -10.2335 
  48   2.0000      -0.376006       -10.2316 
  49   2.0000      -0.367917       -10.0115 
  50   2.0000      -0.349557        -9.5119 
  51   2.0000      -0.335338        -9.1250 
  52   2.0000      -0.334763        -9.1094 
  53   2.0000      -0.327853        -8.9213 
  54   2.0000      -0.316749        -8.6192 
  55   2.0000      -0.263372        -7.1667 
  56   2.0000      -0.256332        -6.9751 
  57   2.0000      -0.246473        -6.7069 
  58   2.0000      -0.244966        -6.6659 
  59   2.0000      -0.233963        -6.3665 
  60   2.0000      -0.223035        -6.0691 
  61   2.0000      -0.176203        -4.7947 
  62   0.0000      -0.120834        -3.2881 
  63   0.0000      -0.073280        -1.9940 
  64   0.0000      -0.046434        -1.2635 
  65   0.0000      -0.016093        -0.4379 
  66   0.0000       0.028578         0.7776 
  67   0.0000       0.041523         1.1299 
  68   0.0000       0.071391         1.9427 
  69   0.0000       0.087138         2.3711 
  70   0.0000       0.097813         2.6616 
  71   0.0000       0.098290         2.6746 
  72   0.0000       0.116358         3.1663 
*Only the first 10 virtual orbitals were printed.

                    ********************************
                    * MULLIKEN POPULATION ANALYSIS *
                    ********************************

-----------------------
MULLIKEN ATOMIC CHARGES
-----------------------
   0 C :   -0.172593
   1 C :   -0.172582
   2 C :   -0.263965
   3 C :    0.171712
   4 C :    0.171664
   5 C :   -0.263943
   6 C :    0.002676
   7 O :   -0.529216
   8 C :   -0.071674
   9 C :    0.515815
  10 C :   -0.375894
  11 C :   -0.375892
  12 C :    0.515776
  13 C :   -0.071510
  14 C :    0.002599
  15 O :   -0.529199
  16 N :   -0.486459
  17 N :   -0.486461
  18 H :    0.182026
  19 H :    0.182026
  20 H :    0.194065
  21 H :    0.194066
  22 H :    0.190471
  23 H :    0.190470
  24 H :    0.307921
  25 H :    0.335088
  26 H :    0.335099
  27 H :    0.307915
Sum of atomic charges:    0.0000000

--------------------------------
MULLIKEN REDUCED ORBITAL CHARGES
--------------------------------
  0 C s       :     3.243941  s :     3.243941
      pz      :     0.960597  p :     2.890955
      px      :     1.002699
      py      :     0.927659
      dz2     :     0.003164  d :     0.037697
      dxz     :     0.003475
      dyz     :     0.005384
      dx2y2   :     0.012538
      dxy     :     0.013136

  1 C s       :     3.243927  s :     3.243927
      pz      :     0.960598  p :     2.890959
      px      :     1.002704
      py      :     0.927657
      dz2     :     0.003164  d :     0.037697
      dxz     :     0.003475
      dyz     :     0.005384
      dx2y2   :     0.012538
      dxy     :     0.013136

  2 C s       :     3.269290  s :     3.269290
      pz      :     0.955449  p :     2.957558
      px      :     0.931746
      py      :     1.070363
      dz2     :     0.003196  d :     0.037117
      dxz     :     0.006447
      dyz     :     0.002393
      dx2y2   :     0.013342
      dxy     :     0.011739

  3 C s       :     3.209661  s :     3.209661
      pz      :     0.997283  p :     2.572953
      px      :     0.766918
      py      :     0.808752
      dz2     :     0.003771  d :     0.045674
      dxz     :     0.005089
      dyz     :     0.006388
      dx2y2   :     0.014747
      dxy     :     0.015678

  4 C s       :     3.209680  s :     3.209680
      pz      :     0.997283  p :     2.572982
      px      :     0.766949
      py      :     0.808750
      dz2     :     0.003771  d :     0.045674
      dxz     :     0.005089
      dyz     :     0.006388
      dx2y2   :     0.014747
      dxy     :     0.015678

  5 C s       :     3.269280  s :     3.269280
      pz      :     0.955447  p :     2.957545
      px      :     0.931747
      py      :     1.070351
      dz2     :     0.003196  d :     0.037117
      dxz     :     0.006447
      dyz     :     0.002393
      dx2y2   :     0.013342
      dxy     :     0.011739

  6 C s       :     3.429185  s :     3.429185
      pz      :     0.804282  p :     2.477290
      px      :     0.915445
      py      :     0.757563
      dz2     :     0.004643  d :     0.090848
      dxz     :     0.006294
      dyz     :     0.018851
      dx2y2   :     0.021353
      dxy     :     0.039708

  7 O s       :     3.845808  s :     3.845808
      pz      :     1.513700  p :     4.649950
      px      :     1.868187
      py      :     1.268063
      dz2     :     0.005936  d :     0.033457
      dxz     :     0.004224
      dyz     :     0.008669
      dx2y2   :     0.009784
      dxy     :     0.004845

  8 C s       :     3.425748  s :     3.425748
      pz      :     1.124476  p :     2.602967
      px      :     0.770451
      py      :     0.708040
      dz2     :     0.003883  d :     0.042959
      dxz     :     0.003846
      dyz     :     0.007333
      dx2y2   :     0.013057
      dxy     :     0.014839

  9 C s       :     3.023815  s :     3.023815
      pz      :     0.882604  p :     2.394334
      px      :     0.662199
      py      :     0.849532
      dz2     :     0.004569  d :     0.066035
      dxz     :     0.006462
      dyz     :     0.016551
      dx2y2   :     0.020158
      dxy     :     0.018295

 10 C s       :     3.349123  s :     3.349123
      pz      :     0.978589  p :     2.990252
      px      :     1.004849
      py      :     1.006813
      dz2     :     0.003303  d :     0.036520
      dxz     :     0.002733
      dyz     :     0.006178
      dx2y2   :     0.010376
      dxy     :     0.013930

 11 C s       :     3.349106  s :     3.349106
      pz      :     0.978591  p :     2.990266
      px      :     1.004847
      py      :     1.006828
      dz2     :     0.003303  d :     0.036520
      dxz     :     0.002733
      dyz     :     0.006178
      dx2y2   :     0.010376
      dxy     :     0.013930

 12 C s       :     3.023881  s :     3.023881
      pz      :     0.882606  p :     2.394308
      px      :     0.662178
      py      :     0.849524
      dz2     :     0.004569  d :     0.066035
      dxz     :     0.006462
      dyz     :     0.016551
      dx2y2   :     0.020158
      dxy     :     0.018294

 13 C s       :     3.425671  s :     3.425671
      pz      :     1.124476  p :     2.602882
      px      :     0.770408
      py      :     0.707997
      dz2     :     0.003883  d :     0.042958
      dxz     :     0.003846
      dyz     :     0.007333
      dx2y2   :     0.013057
      dxy     :     0.014839

 14 C s       :     3.429245  s :     3.429245
      pz      :     0.804283  p :     2.477308
      px      :     0.915468
      py      :     0.757557
      dz2     :     0.004643  d :     0.090849
      dxz     :     0.006293
      dyz     :     0.018851
      dx2y2   :     0.021353
      dxy     :     0.039709

 15 O s       :     3.845809  s :     3.845809
      pz      :     1.513695  p :     4.649934
      px      :     1.868184
      py      :     1.268056
      dz2     :     0.005935  d :     0.033456
      dxz     :     0.004224
      dyz     :     0.008669
      dx2y2   :     0.009784
      dxy     :     0.004844

 16 N s       :     3.451202  s :     3.451202
      pz      :     1.631283  p :     3.986514
      px      :     1.299152
      py      :     1.056079
      dz2     :     0.005604  d :     0.048743
      dxz     :     0.003042
      dyz     :     0.008929
      dx2y2   :     0.016287
      dxy     :     0.014881

 17 N s       :     3.451196  s :     3.451196
      pz      :     1.631282  p :     3.986523
      px      :     1.299156
      py      :     1.056085
      dz2     :     0.005603  d :     0.048743
      dxz     :     0.003042
      dyz     :     0.008929
      dx2y2   :     0.016287
      dxy     :     0.014881

 18 H s       :     0.798444  s :     0.798444
      pz      :     0.003783  p :     0.019530
      px      :     0.010279
      py      :     0.005468

 19 H s       :     0.798443  s :     0.798443
      pz      :     0.003783  p :     0.019530
      px      :     0.010279
      py      :     0.005468

 20 H s       :     0.785898  s :     0.785898
      pz      :     0.003718  p :     0.020038
      px      :     0.003264
      py      :     0.013055

 21 H s       :     0.785897  s :     0.785897
      pz      :     0.003718  p :     0.020038
      px      :     0.003264
      py      :     0.013055

 22 H s       :     0.789824  s :     0.789824
      pz      :     0.003788  p :     0.019706
      px      :     0.010601
      py      :     0.005317

 23 H s       :     0.789824  s :     0.789824
      pz      :     0.003788  p :     0.019706
      px      :     0.010601
      py      :     0.005317

 24 H s       :     0.659045  s :     0.659045
      pz      :     0.009147  p :     0.033034
      px      :     0.016776
      py      :     0.007111

 25 H s       :     0.627364  s :     0.627364
      pz      :     0.009011  p :     0.037548
      px      :     0.021017
      py      :     0.007519

 26 H s       :     0.627352  s :     0.627352
      pz      :     0.009011  p :     0.037549
      px      :     0.021019
      py      :     0.007518

 27 H s       :     0.659050  s :     0.659050
      pz      :     0.009148  p :     0.033035
      px      :     0.016776
      py      :     0.007112


------------------------
MULLIKEN OVERLAP CHARGES
------------------------
B(  0-C ,  1-C ) :   0.5162 B(  0-C ,  2-C ) :   0.0782 B(  0-C ,  3-C ) :  -0.3348 
B(  0-C ,  4-C ) :   0.1360 B(  0-C ,  5-C ) :   0.4133 B(  0-C , 18-H ) :   0.8466 
B(  0-C , 19-H ) :  -0.0790 B(  0-C , 21-H ) :  -0.0925 B(  1-C ,  2-C ) :   0.4134 
B(  1-C ,  3-C ) :   0.1359 B(  1-C ,  4-C ) :  -0.3349 B(  1-C ,  5-C ) :   0.0782 
B(  1-C , 18-H ) :  -0.0790 B(  1-C , 19-H ) :   0.8466 B(  1-C , 20-H ) :  -0.0925 
B(  2-C ,  3-C ) :   0.6901 B(  2-C ,  4-C ) :  -0.2959 B(  2-C ,  5-C ) :  -0.3208 
B(  2-C ,  6-C ) :   0.1364 B(  2-C , 13-C ) :   0.2037 B(  2-C , 14-C ) :  -0.5413 
B(  2-C , 15-O ) :   0.1241 B(  2-C , 19-H ) :  -0.0836 B(  2-C , 20-H ) :   0.8792 
B(  3-C ,  4-C ) :  -2.9184 B(  3-C ,  5-C ) :  -0.2960 B(  3-C ,  6-C ) :   1.7930 
B(  3-C ,  8-C ) :  -1.9719 B(  3-C ,  9-C ) :  -0.0835 B(  3-C , 12-C ) :   0.2321 
B(  3-C , 13-C ) :   1.6514 B(  3-C , 14-C ) :  -1.9488 B(  3-C , 15-O ) :  -0.4714 
B(  3-C , 20-H ) :  -0.0699 B(  4-C ,  5-C ) :   0.6900 B(  4-C ,  6-C ) :  -1.9484 
B(  4-C ,  7-O ) :  -0.4714 B(  4-C ,  8-C ) :   1.6514 B(  4-C ,  9-C ) :   0.2320 
B(  4-C , 12-C ) :  -0.0835 B(  4-C , 13-C ) :  -1.9719 B(  4-C , 14-C ) :   1.7931 
B(  4-C , 21-H ) :  -0.0699 B(  5-C ,  6-C ) :  -0.5414 B(  5-C ,  7-O ) :   0.1241 
B(  5-C ,  8-C ) :   0.2037 B(  5-C , 14-C ) :   0.1365 B(  5-C , 18-H ) :  -0.0836 
B(  5-C , 21-H ) :   0.8793 B(  6-C ,  7-O ) :   1.2679 B(  6-C ,  8-C ) :  -1.7475 
B(  6-C ,  9-C ) :  -0.9424 B(  6-C , 10-C ) :   0.0507 B(  6-C , 12-C ) :   0.2616 
B(  6-C , 13-C ) :   1.2648 B(  6-C , 14-C ) :  -1.5208 B(  7-O ,  8-C ) :  -0.4528 
B(  7-O ,  9-C ) :   0.1995 B(  7-O , 17-N ) :  -0.1594 B(  8-C ,  9-C ) :   0.3453 
B(  8-C , 10-C ) :   0.0619 B(  8-C , 11-C ) :  -0.3257 B(  8-C , 12-C ) :  -0.3493 
B(  8-C , 13-C ) :  -2.2654 B(  8-C , 14-C ) :   1.2648 B(  8-C , 17-N ) :   0.0980 
B(  9-C , 10-C ) :   0.1829 B(  9-C , 11-C ) :   0.2037 B(  9-C , 12-C ) :  -0.4791 
B(  9-C , 13-C ) :  -0.3490 B(  9-C , 14-C ) :   0.2615 B(  9-C , 17-N ) :   0.2811 
B(  9-C , 22-H ) :  -0.0688 B(  9-C , 26-H ) :  -0.0976 B(  9-C , 27-H ) :  -0.1126 
B( 10-C , 11-C ) :   0.2640 B( 10-C , 12-C ) :   0.2038 B( 10-C , 13-C ) :  -0.3257 
B( 10-C , 17-N ) :  -0.1147 B( 10-C , 22-H ) :   0.7984 B( 11-C , 12-C ) :   0.1827 
B( 11-C , 13-C ) :   0.0619 B( 11-C , 14-C ) :   0.0507 B( 11-C , 16-N ) :  -0.1147 
B( 11-C , 23-H ) :   0.7984 B( 12-C , 13-C ) :   0.3451 B( 12-C , 14-C ) :  -0.9427 
B( 12-C , 15-O ) :   0.1995 B( 12-C , 16-N ) :   0.2811 B( 12-C , 23-H ) :  -0.0688 
B( 12-C , 24-H ) :  -0.1126 B( 12-C , 25-H ) :  -0.0976 B( 13-C , 14-C ) :  -1.7476 
B( 13-C , 15-O ) :  -0.4529 B( 13-C , 16-N ) :   0.0980 B( 14-C , 15-O ) :   1.2680 
B( 15-O , 16-N ) :  -0.1594 B( 16-N , 24-H ) :   0.7751 B( 16-N , 25-H ) :   0.6930 
B( 17-N , 26-H ) :   0.6930 B( 17-N , 27-H ) :   0.7751 


                     *******************************
                     * LOEWDIN POPULATION ANALYSIS *
                     *******************************

----------------------
LOEWDIN ATOMIC CHARGES
----------------------
   0 C :   -0.147050
   1 C :   -0.147049
   2 C :   -0.117087
   3 C :   -0.035678
   4 C :   -0.035676
   5 C :   -0.117085
   6 C :    0.254261
   7 O :   -0.619405
   8 C :   -0.049886
   9 C :    0.180074
  10 C :   -0.091215
  11 C :   -0.091216
  12 C :    0.180075
  13 C :   -0.049884
  14 C :    0.254260
  15 O :   -0.619397
  16 N :   -0.509280
  17 N :   -0.509275
  18 H :    0.182104
  19 H :    0.182104
  20 H :    0.193958
  21 H :    0.193959
  22 H :    0.195197
  23 H :    0.195198
  24 H :    0.276384
  25 H :    0.287615
  26 H :    0.287615
  27 H :    0.276379

-------------------------------
LOEWDIN REDUCED ORBITAL CHARGES
-------------------------------
  0 C s       :     2.906975  s :     2.906975
      pz      :     0.949262  p :     3.157949
      px      :     1.108247
      py      :     1.100440
      dz2     :     0.005419  d :     0.082126
      dxz     :     0.005653
      dyz     :     0.009700
      dx2y2   :     0.029781
      dxy     :     0.031572

  1 C s       :     2.906974  s :     2.906974
      pz      :     0.949262  p :     3.157949
      px      :     1.108247
      py      :     1.100439
      dz2     :     0.005419  d :     0.082127
      dxz     :     0.005653
      dyz     :     0.009701
      dx2y2   :     0.029781
      dxy     :     0.031572

  2 C s       :     2.896355  s :     2.896355
      pz      :     0.945735  p :     3.139852
      px      :     1.078130
      py      :     1.115987
      dz2     :     0.005403  d :     0.080880
      dxz     :     0.011873
      dyz     :     0.003507
      dx2y2   :     0.032187
      dxy     :     0.027910

  3 C s       :     2.845725  s :     2.845725
      pz      :     0.971826  p :     3.093451
      px      :     1.057120
      py      :     1.064505
      dz2     :     0.007329  d :     0.096501
      dxz     :     0.008572
      dyz     :     0.011334
      dx2y2   :     0.033909
      dxy     :     0.035358

  4 C s       :     2.845725  s :     2.845725
      pz      :     0.971826  p :     3.093449
      px      :     1.057118
      py      :     1.064506
      dz2     :     0.007329  d :     0.096501
      dxz     :     0.008571
      dyz     :     0.011334
      dx2y2   :     0.033908
      dxy     :     0.035358

  5 C s       :     2.896357  s :     2.896357
      pz      :     0.945733  p :     3.139848
      px      :     1.078128
      py      :     1.115986
      dz2     :     0.005403  d :     0.080880
      dxz     :     0.011872
      dyz     :     0.003507
      dx2y2   :     0.032186
      dxy     :     0.027911

  6 C s       :     2.777100  s :     2.777100
      pz      :     0.782656  p :     2.771328
      px      :     1.005276
      py      :     0.983395
      dz2     :     0.011926  d :     0.197311
      dxz     :     0.010475
      dyz     :     0.034573
      dx2y2   :     0.050199
      dxy     :     0.090139

  7 O s       :     3.558510  s :     3.558510
      pz      :     1.500739  p :     4.773015
      px      :     1.779281
      py      :     1.492995
      dz2     :     0.035631  d :     0.287880
      dxz     :     0.010074
      dyz     :     0.054186
      dx2y2   :     0.097779
      dxy     :     0.090210

  8 C s       :     2.831623  s :     2.831623
      pz      :     1.078396  p :     3.128613
      px      :     1.027921
      py      :     1.022295
      dz2     :     0.007084  d :     0.089650
      dxz     :     0.006487
      dyz     :     0.012935
      dx2y2   :     0.030785
      dxy     :     0.032359

  9 C s       :     2.777124  s :     2.777124
      pz      :     0.858759  p :     2.901453
      px      :     1.046482
      py      :     0.996212
      dz2     :     0.009357  d :     0.141349
      dxz     :     0.011197
      dyz     :     0.031510
      dx2y2   :     0.044624
      dxy     :     0.044661

 10 C s       :     2.893340  s :     2.893340
      pz      :     0.958702  p :     3.119049
      px      :     1.072246
      py      :     1.088100
      dz2     :     0.005520  d :     0.078827
      dxz     :     0.004367
      dyz     :     0.010922
      dx2y2   :     0.025920
      dxy     :     0.032099

 11 C s       :     2.893338  s :     2.893338
      pz      :     0.958704  p :     3.119051
      px      :     1.072246
      py      :     1.088100
      dz2     :     0.005520  d :     0.078827
      dxz     :     0.004367
      dyz     :     0.010922
      dx2y2   :     0.025920
      dxy     :     0.032099

 12 C s       :     2.777126  s :     2.777126
      pz      :     0.858758  p :     2.901451
      px      :     1.046482
      py      :     0.996211
      dz2     :     0.009357  d :     0.141348
      dxz     :     0.011197
      dyz     :     0.031510
      dx2y2   :     0.044624
      dxy     :     0.044660

 13 C s       :     2.831627  s :     2.831627
      pz      :     1.078399  p :     3.128609
      px      :     1.027917
      py      :     1.022293
      dz2     :     0.007084  d :     0.089648
      dxz     :     0.006487
      dyz     :     0.012934
      dx2y2   :     0.030785
      dxy     :     0.032359

 14 C s       :     2.777101  s :     2.777101
      pz      :     0.782657  p :     2.771327
      px      :     1.005273
      py      :     0.983397
      dz2     :     0.011926  d :     0.197312
      dxz     :     0.010474
      dyz     :     0.034573
      dx2y2   :     0.050198
      dxy     :     0.090140

 15 O s       :     3.558510  s :     3.558510
      pz      :     1.500735  p :     4.773015
      px      :     1.779284
      py      :     1.492997
      dz2     :     0.035629  d :     0.287872
      dxz     :     0.010074
      dyz     :     0.054186
      dx2y2   :     0.097775
      dxy     :     0.090209

 16 N s       :     3.126580  s :     3.126580
      pz      :     1.577764  p :     4.057790
      px      :     1.249053
      py      :     1.230972
      dz2     :     0.034510  d :     0.324911
      dxz     :     0.006549
      dyz     :     0.061799
      dx2y2   :     0.097547
      dxy     :     0.124505

 17 N s       :     3.126579  s :     3.126579
      pz      :     1.577762  p :     4.057789
      px      :     1.249052
      py      :     1.230975
      dz2     :     0.034510  d :     0.324907
      dxz     :     0.006550
      dyz     :     0.061799
      dx2y2   :     0.097547
      dxy     :     0.124501

 18 H s       :     0.772160  s :     0.772160
      pz      :     0.008407  p :     0.045736
      px      :     0.024434
      py      :     0.012894

 19 H s       :     0.772160  s :     0.772160
      pz      :     0.008408  p :     0.045736
      px      :     0.024435
      py      :     0.012894

 20 H s       :     0.758779  s :     0.758779
      pz      :     0.008343  p :     0.047264
      px      :     0.007298
      py      :     0.031623

 21 H s       :     0.758777  s :     0.758777
      pz      :     0.008343  p :     0.047264
      px      :     0.007298
      py      :     0.031623

 22 H s       :     0.758881  s :     0.758881
      pz      :     0.008591  p :     0.045922
      px      :     0.024935
      py      :     0.012396

 23 H s       :     0.758880  s :     0.758880
      pz      :     0.008591  p :     0.045922
      px      :     0.024935
      py      :     0.012396

 24 H s       :     0.635085  s :     0.635085
      pz      :     0.022825  p :     0.088530
      px      :     0.045438
      py      :     0.020267

 25 H s       :     0.607025  s :     0.607025
      pz      :     0.022283  p :     0.105360
      px      :     0.061543
      py      :     0.021534

 26 H s       :     0.607020  s :     0.607020
      pz      :     0.022283  p :     0.105365
      px      :     0.061551
      py      :     0.021530

 27 H s       :     0.635088  s :     0.635088
      pz      :     0.022826  p :     0.088533
      px      :     0.045438
      py      :     0.020269


---------------------------------
LOEWDIN BOND ORDERS (THRESH 0.050000)
---------------------------------
B(  0-C ,  1-C ) :   1.4618 B(  0-C ,  2-C ) :   0.0908 B(  0-C ,  3-C ) :   0.1062 
B(  0-C ,  4-C ) :   0.0905 B(  0-C ,  5-C ) :   1.5379 B(  0-C , 18-H ) :   0.8676 
B(  0-C , 19-H ) :   0.0527 B(  0-C , 21-H ) :   0.0526 B(  1-C ,  2-C ) :   1.5379 
B(  1-C ,  3-C ) :   0.0905 B(  1-C ,  4-C ) :   0.1062 B(  1-C ,  5-C ) :   0.0908 
B(  1-C , 18-H ) :   0.0527 B(  1-C , 19-H ) :   0.8676 B(  1-C , 20-H ) :   0.0526 
B(  2-C ,  3-C ) :   1.3782 B(  2-C ,  4-C ) :   0.0841 B(  2-C ,  5-C ) :   0.1225 
B(  2-C , 14-C ) :   0.0861 B(  2-C , 15-O ) :   0.0792 B(  2-C , 19-H ) :   0.0555 
B(  2-C , 20-H ) :   0.8450 B(  3-C ,  4-C ) :   1.3165 B(  3-C ,  5-C ) :   0.0841 
B(  3-C ,  6-C ) :   0.0776 B(  3-C , 13-C ) :   0.0824 B(  3-C , 14-C ) :   0.9961 
B(  3-C , 15-O ) :   0.2092 B(  3-C , 20-H ) :   0.0514 B(  4-C ,  5-C ) :   1.3781 
B(  4-C ,  6-C ) :   0.9961 B(  4-C ,  7-O ) :   0.2092 B(  4-C ,  8-C ) :   0.0824 
B(  4-C , 14-C ) :   0.0776 B(  4-C , 21-H ) :   0.0514 B(  5-C ,  6-C ) :   0.0861 
B(  5-C ,  7-O ) :   0.0792 B(  5-C , 18-H ) :   0.0555 B(  5-C , 21-H ) :   0.8450 
B(  6-C ,  7-O ) :   2.0430 B(  6-C ,  8-C ) :   1.0928 B(  6-C ,  9-C ) :   0.0895 
B(  6-C , 13-C ) :   0.0754 B(  6-C , 17-N ) :   0.0732 B(  7-O ,  8-C ) :   0.2214 
B(  7-O ,  9-C ) :   0.0703 B(  7-O , 17-N ) :   0.2284 B(  7-O , 26-H ) :   0.0896 
B(  8-C ,  9-C ) :   1.1837 B(  8-C , 10-C ) :   0.0806 B(  8-C , 11-C ) :   0.0786 
B(  8-C , 12-C ) :   0.0828 B(  8-C , 13-C ) :   1.1947 B(  8-C , 14-C ) :   0.0754 
B(  8-C , 17-N ) :   0.2245 B(  9-C , 10-C ) :   1.1568 B(  9-C , 11-C ) :   0.0915 
B(  9-C , 13-C ) :   0.0828 B(  9-C , 17-N ) :   1.6253 B(  9-C , 27-H ) :   0.0543 
B( 10-C , 11-C ) :   1.6806 B( 10-C , 12-C ) :   0.0915 B( 10-C , 13-C ) :   0.0786 
B( 10-C , 17-N ) :   0.2031 B( 10-C , 22-H ) :   0.8497 B( 10-C , 23-H ) :   0.0579 
B( 11-C , 12-C ) :   1.1568 B( 11-C , 13-C ) :   0.0806 B( 11-C , 16-N ) :   0.2032 
B( 11-C , 22-H ) :   0.0579 B( 11-C , 23-H ) :   0.8497 B( 12-C , 13-C ) :   1.1837 
B( 12-C , 14-C ) :   0.0895 B( 12-C , 15-O ) :   0.0703 B( 12-C , 16-N ) :   1.6253 
B( 12-C , 24-H ) :   0.0543 B( 13-C , 14-C ) :   1.0928 B( 13-C , 15-O ) :   0.2214 
B( 13-C , 16-N ) :   0.2245 B( 14-C , 15-O ) :   2.0431 B( 14-C , 16-N ) :   0.0732 
B( 15-O , 16-N ) :   0.2283 B( 15-O , 25-H ) :   0.0896 B( 16-N , 24-H ) :   0.8890 
B( 16-N , 25-H ) :   0.8301 B( 17-N , 26-H ) :   0.8301 B( 17-N , 27-H ) :   0.8891 


------------------------------------------
LOEWDIN REDUCED ORBITAL POPULATIONS PER MO
-------------------------------------------
THRESHOLD FOR PRINTING IS 0.1%%
                      0         1         2         3         4         5   
                 -18.93305 -18.93304 -14.17693 -14.17692 -10.11501 -10.11500
                   2.00000   2.00000   2.00000   2.00000   2.00000   2.00000
                  --------  --------  --------  --------  --------  --------
 6 C  s               0.0       0.0       0.0       0.0      44.3      54.9
 7 O  s              51.0      48.9       0.0       0.0       0.0       0.0
 7 O  py              0.0       0.0       0.0       0.0       0.1       0.1
 7 O  dx2y2           0.0       0.0       0.0       0.0       0.1       0.1
14 C  s               0.0       0.0       0.0       0.0      54.9      44.3
15 O  s              48.9      51.0       0.0       0.0       0.0       0.0
15 O  py              0.0       0.0       0.0       0.0       0.1       0.1
15 O  dx2y2           0.0       0.0       0.0       0.0       0.1       0.1
16 N  s               0.0       0.0      79.8      19.9       0.0       0.0
17 N  s               0.0       0.0      19.9      79.8       0.0       0.0

                      6         7         8         9        10        11   
                 -10.09875 -10.09875 -10.05322 -10.05261 -10.05114 -10.05073
                   2.00000   2.00000   2.00000   2.00000   2.00000   2.00000
                  --------  --------  --------  --------  --------  --------
 3 C  s               0.0       0.0       0.0       0.0      49.7      49.8
 4 C  s               0.0       0.0       0.0       0.0      49.7      49.8
 9 C  s              43.5      55.7       0.0       0.0       0.0       0.0
10 C  s               0.0       0.0      49.8      49.8       0.0       0.0
11 C  s               0.0       0.0      49.8      49.8       0.0       0.0
12 C  s              55.7      43.5       0.0       0.0       0.0       0.0
16 N  dx2y2           0.1       0.1       0.0       0.0       0.0       0.0
17 N  dx2y2           0.1       0.1       0.0       0.0       0.0       0.0

                     12        13        14        15        16        17   
                 -10.04973 -10.04943 -10.04378 -10.04337 -10.04247 -10.04245
                   2.00000   2.00000   2.00000   2.00000   2.00000   2.00000
                  --------  --------  --------  --------  --------  --------
 0 C  s               0.0       0.0      48.1      45.8       1.8       3.9
 1 C  s               0.0       0.0      48.0      45.9       1.7       4.1
 2 C  s               0.0       0.0       1.7       4.0      46.7      47.1
 5 C  s               0.0       0.0       1.7       4.0      49.3      44.5
 8 C  s              49.5      50.0       0.0       0.0       0.0       0.0
13 C  s              50.0      49.6       0.0       0.0       0.0       0.0

                     18        19        20        21        22        23   
                  -0.99956  -0.99704  -0.91205  -0.90249  -0.84343  -0.81117
                   2.00000   2.00000   2.00000   2.00000   2.00000   2.00000
                  --------  --------  --------  --------  --------  --------
 0 C  s               0.0       0.0       0.0       0.0       8.3       2.3
 0 C  px              0.0       0.0       0.0       0.0       1.8       0.2
 0 C  py              0.0       0.0       0.0       0.0       0.5       0.2
 1 C  s               0.0       0.0       0.0       0.0       8.3       2.3
 1 C  px              0.0       0.0       0.0       0.0       1.8       0.2
 1 C  py              0.0       0.0       0.0       0.0       0.5       0.2
 2 C  s               0.2       0.1       0.0       0.0       9.5       1.4
 2 C  px              0.3       0.2       0.0       0.0       0.0       0.2
 2 C  py              0.0       0.0       0.0       0.0       2.5       0.3
 2 C  dz2             0.0       0.0       0.0       0.0       0.1       0.0
 3 C  s               1.2       0.4       0.0       0.0      13.3       0.1
 3 C  px              0.7       0.4       0.0       0.0       0.9       1.5
 3 C  py              0.2       1.1       0.0       0.0       1.1       0.0
 3 C  dz2             0.0       0.0       0.0       0.0       0.2       0.0
 4 C  s               1.2       0.4       0.0       0.0      13.3       0.1
 4 C  px              0.7       0.4       0.0       0.0       0.9       1.5
 4 C  py              0.2       1.1       0.0       0.0       1.1       0.0
 4 C  dz2             0.0       0.0       0.0       0.0       0.2       0.0
 5 C  s               0.2       0.1       0.0       0.0       9.5       1.4
 5 C  px              0.3       0.2       0.0       0.0       0.0       0.2
 5 C  py              0.0       0.0       0.0       0.0       2.5       0.3
 5 C  dz2             0.0       0.0       0.0       0.0       0.1       0.0
 6 C  s               8.9       7.8       0.1       0.1       1.1       0.7
 6 C  px              0.0       0.0       0.7       0.3       0.8       1.1
 6 C  py              4.9       6.4       0.6       0.2       3.2       1.2
 6 C  dz2             0.3       0.2       0.0       0.0       0.0       0.0
 6 C  dx2y2           0.5       0.5       0.0       0.0       0.1       0.0
 7 O  s              25.6      26.4       1.1       0.7       1.4       0.2
 7 O  py              2.6       2.6       0.1       0.1       0.2       0.1
 7 O  dz2             0.1       0.1       0.0       0.0       0.1       0.0
 7 O  dx2y2           0.2       0.2       0.1       0.1       0.1       0.2
 8 C  s               1.4       0.4       2.5       0.5       1.4       8.9
 8 C  px              0.5       0.3       1.6       0.7       0.3       0.2
 8 C  py              0.2       1.3       0.0       1.0       0.3       1.6
 8 C  dz2             0.0       0.0       0.0       0.0       0.0       0.1
 9 C  s               0.5       0.2      10.5       8.1       0.1       1.5
 9 C  px              0.3       0.2       0.1       0.0       0.1       0.1
 9 C  py              0.0       0.1       1.5       4.4       0.4       8.5
 9 C  dz2             0.0       0.0       0.2       0.2       0.0       0.0
 9 C  dx2y2           0.0       0.0       0.1       0.2       0.0       0.2
10 C  s               0.1       0.0       3.7       0.6       0.1       6.1
10 C  px              0.1       0.0       1.2       0.6       0.0       0.6
10 C  py              0.0       0.0       0.0       1.6       0.0       1.4
11 C  s               0.1       0.0       3.7       0.6       0.1       6.1
11 C  px              0.1       0.0       1.2       0.6       0.0       0.6
11 C  py              0.0       0.0       0.0       1.6       0.0       1.4
12 C  s               0.5       0.2      10.5       8.1       0.1       1.5
12 C  px              0.3       0.2       0.1       0.0       0.1       0.1
12 C  py              0.0       0.1       1.5       4.4       0.4       8.5
12 C  dz2             0.0       0.0       0.2       0.2       0.0       0.0
12 C  dx2y2           0.0       0.0       0.1       0.2       0.0       0.2
13 C  s               1.4       0.4       2.5       0.5       1.4       8.9
13 C  px              0.5       0.3       1.6       0.7       0.3       0.2
13 C  py              0.2       1.3       0.0       1.0       0.3       1.6
13 C  dz2             0.0       0.0       0.0       0.0       0.0       0.1
14 C  s               8.9       7.8       0.1       0.1       1.1       0.7
14 C  px              0.0       0.0       0.7       0.3       0.8       1.1
14 C  py              4.9       6.4       0.6       0.2       3.2       1.2
14 C  dz2             0.3       0.2       0.0       0.0       0.0       0.0
14 C  dx2y2           0.5       0.5       0.0       0.0       0.1       0.0
15 O  s              25.6      26.4       1.1       0.7       1.4       0.2
15 O  py              2.6       2.6       0.1       0.1       0.2       0.1
15 O  dz2             0.1       0.1       0.0       0.0       0.1       0.0
15 O  dx2y2           0.2       0.2       0.1       0.1       0.1       0.2
16 N  s               0.4       0.3      17.9      21.7       0.3       6.3
16 N  px              0.1       0.1       0.0       0.0       0.0       0.0
16 N  py              0.0       0.0       1.3       1.1       0.0       0.6
16 N  dz2             0.1       0.1       0.2       0.2       0.0       0.0
16 N  dx2y2           0.0       0.0       0.3       0.2       0.0       0.2
17 N  s               0.4       0.3      17.9      21.7       0.3       6.3
17 N  px              0.1       0.1       0.0       0.0       0.0       0.0
17 N  py              0.0       0.0       1.3       1.1       0.0       0.6
17 N  dz2             0.1       0.1       0.2       0.2       0.0       0.0
17 N  dx2y2           0.0       0.0       0.3       0.2       0.0       0.2
18 H  s               0.0       0.0       0.0       0.0       0.7       0.2
19 H  s               0.0       0.0       0.0       0.0       0.7       0.2
20 H  s               0.0       0.0       0.0       0.0       0.8       0.1
21 H  s               0.0       0.0       0.0       0.0       0.8       0.1
22 H  s               0.0       0.0       0.3       0.1       0.0       0.5
23 H  s               0.0       0.0       0.3       0.1       0.0       0.5
24 H  s               0.0       0.0       2.6       3.2       0.1       1.3
24 H  px              0.0       0.0       0.3       0.4       0.0       0.2
24 H  py              0.0       0.0       0.1       0.1       0.0       0.0
25 H  s               0.3       0.3       2.2       2.8       0.1       1.2
25 H  px              0.0       0.0       0.3       0.3       0.0       0.2
25 H  py              0.0       0.0       0.1       0.2       0.0       0.0
26 H  s               0.3       0.3       2.2       2.8       0.1       1.2
26 H  px              0.0       0.0       0.3       0.3       0.0       0.2
26 H  py              0.0       0.0       0.1       0.2       0.0       0.0
27 H  s               0.0       0.0       2.6       3.2       0.1       1.3
27 H  px              0.0       0.0       0.3       0.4       0.0       0.2
27 H  py              0.0       0.0       0.1       0.1       0.0       0.0

                     24        25        26        27        28        29   
                  -0.76875  -0.73127  -0.72734  -0.70180  -0.64705  -0.62442
                   2.00000   2.00000   2.00000   2.00000   2.00000   2.00000
                  --------  --------  --------  --------  --------  --------
 0 C  s               5.5       3.8       8.8       0.3       1.2       3.3
 0 C  px              0.1       1.8       0.3       0.1       0.1       2.8
 0 C  py              0.5       4.2       1.2       0.4       1.0       1.8
 1 C  s               5.5       3.8       8.8       0.3       1.2       3.3
[...]
17 N  py              0.0       0.0       0.4       0.2       0.0       0.0
17 N  dx2y2           0.2       0.4       0.6       0.3       0.0       0.0
17 N  dxy            19.1      17.0       0.4       1.1       0.0       0.0
24 H  s               4.2       4.3       0.0       0.1       0.0       0.0
24 H  px              4.6       4.7       0.0       0.1       0.0       0.0
24 H  py              0.4       0.5       0.0       0.0       0.0       0.0
25 H  s               3.8       3.2       0.2       0.4       0.0       0.0
25 H  px              4.8       4.1       0.2       0.3       0.0       0.0
25 H  py              0.5       0.3       0.1       0.1       0.0       0.0
26 H  s               3.8       3.2       0.2       0.4       0.0       0.0
26 H  px              4.8       4.1       0.2       0.3       0.0       0.0
26 H  py              0.5       0.3       0.1       0.1       0.0       0.0
27 H  s               4.2       4.3       0.0       0.1       0.0       0.0
27 H  px              4.6       4.7       0.0       0.1       0.0       0.0
27 H  py              0.4       0.5       0.0       0.0       0.0       0.0

                    396       397       398       399       400       401   
                  21.82940  21.97466  21.97817  22.06029  22.11304  22.18735
                   0.00000   0.00000   0.00000   0.00000   0.00000   0.00000
                  --------  --------  --------  --------  --------  --------
 0 C  s              11.9       4.1      10.6       3.7       5.5      32.5
 1 C  s              11.9       4.1      10.6       3.7       5.5      32.5
 2 C  s               1.5      17.9       0.4       8.0       5.5       0.0
 3 C  s              11.2       9.5       8.8       5.0       0.9      15.8
 3 C  py              0.0       0.1       0.0       0.0       0.0       0.0
 4 C  s              11.2       9.5       8.8       5.0       0.9      15.8
 4 C  py              0.0       0.1       0.0       0.0       0.0       0.0
 5 C  s               1.5      17.9       0.4       8.0       5.5       0.0
 6 C  s               8.0       4.9       0.6       1.3      11.9       0.5
 8 C  s               3.2       5.7      12.6      16.7       0.0       0.9
 9 C  s               2.9       7.2       0.6      14.1      19.4       0.0
10 C  s              11.0       0.2      16.0       0.7       6.6       0.1
11 C  s              11.0       0.2      16.0       0.7       6.6       0.1
12 C  s               2.9       7.2       0.7      14.1      19.4       0.0
13 C  s               3.2       5.6      12.6      16.7       0.0       0.9
14 C  s               8.0       4.9       0.6       1.3      11.9       0.5

                    402       403       404       405       406       407   
                  22.21750  22.22116  22.23313  22.34095  22.38247  22.42028
                   0.00000   0.00000   0.00000   0.00000   0.00000   0.00000
                  --------  --------  --------  --------  --------  --------
 0 C  s               4.6       0.5       1.7       0.8       6.7       1.5
 1 C  s               4.6       0.5       1.7       0.8       6.7       1.5
 2 C  s              21.8       0.1       4.2       1.5      16.3       5.8
 3 C  s               9.9       0.0       0.5       0.1      19.3       0.2
 3 C  px              0.0       0.0       0.0       0.0       0.0       0.2
 4 C  s               9.9       0.0       0.5       0.1      19.3       0.2
 4 C  px              0.0       0.0       0.0       0.0       0.0       0.2
 5 C  s              21.8       0.1       4.2       1.5      16.3       5.8
 6 C  s              13.2       0.3      12.9       0.2       4.9      37.2
 8 C  s               0.2       8.2      13.1      14.7       2.5       1.0
 8 C  px              0.0       0.0       0.0       0.1       0.0       0.3
 9 C  s               0.0       4.0      16.6      20.6       0.1       3.5
10 C  s               0.0      36.6       0.7      12.0       0.0       0.2
11 C  s               0.0      36.6       0.7      12.0       0.0       0.2
12 C  s               0.0       4.1      16.6      20.5       0.1       3.5
13 C  s               0.2       8.2      13.0      14.7       2.5       1.0
13 C  px              0.0       0.0       0.0       0.1       0.0       0.3
14 C  s              13.2       0.3      12.9       0.2       4.9      37.2

                    408       409       410       411   
                  31.94797  32.02496  43.75804  43.88117
                   0.00000   0.00000   0.00000   0.00000
                  --------  --------  --------  --------
 7 O  s               0.0       0.0      49.9      49.9
15 O  s               0.0       0.0      49.9      49.9
16 N  s              49.8      49.8       0.0       0.0
17 N  s              49.8      49.8       0.0       0.0


                      *****************************
                      * MAYER POPULATION ANALYSIS *
                      *****************************

  NA   - Mulliken gross atomic population
  ZA   - Total nuclear charge
  QA   - Mulliken gross atomic charge
  VA   - Mayer's total valence
  BVA  - Mayer's bonded valence
  FA   - Mayer's free valence

  ATOM       NA         ZA         QA         VA         BVA        FA
  0 C      6.1726     6.0000    -0.1726     3.6724     3.6724     0.0000
  1 C      6.1726     6.0000    -0.1726     3.6723     3.6723    -0.0000
  2 C      6.2640     6.0000    -0.2640     3.7358     3.7358    -0.0000
  3 C      5.8283     6.0000     0.1717     3.4921     3.4921    -0.0000
  4 C      5.8283     6.0000     0.1717     3.4922     3.4922     0.0000
  5 C      6.2639     6.0000    -0.2639     3.7358     3.7358     0.0000
  6 C      5.9973     6.0000     0.0027     3.6328     3.6328     0.0000
  7 O      8.5292     8.0000    -0.5292     1.8891     1.8891     0.0000
  8 C      6.0717     6.0000    -0.0717     3.1557     3.1557     0.0000
  9 C      5.4842     6.0000     0.5158     3.2991     3.2991    -0.0000
 10 C      6.3759     6.0000    -0.3759     3.7049     3.7049     0.0000
 11 C      6.3759     6.0000    -0.3759     3.7049     3.7049    -0.0000
 12 C      5.4842     6.0000     0.5158     3.2990     3.2990     0.0000
 13 C      6.0715     6.0000    -0.0715     3.1556     3.1556    -0.0000
 14 C      5.9974     6.0000     0.0026     3.6327     3.6327    -0.0000
 15 O      8.5292     8.0000    -0.5292     1.8891     1.8891     0.0000
 16 N      7.4865     7.0000    -0.4865     3.1469     3.1469     0.0000
 17 N      7.4865     7.0000    -0.4865     3.1469     3.1469     0.0000
 18 H      0.8180     1.0000     0.1820     0.9577     0.9577     0.0000
 19 H      0.8180     1.0000     0.1820     0.9577     0.9577     0.0000
 20 H      0.8059     1.0000     0.1941     0.9493     0.9493    -0.0000
 21 H      0.8059     1.0000     0.1941     0.9493     0.9493     0.0000
 22 H      0.8095     1.0000     0.1905     0.9585     0.9585     0.0000
 23 H      0.8095     1.0000     0.1905     0.9585     0.9585    -0.0000
 24 H      0.6921     1.0000     0.3079     0.9062     0.9062     0.0000
 25 H      0.6649     1.0000     0.3351     0.8960     0.8960     0.0000
 26 H      0.6649     1.0000     0.3351     0.8960     0.8960     0.0000
 27 H      0.6921     1.0000     0.3079     0.9062     0.9062    -0.0000

  Mayer bond orders larger than 0.100000
B(  0-C ,  1-C ) :   1.2902 B(  0-C ,  5-C ) :   1.3633 B(  0-C , 18-H ) :   0.9622 
B(  1-C ,  2-C ) :   1.3634 B(  1-C , 19-H ) :   0.9622 B(  2-C ,  3-C ) :   1.2630 
B(  2-C , 15-O ) :   0.1067 B(  2-C , 20-H ) :   0.9769 B(  3-C ,  4-C ) :   1.5286 
B(  3-C , 14-C ) :   0.9442 B(  3-C , 15-O ) :  -0.2261 B(  4-C ,  5-C ) :   1.2630 
B(  4-C ,  6-C ) :   0.9443 B(  4-C ,  7-O ) :  -0.2261 B(  5-C ,  7-O ) :   0.1067 
B(  5-C , 21-H ) :   0.9769 B(  6-C ,  7-O ) :   1.8555 B(  6-C ,  8-C ) :   1.0356 
B(  6-C , 13-C ) :  -0.1204 B(  7-O ,  8-C ) :  -0.1392 B(  8-C ,  9-C ) :   1.2968 
B(  8-C , 13-C ) :   0.8941 B(  8-C , 14-C ) :  -0.1203 B(  9-C , 10-C ) :   1.0635 
B(  9-C , 17-N ) :   1.0757 B( 10-C , 11-C ) :   1.4653 B( 10-C , 22-H ) :   0.9604 
B( 11-C , 12-C ) :   1.0635 B( 11-C , 23-H ) :   0.9604 B( 12-C , 13-C ) :   1.2968 
B( 12-C , 16-N ) :   1.0757 B( 13-C , 14-C ) :   1.0356 B( 13-C , 15-O ) :  -0.1393 
B( 14-C , 15-O ) :   1.8555 B( 16-N , 24-H ) :   0.9108 B( 16-N , 25-H ) :   0.8367 
B( 17-N , 26-H ) :   0.8367 B( 17-N , 27-H ) :   0.9108 

-------
TIMINGS
-------

Total SCF time: 0 days 0 hours 1 min 55 sec 

Total time                  ....     115.743 sec
Sum of individual times     ....     104.843 sec  ( 90.6%)

SCF preparation             ....       1.399 sec  (  1.2%)
Fock matrix formation       ....      88.873 sec  ( 76.8%)
  Startup                   ....       0.083 sec  (  0.1% of F)
  Split-RI-J                ....      17.620 sec  ( 19.8% of F)
  XC integration            ....      52.764 sec  ( 59.4% of F)
    XC Preparation          ....       0.000 sec  (  0.0% of XC)
    Basis function eval.    ....       6.159 sec  ( 11.7% of XC)
    Density eval.           ....      13.929 sec  ( 26.4% of XC)
    XC-Functional eval.     ....       2.709 sec  (  5.1% of XC)
    XC-Potential eval.      ....      14.918 sec  ( 28.3% of XC)
  CPCM terms                ....      17.550 sec  ( 19.7% of F)
Diagonalization             ....       0.000 sec  (  0.0%)
Density matrix formation    ....       1.413 sec  (  1.2%)
Total Energy calculation    ....       0.072 sec  (  0.1%)
Population analysis         ....       0.250 sec  (  0.2%)
Orbital Transformation      ....       0.576 sec  (  0.5%)
Orbital Orthonormalization  ....       0.000 sec  (  0.0%)
DIIS solution               ....      11.160 sec  (  9.6%)
  MO trafo                  ....       0.000 sec  (  0.0 % of DIIS)
  Orb grad                  ....       0.000 sec  (  0.0 % of DIIS)
  Energy W gradient         ....       0.000 sec  (  0.0 % of DIIS)
  DIIS error                ....       0.054 sec  (  0.5 % of DIIS)
  DIIS work                 ....      10.660 sec  ( 95.5 % of DIIS)
  Form Q                    ....       0.000 sec  (  0.0 % of DIIS)
  Form QpQm                 ....       0.000 sec  (  0.0 % of DIIS)
  Exp/Cayley                ....       0.000 sec  (  0.0 % of DIIS)
  Orb update                ....       0.000 sec  (  0.0 % of DIIS)
  Wake-sleep                ....       0.025 sec  (  0.2 % of DIIS)
SOSCF solution              ....       1.100 sec  (  1.0%)
  MO trafo                  ....       0.221 sec  ( 20.1 % of SOSCF)
  Orb grad                  ....       0.002 sec  (  0.2 % of SOSCF)
  Rot update                ....       0.171 sec  ( 15.6 % of SOSCF)
  Step                      ....       0.705 sec  ( 64.1 % of SOSCF)
Finished LeanSCF after 115.9 sec

Maximum memory used throughout the entire LEANSCF-calculation: 65.2 MB


-------------------------------------------------------------------------------
                          DFT DISPERSION CORRECTION                            
                                                                               
                                DFTD4 V3.4.0                                   
-------------------------------------------------------------------------------
The R2SCAN3C composite method is recognized
Using three-body term ABC
Active option DFTDOPT                   ...         5   

-------------------------   ----------------
Dispersion correction           -0.013790553
-------------------------   ----------------

------------------   -----------------
gCP correction             0.014524893
------------------   -----------------

-------------------------   --------------------
FINAL SINGLE POINT ENERGY      -799.362407594642
-------------------------   --------------------


------------------------------------------------------------------------------
                              ORCA PROPERTY CALCULATIONS
------------------------------------------------------------------------------

GBWName                                 ... sp_solv.gbw
Number of atoms                         ...     28
Number of basis functions               ...    412
Max core memory                         ...   1024 MB

Electric properties:
Dipole moment                           ... YES
Quadrupole moment                       ...  NO
Static polarizability (Dipole/Dipole)   ...  NO
Static polarizability (Dipole/Quad.)    ...  NO
Static polarizability (Quad./Quad.)     ...  NO
Static polarizability (Velocity)        ...  NO

Atomic electric properties:
Dipole moment                           ...  NO
Quadrupole moment                       ...  NO
Static polarizability                   ...  NO

Choice of electric origin               ... Center of mass
Position of electric origin             ...     0.000015    -0.000000     0.000000

General magnetic properties:
Magnetizability                         ...  NO

EPR properties:
g-Tensor (aka g-matrix)                 ...  NO
Zero-Field splitting spin-orbit         ...  NO
Zero-field splitting spin-spin          ...  NO
Hyperfine couplings                     ...  NO (   0 nuclei)
Quadrupole couplings                    ...  NO (   0 nuclei)
Contact density                         ...  NO (   0 nuclei)

NMR properties:
Chemical shifts                         ...  NO (   0 nuclei)
Spin-rotation constants                 ...  NO (   0 nuclei)
Spin-spin couplings                     ...  NO (   0 nuclei,    0 pairs)

Choice of magnetic origin               ... GIAO
Position of magnetic origin             ...     0.000000     0.000000     0.000000

Properties with geometric perturbations:
SCF Hessian                             ...  NO
IR spectrum                             ...  NO
VCD spectrum                            ...  NO
X-ray spectroscopy properties:
SCF XES/XAS/RIXS spectra                ...  NO


-------------
DIPOLE MOMENT
-------------

Method             : SCF
Type of density    : Electron Density
Multiplicity       :   1
Irrep              :   0
Energy             :  -799.3631419352417424 Eh
Relativity type    : 
Basis              : AO
                                X                 Y                 Z
Electronic contribution:      0.658280157       0.000059230      -0.004190134
Nuclear contribution   :      2.091450259      -0.000042117       0.006544391
                        -----------------------------------------
Total Dipole Moment    :      2.749730417       0.000017113       0.002354257
                        -----------------------------------------
Magnitude (a.u.)       :      2.749731425
Magnitude (Debye)      :      6.989261836



--------------------
Rotational spectrum 
--------------------
 
Rotational constants in cm-1:             0.024083             0.012960             0.008426 
Rotational constants in MHz :           722.000263           388.542676           252.604366 

Dipole components along the rotational axes: 
x,y,z [a.u.] :     2.749730     0.000017     0.002354 
x,y,z [Debye]:     6.989259     0.000043     0.005984 

 

Dipole moment calculation done in   0.0 sec 

Maximum memory used throughout the entire PROP-calculation: 35.8 MB

--------------------------------
SUGGESTED CITATIONS FOR THIS RUN
--------------------------------

Below you find a list of papers that are relevant to this ORCA run
We neither can nor want to force you to cite these papers, but we appreciate if you do
You receive ORCA, which is the product of decades of hard work by many enthusiastic individuals, for free
The only thing we kindly ask in return is that you cite our papers,
We deeply appreciate it, if you show your appreciation for ORCA by not just citing the generic ORCA reference.

Please note that relegating all ORCA citations to the supporting information does *not* help us.
SI sections are not indexed - citations you put there will not count into any citation statistics
But we need these citations in order to attract the funding resources that allow us to do what we are doing

Therefore, if you are a happy ORCA user, please consider citing a few of the papers listed below in the main body of your paper

In addition to the list printed below, the program has created the file sp_solv.bibtex that contains the list in bibtex format
You can import this file easily into all common literature databanks and citation aid programs


List of essential papers. We consider these as the minimum necessary citations

  1. Neese,F.
     Software update: the ORCA program system, version 5.0
     WIRES Comput. Molec. Sci., 2022 12(1)e1606
     doi.org/10.1002/wcms.1606
  2. Grimme,S.; Hansen,A.; Ehlert,S.; Mewes,J.
     r2SCAN-3c: A 'Swiss army knife' composite electronic-structure method
     J. Chem. Phys., 2021 154 064103
     doi.org/10.1063/5.0040021

List of papers to cite with high priority. The work reported in these papers was absolutely
necessary for this run to complete.
Our perspective: the developers of density functionals and basis sets usually get cited in chemistry papers
Good! But without the algorithms to do something with them, the functionals or basis sets would not do anything.
Hence, in our opinion, the algorithm design and method developments papers are equally worthy of getting cited

  1. Neese,F.
     An improvement of the resolution of the identity approximation for the formation of the Coulomb matrix
     J. Comp. Chem., 2003 24(14)1740-1747
     doi.org/10.1002/jcc.10318
  2. Garcia-Rates,M.; Neese,F.
     Effect of the Solute Cavity on the Solvation Energy and its Derivatives within the Framework of the Gaussian Charge Scheme
     J. Comput. Chem., 2020 41 922-939
     doi.org/10.1002/jcc.26139
  3. Neese,F.
     The SHARK Integral Generation and Digestion System
     J. Comp. Chem., 2022  1-16
     doi.org/10.1002/jcc.26942
  4. Lehtola,S.; Steigemann,C.; Oliveira,M.; Marques,M.
     Recent developments in Libxc - A comprehensive library of functionals for density functional theory
     Software X, 2018 7 
     doi.org/10.1016/j.softx.2017.11.002
  5. Caldeweyher,E.; Bannwarth,C.; Grimme,S.
     Extension of the D3 dispersion coefficient model
     J. Chem. Phys., 2017 147 034112-XXXX
     doi.org/10.1063/1.4993215
  6. Caldeweyher,E.; Ehlert,S.; Hansen,A.; Neugebauer,H.; Spicher,S.; Bannwarth,C.; Grimme,S.
     A generally applicable atomic-charge dependent London dispersion correction
     J. Chem. Phys., 2019 150 154122-XXXX
     doi.org/10.1063/1.5090222
  7. Caldeweyher,E.; Mewes,J.; Ehlert,S.; Grimme,S.
     Extension and evaluation of the D4 London-dispersion model for periodic systems
     Phys. Chem. Chem. Phys., 2020 22(16)8499-8512
     doi.org/10.1039/D0CP00502A

List of suggested additional citations. These are papers that are important in the 'surrounding' of 
of this run, or papers that preceded the highly important papers. If you like your results we are grateful for a citation.

  1. Neese,F.
     The ORCA program system
     WIRES Comput. Molec. Sci., 2012 2(1)73-78
     doi.org/10.1002/wcms.81
  2. Neese,F.
     Software update: the ORCA program system, version 4.0
     WIRES Comput. Molec. Sci., 2018 8(1)1-6
     doi.org/10.1002/wcms.1327
  3. Neese,F.; Wennmohs,F.; Becker,U.; Riplinger,C.
     The ORCA quantum chemistry program package
     J. Chem. Phys., 2020 152 Art. No. L224108
     doi.org/10.1063/5.0004608

List of optional additional citations

  1. Neese,F.
     Approximate second-order SCF convergence for spin unrestricted wavefunctions
     Chem. Phys. Lett., 2000 325(1-3)93-98
     doi.org/10.1016/s0009-2614(00)00662-x

Timings for individual modules:

Sum of individual times          ...      122.733 sec (=   2.046 min)
Startup calculation              ...        5.229 sec (=   0.087 min)   4.3 %
SCF iterations                   ...      117.372 sec (=   1.956 min)  95.6 %
Property calculations            ...        0.132 sec (=   0.002 min)   0.1 %
                             ****ORCA TERMINATED NORMALLY****
TOTAL RUN TIME: 0 days 0 hours 2 minutes 3 seconds 964 msec
