      -----------------------------------------------------------      
     |                   =====================                   |     
     |                           x T B                           |     
     |                   =====================                   |     
     |                         S. Grimme                         |     
     |          Mulliken Center for Theoretical Chemistry        |     
     |                    University of Bonn                     |     
      -----------------------------------------------------------      

   * xtb version 6.7.1 (edcfbbe) compiled by 'albert@albert-system' on 2024-07-22

   xtb is free software: you can redistribute it and/or modify it under
   the terms of the GNU Lesser General Public License as published by
   the Free Software Foundation, either version 3 of the License, or
   (at your option) any later version.
   
   xtb is distributed in the hope that it will be useful,
   but WITHOUT ANY WARRANTY; without even the implied warranty of
   MERCHANTABILITY or FITNESS FOR A PARTICULAR PURPOSE.  See the
   GNU Lesser General Public License for more details.
   
   Cite this work as:
   * C. Bannwarth, E. Caldeweyher, S. Ehlert, A. Hansen, P. Pracht,
     J. Seibert, S. Spicher, S. Grimme, WIREs Comput. Mol. Sci., 2020, 11,
     e01493. DOI: 10.1002/wcms.1493
   
   for GFN2-xTB:
   * C. Bannwarth, S. Ehlert and S. Grimme., J. Chem. Theory Comput., 2019,
     15, 1652-1671. DOI: 10.1021/acs.jctc.8b01176
   for GFN1-xTB:
   * S. Grimme, C. Bannwarth, P. Shushkov, J. Chem. Theory Comput., 2017,
     13, 1989-2009. DOI: 10.1021/acs.jctc.7b00118
   for GFN0-xTB:
   * P. Pracht, E. Caldeweyher, S. Ehlert, S. Grimme, ChemRxiv, 2019, preprint.
     DOI: 10.26434/chemrxiv.8326202.v1
   for GFN-FF:
   * S. Spicher and S. Grimme, Angew. Chem. Int. Ed., 2020, 59, 15665-15673.
     DOI: 10.1002/anie.202004239
   
   for ALPB and GBSA implicit solvation:
   * S. Ehlert, M. Stahn, S. Spicher, S. Grimme, J. Chem. Theory Comput.,
     2021, 17, 4250-4261. DOI: 10.1021/acs.jctc.1c00471
   
   for ddCOSMO and CPCM-X implicit solvation:
   * M. Stahn, S. Ehlert, S. Grimme, J. Phys. Chem. A,
     2023, XX, XXXX-XXXX. DOI: 10.1021/acs.jpca.3c04382
   
   for DFT-D4:
   * E. Caldeweyher, C. Bannwarth and S. Grimme, J. Chem. Phys., 2017,
     147, 034112. DOI: 10.1063/1.4993215
   * E. Caldeweyher, S. Ehlert, A. Hansen, H. Neugebauer, S. Spicher,
     C. Bannwarth and S. Grimme, J. Chem. Phys., 2019, 150, 154122.
     DOI: 10.1063/1.5090222
   * E. Caldeweyher, J.-M. Mewes, S. Ehlert and S. Grimme, Phys. Chem. Chem. Phys.
     2020, 22, 8499-8512. DOI: 10.1039/D0CP00502A
   
   for sTDA-xTB:
   * S. Grimme and C. Bannwarth, J. Chem. Phys., 2016, 145, 054103.
     DOI: 10.1063/1.4959605
   
   in the mass-spec context:
   * V. Asgeirsson, C. Bauer and S. Grimme, Chem. Sci., 2017, 8, 4879.
     DOI: 10.1039/c7sc00601b
   * J. Koopman and S. Grimme, ACS Omega 2019, 4, 12, 15120-15133.
     DOI: 10.1021/acsomega.9b02011
   
   for metadynamics refer to:
   * S. Grimme, J. Chem. Theory Comput., 2019, 155, 2847-2862
     DOI: 10.1021/acs.jctc.9b00143
   
   for SPH calculations refer to:
   * S. Spicher and S. Grimme, J. Chem. Theory Comput., 2021, 17, 1701-1714
     DOI: 10.1021/acs.jctc.0c01306
   
   for ONIOM refer to:
   * C. Plett, A. Katbashev, S. Ehlert, S. Grimme, M. Bursch,
     Phys. Chem. Chem. Phys., 2023, 25, 17860-17868. DOI: 10.1039/D3CP02178E
   
   for DIPRO refer to:
   * J. Kohn, N. Gildemeister, S. Grimme, D. Fazzi, A. Hansen,
     J. Chem. Phys., 2023, just accepted.
   
   for PTB refer to:
   * S. Grimme, M. Mueller, A. Hansen, J. Chem. Phys., 2023, 158, 124111.
     DOI: 10.1063/5.0137838
   
   with help from (in alphabetical order)
   P. Atkinson, C. Bannwarth, F. Bohle, G. Brandenburg, E. Caldeweyher
   M. Checinski, S. Dohm, S. Ehlert, S. Ehrlich, I. Gerasimov, C. Hölzer
   A. Katbashev, J. Kohn, J. Koopman, C. Lavigne, S. Lehtola, F. März, M. Müller,
   F. Musil, H. Neugebauer, J. Pisarek, C. Plett, P. Pracht, F. Pultar,
   J. Seibert, P. Shushkov, S. Spicher, M. Stahn, M. Steiner, T. Strunk,
   J. Stückrath, T. Rose, and J. Unsleber
   
 * started run on 2025/04/09 at 05:20:45.951     
   ID    Z sym.   atoms
    1    6 C      1, 2, 7, 8, 10, 15, 16, 18, 19
    2    8 O      3, 6, 14, 17
    3   15 P      4, 12
    4   16 S      5, 9, 11, 13
    5    1 H      20-41

           -------------------------------------------------
          |                Calculation Setup                |
           -------------------------------------------------

          program call               : /srv/scratch/z5358697/.xtb/bin/xtb solv.coord --gfn2 --sp --chrg 0 --norestart --parallel 1 --alpb water reference -I xtb_sp-xcontrol-inp
          hostname                   : k163
          coordinate file            : solv.coord
          omp threads                :                     1


           -------------------------------------------------
          |                 G F N 2 - x T B                 |
           -------------------------------------------------

        Reference                      10.1021/acs.jctc.8b01176
      * Hamiltonian:
        H0-scaling (s, p, d)           1.850000    2.230000    2.230000
        zeta-weighting                 0.500000
      * Dispersion:
        s8                             2.700000
        a1                             0.520000
        a2                             5.000000
        s9                             5.000000
      * Repulsion:
        kExp                           1.500000    1.000000
        rExp                           1.000000
      * Coulomb:
        alpha                          2.000000
        third order                    shell-resolved
        anisotropic                    true
        a3                             3.000000
        a5                             4.000000
        cn-shift                       1.200000
        cn-exp                         4.000000
        max-rad                        5.000000

      * Solvation model:               ALPB
        Solvent                        water
        Parameter file                 internal GFN2-xTB/ALPB
        Dielectric constant                8.0200E+01
        Reference state                gsolv=reference [X=1]
        Free energy shift                  2.8945E-03 Eh       1.8164E+00 kcal/mol
        Temperature                        2.9815E+02 K
        Density                            1.0000E+00 kg/L
        Solvent mass                       1.8000E+01 g/mol
        Interaction kernel             P16
        Born radius scaling (c1)           1.4744E+00
        Born radii integrator          GBOBC
        Born offset                        0.0000E+00 a0       0.0000E+00 AA
        H-bond correction              true
        Ion screening                  false
        Surface tension                    1.0000E-05 Eh       1.5569E+01 dyn/cm
        Grid points                               974 per atom

          ...................................................
          :                      SETUP                      :
          :.................................................:
          :  # basis functions                 134          :
          :  # atomic orbitals                 128          :
          :  # shells                           66          :
          :  # electrons                       116          :
          :  max. iterations                   250          :
          :  Hamiltonian                  GFN2-xTB          :
          :  restarted?                      false          :
          :  GBSA solvation                   true          :
          :  PC potential                    false          :
          :  electronic temp.          300.0000000     K    :
          :  accuracy                    1.0000000          :
          :  -> integral cutoff          0.2500000E+02      :
          :  -> integral neglect         0.1000000E-07      :
          :  -> SCF convergence          0.1000000E-05 Eh   :
          :  -> wf. convergence          0.1000000E-03 e    :
          :  Broyden damping             0.4000000          :
          :  net charge                          0          :
          :  unpaired electrons                  0          :
          ...................................................

 iter      E             dE          RMSdq      gap      omega  full diag
   1    -65.4453731 -0.654454E+02  0.645E+00    4.15       0.0  T
   2    -65.5667036 -0.121331E+00  0.375E+00    3.61       1.0  T
   3    -65.5858727 -0.191691E-01  0.108E+00    3.09       1.0  T
   4    -65.5885289 -0.265622E-02  0.498E-01    3.05       1.0  T
   5    -65.5891700 -0.641089E-03  0.264E-01    3.10       1.0  T
   6    -65.5893515 -0.181517E-03  0.123E-01    3.10       1.0  T
   7    -65.5894109 -0.594100E-04  0.456E-02    3.11       1.0  T
   8    -65.5894153 -0.442783E-05  0.180E-02    3.11       1.0  T
   9    -65.5894163 -0.924593E-06  0.542E-03    3.11       2.9  T
  10    -65.5894163 -0.214000E-07  0.270E-03    3.11       5.8  T
  11    -65.5894163 -0.411460E-07  0.837E-04    3.11      18.7  T
  12    -65.5894163 -0.170587E-08  0.466E-04    3.11      33.5  T

   *** convergence criteria satisfied after 12 iterations ***

         #    Occupation            Energy/Eh            Energy/eV
      -------------------------------------------------------------
         1        2.0000           -0.7659925             -20.8437
       ...           ...                  ...                  ...
        52        2.0000           -0.4427603             -12.0481
        53        2.0000           -0.4189603             -11.4005
        54        2.0000           -0.4110846             -11.1862
        55        2.0000           -0.3945991             -10.7376
        56        2.0000           -0.3917946             -10.6613
        57        2.0000           -0.3905811             -10.6283
        58        2.0000           -0.3892182             -10.5912 (HOMO)
        59                         -0.2748184              -7.4782 (LUMO)
        60                         -0.2538847              -6.9086
        61                         -0.2170485              -5.9062
        62                         -0.1845001              -5.0205
        63                         -0.1751147              -4.7651
       ...                                ...                  ...
       128                          1.2718005              34.6075
      -------------------------------------------------------------
                  HL-Gap            0.1143999 Eh            3.1130 eV
             Fermi-level           -0.3320183 Eh           -9.0347 eV

 SCC (total)                   0 d,  0 h,  0 min,  0.059 sec
 SCC setup                      ...        0 min,  0.002 sec (  4.210%)
 Dispersion                     ...        0 min,  0.000 sec (  0.513%)
 classical contributions        ...        0 min,  0.000 sec (  0.096%)
 integral evaluation            ...        0 min,  0.009 sec ( 14.858%)
 iterations                     ...        0 min,  0.025 sec ( 42.756%)
 molecular gradient             ...        0 min,  0.022 sec ( 37.122%)
 printout                       ...        0 min,  0.000 sec (  0.419%)

         :::::::::::::::::::::::::::::::::::::::::::::::::::::
         ::                     SUMMARY                     ::
         :::::::::::::::::::::::::::::::::::::::::::::::::::::
         :: total energy             -65.028060294370 Eh    ::
         :: total w/o Gsasa/hb       -65.031404337519 Eh    ::
         :: gradient norm              0.000101882449 Eh/a0 ::
         :: HOMO-LUMO gap              3.112978567778 eV    ::
         ::.................................................::
         :: SCC energy               -65.588478865741 Eh    ::
         :: -> isotropic ES            0.124352980238 Eh    ::
         :: -> anisotropic ES         -0.014945117210 Eh    ::
         :: -> anisotropic XC          0.030390922472 Eh    ::
         :: -> dispersion             -0.052893134491 Eh    ::
         :: -> Gsolv                  -0.020221495912 Eh    ::
         ::    -> Gelec               -0.023565539061 Eh    ::
         ::    -> Gsasa                0.004450873738 Eh    ::
         ::    -> Ghb                 -0.004001379749 Eh    ::
         ::    -> Gshift               0.002894549160 Eh    ::
         :: repulsion energy           0.560418571371 Eh    ::
         :: add. restraining           0.000000000000 Eh    ::
         :: total charge               0.000000000000 e     ::
         :::::::::::::::::::::::::::::::::::::::::::::::::::::

           -------------------------------------------------
          |                Property Printout                |
           -------------------------------------------------

    * Orbital Energies and Occupations

         #    Occupation            Energy/Eh            Energy/eV
      -------------------------------------------------------------
         1        2.0000           -0.7659925             -20.8437
       ...           ...                  ...                  ...
        46        2.0000           -0.4675779             -12.7234
        47        2.0000           -0.4590905             -12.4925
        48        2.0000           -0.4570728             -12.4376
        49        2.0000           -0.4550081             -12.3814
        50        2.0000           -0.4527940             -12.3212
        51        2.0000           -0.4507902             -12.2666
        52        2.0000           -0.4427603             -12.0481
        53        2.0000           -0.4189603             -11.4005
        54        2.0000           -0.4110846             -11.1862
        55        2.0000           -0.3945991             -10.7376
        56        2.0000           -0.3917946             -10.6613
        57        2.0000           -0.3905811             -10.6283
        58        2.0000           -0.3892182             -10.5912 (HOMO)
        59                         -0.2748184              -7.4782 (LUMO)
        60                         -0.2538847              -6.9086
        61                         -0.2170485              -5.9062
        62                         -0.1845001              -5.0205
        63                         -0.1751147              -4.7651
        64                         -0.1742139              -4.7406
        65                         -0.1713726              -4.6633
        66                         -0.1538465              -4.1864
        67                         -0.1368710              -3.7245
        68                         -0.1226040              -3.3362
        69                         -0.0516129              -1.4045
       ...                                ...                  ...
       128                          1.2718005              34.6075
      -------------------------------------------------------------
                  HL-Gap            0.1143999 Eh            3.1130 eV
             Fermi-level           -0.3320183 Eh           -9.0347 eV

     #   Z          covCN         q      C6AA      α(0)
     1   6 C        3.751    -0.127    23.000     6.839
     2   6 C        3.872     0.077    19.260     6.240
     3   8 O        1.655    -0.259    18.306     5.776
     4  15 P        3.884     0.381   144.401    21.586
     5  16 S        0.926    -0.475   160.185    21.407
     6   8 O        1.655    -0.256    18.266     5.769
     7   6 C        3.868     0.074    19.303     6.248
     8   6 C        3.751    -0.127    23.008     6.841
     9  16 S        2.019    -0.144   147.104    20.413
    10   6 C        3.831     0.042    19.852     6.339
    11  16 S        2.018    -0.148   147.271    20.425
    12  15 P        3.780     0.377   144.582    21.600
    13  16 S        0.927    -0.465   159.739    21.377
    14   8 O        1.654    -0.262    18.362     5.785
    15   6 C        3.812     0.073    19.359     6.263
    16   6 C        3.751    -0.125    22.970     6.835
    17   8 O        1.655    -0.255    18.235     5.765
    18   6 C        3.828     0.069    19.414     6.269
    19   6 C        3.751    -0.128    23.013     6.841
    20   1 H        0.925     0.085     1.924     2.169
    21   1 H        0.925     0.052     2.292     2.368
    22   1 H        0.925     0.072     2.062     2.246
    23   1 H        0.924     0.092     1.858     2.132
    24   1 H        0.924     0.066     2.126     2.280
    25   1 H        0.924     0.094     1.841     2.122
    26   1 H        0.924     0.066     2.133     2.284
    27   1 H        0.925     0.053     2.287     2.365
    28   1 H        0.925     0.067     2.124     2.279
    29   1 H        0.925     0.086     1.923     2.168
    30   1 H        0.925     0.094     1.843     2.123
    31   1 H        0.925     0.093     1.854     2.129
    32   1 H        0.924     0.091     1.865     2.136
    33   1 H        0.924     0.074     2.038     2.232
    34   1 H        0.925     0.064     2.158     2.297
    35   1 H        0.925     0.086     1.917     2.165
    36   1 H        0.925     0.061     2.182     2.310
    37   1 H        0.924     0.075     2.027     2.226
    38   1 H        0.924     0.100     1.787     2.090
    39   1 H        0.925     0.086     1.915     2.164
    40   1 H        0.925     0.066     2.134     2.284
    41   1 H        0.925     0.056     2.249     2.345

 Mol. C6AA /au·bohr⁶  :      26387.989493
 Mol. C8AA /au·bohr⁸  :     862564.720895
 Mol. α(0) /au        :        257.534054


Wiberg/Mayer (AO) data.
largest (>0.10) Wiberg bond orders for each atom

 ---------------------------------------------------------------------------
     #   Z sym  total        # sym  WBO       # sym  WBO       # sym  WBO
 ---------------------------------------------------------------------------
     1   6 C    3.987 --     2 C    1.024    22 H    0.982    21 H    0.976
                            20 H    0.975
     2   6 C    3.887 --     1 C    1.024    24 H    0.966    23 H    0.964
                             3 O    0.874
     3   8 O    2.398 --     4 P    1.324     2 C    0.874
     4  15 P    5.292 --     5 S    1.507     3 O    1.324     6 O    1.322
                             9 S    0.986
     5  16 S    1.837 --     4 P    1.507     9 S    0.133
     6   8 O    2.410 --     4 P    1.322     7 C    0.889
     7   6 C    3.890 --     8 C    1.023    26 H    0.968    25 H    0.964
                             6 O    0.889
     8   6 C    3.988 --     7 C    1.023    28 H    0.982    29 H    0.976
                            27 H    0.976
     9  16 S    2.286 --    10 C    0.986     4 P    0.986     5 S    0.133
    10   6 C    3.954 --    11 S    0.992     9 S    0.986    30 H    0.951
                            31 H    0.950
    11  16 S    2.277 --    10 C    0.992    12 P    0.946    13 S    0.140
    12  15 P    5.298 --    13 S    1.519    14 O    1.354    17 O    1.334
                            11 S    0.946
    13  16 S    1.849 --    12 P    1.519    11 S    0.140
    14   8 O    2.409 --    12 P    1.354    15 C    0.865
    15   6 C    3.883 --    16 C    1.023    33 H    0.970    32 H    0.965
                            14 O    0.865
    16   6 C    3.986 --    15 C    1.023    34 H    0.979    36 H    0.977
                            35 H    0.975
    17   8 O    2.414 --    12 P    1.334    18 C    0.882
    18   6 C    3.885 --    19 C    1.024    37 H    0.967    38 H    0.962
                            17 O    0.882
    19   6 C    3.987 --    18 C    1.024    40 H    0.982    39 H    0.975
                            41 H    0.975
    20   1 H    0.992 --     1 C    0.975
    21   1 H    0.997 --     1 C    0.976
    22   1 H    0.995 --     1 C    0.982
    23   1 H    0.991 --     2 C    0.964
    24   1 H    0.996 --     2 C    0.966
    25   1 H    0.991 --     7 C    0.964
    26   1 H    0.996 --     7 C    0.968
    27   1 H    0.997 --     8 C    0.976
    28   1 H    0.996 --     8 C    0.982
    29   1 H    0.992 --     8 C    0.976
    30   1 H    0.991 --    10 C    0.951
    31   1 H    0.991 --    10 C    0.950
    32   1 H    0.992 --    15 C    0.965
    33   1 H    0.994 --    15 C    0.970
    34   1 H    0.996 --    16 C    0.979
    35   1 H    0.991 --    16 C    0.975
    36   1 H    0.996 --    16 C    0.977
    37   1 H    0.994 --    18 C    0.967
    38   1 H    0.990 --    18 C    0.962
    39   1 H    0.992 --    19 C    0.975
    40   1 H    0.996 --    19 C    0.982
    41   1 H    0.997 --    19 C    0.975
 ---------------------------------------------------------------------------

Topologies differ in total number of bonds
Writing topology from bond orders to xtbtopo.mol

molecular dipole:
                 x           y           z       tot (Debye)
 q only:        0.241       1.719       2.731
   full:        0.231       2.169       2.622       8.669
molecular quadrupole (traceless):
                xx          xy          yy          xz          yz          zz
 q only:       17.980      13.774      -8.952     -28.110      10.215      -9.027
  q+dip:       19.219      11.285      -5.931     -28.014       8.950     -13.289
   full:       19.739      11.570      -7.543     -28.021       9.032     -12.196


           -------------------------------------------------
          | TOTAL ENERGY              -65.028060294370 Eh   |
          | GRADIENT NORM               0.000101882449 Eh/α |
          | HOMO-LUMO GAP               3.112978567778 eV   |
           -------------------------------------------------

------------------------------------------------------------------------
 * finished run on 2025/04/09 at 05:20:46.052     
------------------------------------------------------------------------
 total:
 * wall-time:     0 d,  0 h,  0 min,  0.100 sec
 *  cpu-time:     0 d,  0 h,  0 min,  0.072 sec
 * ratio c/w:     0.721 speedup
 SCF:
 * wall-time:     0 d,  0 h,  0 min,  0.059 sec
 *  cpu-time:     0 d,  0 h,  0 min,  0.059 sec
 * ratio c/w:     0.986 speedup

