      -----------------------------------------------------------      
     |                   =====================                   |     
     |                           x T B                           |     
     |                   =====================                   |     
     |                         S. Grimme                         |     
     |          Mulliken Center for Theoretical Chemistry        |     
     |                    University of Bonn                     |     
      -----------------------------------------------------------      

   * xtb version 6.7.1 (edcfbbe) compiled by 'albert@albert-system' on 2024-07-22

   xtb is free software: you can redistribute it and/or modify it under
   the terms of the GNU Lesser General Public License as published by
   the Free Software Foundation, either version 3 of the License, or
   (at your option) any later version.
   
   xtb is distributed in the hope that it will be useful,
   but WITHOUT ANY WARRANTY; without even the implied warranty of
   MERCHANTABILITY or FITNESS FOR A PARTICULAR PURPOSE.  See the
   GNU Lesser General Public License for more details.
   
   Cite this work as:
   * C. Bannwarth, E. Caldeweyher, S. Ehlert, A. Hansen, P. Pracht,
     J. Seibert, S. Spicher, S. Grimme, WIREs Comput. Mol. Sci., 2020, 11,
     e01493. DOI: 10.1002/wcms.1493
   
   for GFN2-xTB:
   * C. Bannwarth, S. Ehlert and S. Grimme., J. Chem. Theory Comput., 2019,
     15, 1652-1671. DOI: 10.1021/acs.jctc.8b01176
   for GFN1-xTB:
   * S. Grimme, C. Bannwarth, P. Shushkov, J. Chem. Theory Comput., 2017,
     13, 1989-2009. DOI: 10.1021/acs.jctc.7b00118
   for GFN0-xTB:
   * P. Pracht, E. Caldeweyher, S. Ehlert, S. Grimme, ChemRxiv, 2019, preprint.
     DOI: 10.26434/chemrxiv.8326202.v1
   for GFN-FF:
   * S. Spicher and S. Grimme, Angew. Chem. Int. Ed., 2020, 59, 15665-15673.
     DOI: 10.1002/anie.202004239
   
   for ALPB and GBSA implicit solvation:
   * S. Ehlert, M. Stahn, S. Spicher, S. Grimme, J. Chem. Theory Comput.,
     2021, 17, 4250-4261. DOI: 10.1021/acs.jctc.1c00471
   
   for ddCOSMO and CPCM-X implicit solvation:
   * M. Stahn, S. Ehlert, S. Grimme, J. Phys. Chem. A,
     2023, XX, XXXX-XXXX. DOI: 10.1021/acs.jpca.3c04382
   
   for DFT-D4:
   * E. Caldeweyher, C. Bannwarth and S. Grimme, J. Chem. Phys., 2017,
     147, 034112. DOI: 10.1063/1.4993215
   * E. Caldeweyher, S. Ehlert, A. Hansen, H. Neugebauer, S. Spicher,
     C. Bannwarth and S. Grimme, J. Chem. Phys., 2019, 150, 154122.
     DOI: 10.1063/1.5090222
   * E. Caldeweyher, J.-M. Mewes, S. Ehlert and S. Grimme, Phys. Chem. Chem. Phys.
     2020, 22, 8499-8512. DOI: 10.1039/D0CP00502A
   
   for sTDA-xTB:
   * S. Grimme and C. Bannwarth, J. Chem. Phys., 2016, 145, 054103.
     DOI: 10.1063/1.4959605
   
   in the mass-spec context:
   * V. Asgeirsson, C. Bauer and S. Grimme, Chem. Sci., 2017, 8, 4879.
     DOI: 10.1039/c7sc00601b
   * J. Koopman and S. Grimme, ACS Omega 2019, 4, 12, 15120-15133.
     DOI: 10.1021/acsomega.9b02011
   
   for metadynamics refer to:
   * S. Grimme, J. Chem. Theory Comput., 2019, 155, 2847-2862
     DOI: 10.1021/acs.jctc.9b00143
   
   for SPH calculations refer to:
   * S. Spicher and S. Grimme, J. Chem. Theory Comput., 2021, 17, 1701-1714
     DOI: 10.1021/acs.jctc.0c01306
   
   for ONIOM refer to:
   * C. Plett, A. Katbashev, S. Ehlert, S. Grimme, M. Bursch,
     Phys. Chem. Chem. Phys., 2023, 25, 17860-17868. DOI: 10.1039/D3CP02178E
   
   for DIPRO refer to:
   * J. Kohn, N. Gildemeister, S. Grimme, D. Fazzi, A. Hansen,
     J. Chem. Phys., 2023, just accepted.
   
   for PTB refer to:
   * S. Grimme, M. Mueller, A. Hansen, J. Chem. Phys., 2023, 158, 124111.
     DOI: 10.1063/5.0137838
   
   with help from (in alphabetical order)
   P. Atkinson, C. Bannwarth, F. Bohle, G. Brandenburg, E. Caldeweyher
   M. Checinski, S. Dohm, S. Ehlert, S. Ehrlich, I. Gerasimov, C. Hölzer
   A. Katbashev, J. Kohn, J. Koopman, C. Lavigne, S. Lehtola, F. März, M. Müller,
   F. Musil, H. Neugebauer, J. Pisarek, C. Plett, P. Pracht, F. Pultar,
   J. Seibert, P. Shushkov, S. Spicher, M. Stahn, M. Steiner, T. Strunk,
   J. Stückrath, T. Rose, and J. Unsleber
   
 * started run on 2025/04/09 at 05:21:03.528     
   ID    Z sym.   atoms
    1    6 C      1, 2, 7, 8, 10, 15, 16, 18, 19
    2    8 O      3, 6, 14, 17
    3   15 P      4, 12
    4   16 S      5, 9, 11, 13
    5    1 H      20-41

           -------------------------------------------------
          |                Calculation Setup                |
           -------------------------------------------------

          program call               : /srv/scratch/z5358697/.xtb/bin/xtb solv.coord --gfn2 --sp --chrg 0 --norestart --parallel 1 --alpb water reference -I xtb_sp-xcontrol-inp
          hostname                   : k163
          coordinate file            : solv.coord
          omp threads                :                     1


           -------------------------------------------------
          |                 G F N 2 - x T B                 |
           -------------------------------------------------

        Reference                      10.1021/acs.jctc.8b01176
      * Hamiltonian:
        H0-scaling (s, p, d)           1.850000    2.230000    2.230000
        zeta-weighting                 0.500000
      * Dispersion:
        s8                             2.700000
        a1                             0.520000
        a2                             5.000000
        s9                             5.000000
      * Repulsion:
        kExp                           1.500000    1.000000
        rExp                           1.000000
      * Coulomb:
        alpha                          2.000000
        third order                    shell-resolved
        anisotropic                    true
        a3                             3.000000
        a5                             4.000000
        cn-shift                       1.200000
        cn-exp                         4.000000
        max-rad                        5.000000

      * Solvation model:               ALPB
        Solvent                        water
        Parameter file                 internal GFN2-xTB/ALPB
        Dielectric constant                8.0200E+01
        Reference state                gsolv=reference [X=1]
        Free energy shift                  2.8945E-03 Eh       1.8164E+00 kcal/mol
        Temperature                        2.9815E+02 K
        Density                            1.0000E+00 kg/L
        Solvent mass                       1.8000E+01 g/mol
        Interaction kernel             P16
        Born radius scaling (c1)           1.4744E+00
        Born radii integrator          GBOBC
        Born offset                        0.0000E+00 a0       0.0000E+00 AA
        H-bond correction              true
        Ion screening                  false
        Surface tension                    1.0000E-05 Eh       1.5569E+01 dyn/cm
        Grid points                               974 per atom

          ...................................................
          :                      SETUP                      :
          :.................................................:
          :  # basis functions                 134          :
          :  # atomic orbitals                 128          :
          :  # shells                           66          :
          :  # electrons                       116          :
          :  max. iterations                   250          :
          :  Hamiltonian                  GFN2-xTB          :
          :  restarted?                      false          :
          :  GBSA solvation                   true          :
          :  PC potential                    false          :
          :  electronic temp.          300.0000000     K    :
          :  accuracy                    1.0000000          :
          :  -> integral cutoff          0.2500000E+02      :
          :  -> integral neglect         0.1000000E-07      :
          :  -> SCF convergence          0.1000000E-05 Eh   :
          :  -> wf. convergence          0.1000000E-03 e    :
          :  Broyden damping             0.4000000          :
          :  net charge                          0          :
          :  unpaired electrons                  0          :
          ...................................................

 iter      E             dE          RMSdq      gap      omega  full diag
   1    -65.4450252 -0.654450E+02  0.634E+00    4.43       0.0  T
   2    -65.5632633 -0.118238E+00  0.354E+00    3.63       1.0  T
   3    -65.5826306 -0.193673E-01  0.113E+00    3.20       1.0  T
   4    -65.5854930 -0.286243E-02  0.500E-01    3.16       1.0  T
   5    -65.5862292 -0.736204E-03  0.260E-01    3.22       1.0  T
   6    -65.5864170 -0.187731E-03  0.109E-01    3.22       1.0  T
   7    -65.5864589 -0.419576E-04  0.405E-02    3.24       1.0  T
   8    -65.5864637 -0.477532E-05  0.191E-02    3.24       1.0  T
   9    -65.5864647 -0.967715E-06  0.706E-03    3.24       2.2  T
  10    -65.5864647 -0.165461E-07  0.315E-03    3.24       5.0  T
  11    -65.5864647 -0.601885E-07  0.101E-03    3.24      15.5  T
  12    -65.5864647 -0.241450E-08  0.382E-04    3.24      40.8  T
  13    -65.5864647 -0.393385E-09  0.129E-04    3.24     120.7  T

   *** convergence criteria satisfied after 13 iterations ***

         #    Occupation            Energy/Eh            Energy/eV
      -------------------------------------------------------------
         1        2.0000           -0.7685167             -20.9124
       ...           ...                  ...                  ...
        52        2.0000           -0.4483629             -12.2006
        53        2.0000           -0.4204996             -11.4424
        54        2.0000           -0.4141686             -11.2701
        55        2.0000           -0.3999834             -10.8841
        56        2.0000           -0.3993437             -10.8667
        57        2.0000           -0.3920465             -10.6681
        58        2.0000           -0.3868109             -10.5257 (HOMO)
        59                         -0.2676888              -7.2842 (LUMO)
        60                         -0.2583506              -7.0301
        61                         -0.2298385              -6.2542
        62                         -0.1976388              -5.3780
        63                         -0.1769800              -4.8159
       ...                                ...                  ...
       128                          1.3604296              37.0192
      -------------------------------------------------------------
                  HL-Gap            0.1191221 Eh            3.2415 eV
             Fermi-level           -0.3272498 Eh           -8.9049 eV

 SCC (total)                   0 d,  0 h,  0 min,  0.068 sec
 SCC setup                      ...        0 min,  0.003 sec (  3.757%)
 Dispersion                     ...        0 min,  0.000 sec (  0.448%)
 classical contributions        ...        0 min,  0.000 sec (  0.083%)
 integral evaluation            ...        0 min,  0.015 sec ( 22.521%)
 iterations                     ...        0 min,  0.027 sec ( 40.319%)
 molecular gradient             ...        0 min,  0.022 sec ( 32.557%)
 printout                       ...        0 min,  0.000 sec (  0.295%)

         :::::::::::::::::::::::::::::::::::::::::::::::::::::
         ::                     SUMMARY                     ::
         :::::::::::::::::::::::::::::::::::::::::::::::::::::
         :: total energy             -65.025101297209 Eh    ::
         :: total w/o Gsasa/hb       -65.027583060761 Eh    ::
         :: gradient norm              0.000154185816 Eh/a0 ::
         :: HOMO-LUMO gap              3.241476362148 eV    ::
         ::.................................................::
         :: SCC energy               -65.585590173004 Eh    ::
         :: -> isotropic ES            0.129658852913 Eh    ::
         :: -> anisotropic ES         -0.020926959668 Eh    ::
         :: -> anisotropic XC          0.029394632570 Eh    ::
         :: -> dispersion             -0.054024525291 Eh    ::
         :: -> Gsolv                  -0.022851912380 Eh    ::
         ::    -> Gelec               -0.025333675932 Eh    ::
         ::    -> Gsasa                0.003845540648 Eh    ::
         ::    -> Ghb                 -0.004258326256 Eh    ::
         ::    -> Gshift               0.002894549160 Eh    ::
         :: repulsion energy           0.560488875795 Eh    ::
         :: add. restraining           0.000000000000 Eh    ::
         :: total charge              -0.000000000000 e     ::
         :::::::::::::::::::::::::::::::::::::::::::::::::::::

           -------------------------------------------------
          |                Property Printout                |
           -------------------------------------------------

    * Orbital Energies and Occupations

         #    Occupation            Energy/Eh            Energy/eV
      -------------------------------------------------------------
         1        2.0000           -0.7685167             -20.9124
       ...           ...                  ...                  ...
        46        2.0000           -0.4647352             -12.6461
        47        2.0000           -0.4630948             -12.6015
        48        2.0000           -0.4575790             -12.4514
        49        2.0000           -0.4540935             -12.3565
        50        2.0000           -0.4531605             -12.3311
        51        2.0000           -0.4501391             -12.2489
        52        2.0000           -0.4483629             -12.2006
        53        2.0000           -0.4204996             -11.4424
        54        2.0000           -0.4141686             -11.2701
        55        2.0000           -0.3999834             -10.8841
        56        2.0000           -0.3993437             -10.8667
        57        2.0000           -0.3920465             -10.6681
        58        2.0000           -0.3868109             -10.5257 (HOMO)
        59                         -0.2676888              -7.2842 (LUMO)
        60                         -0.2583506              -7.0301
        61                         -0.2298385              -6.2542
        62                         -0.1976388              -5.3780
        63                         -0.1769800              -4.8159
        64                         -0.1757534              -4.7825
        65                         -0.1699331              -4.6241
        66                         -0.1529596              -4.1622
        67                         -0.1315648              -3.5801
        68                         -0.1293884              -3.5208
        69                         -0.0504370              -1.3725
       ...                                ...                  ...
       128                          1.3604296              37.0192
      -------------------------------------------------------------
                  HL-Gap            0.1191221 Eh            3.2415 eV
             Fermi-level           -0.3272498 Eh           -8.9049 eV

     #   Z          covCN         q      C6AA      α(0)
     1   6 C        3.751    -0.131    23.085     6.852
     2   6 C        3.863     0.076    19.278     6.244
     3   8 O        1.655    -0.267    18.443     5.797
     4  15 P        3.866     0.369   144.885    21.622
     5  16 S        0.926    -0.483   160.575    21.433
     6   8 O        1.655    -0.265    18.401     5.791
     7   6 C        3.872     0.095    18.974     6.194
     8   6 C        3.752    -0.127    22.999     6.839
     9  16 S        1.993    -0.099   145.193    20.280
    10   6 C        3.801     0.024    20.178     6.396
    11  16 S        1.991    -0.117   145.959    20.334
    12  15 P        3.826     0.364   145.085    21.637
    13  16 S        0.925    -0.464   159.685    21.374
    14   8 O        1.654    -0.272    18.536     5.812
    15   6 C        3.840     0.076    19.289     6.248
    16   6 C        3.751    -0.136    23.170     6.865
    17   8 O        1.656    -0.272    18.525     5.810
    18   6 C        3.862     0.086    19.121     6.218
    19   6 C        3.751    -0.123    22.929     6.829
    20   1 H        0.925     0.058     2.227     2.334
    21   1 H        0.925     0.088     1.899     2.155
    22   1 H        0.925     0.073     2.054     2.241
    23   1 H        0.924     0.064     2.148     2.292
    24   1 H        0.924     0.091     1.874     2.141
    25   1 H        0.924     0.060     2.203     2.321
    26   1 H        0.924     0.052     2.291     2.367
    27   1 H        0.925     0.076     2.020     2.222
    28   1 H        0.925     0.083     1.946     2.182
    29   1 H        0.925     0.065     2.140     2.288
    30   1 H        0.925     0.144     1.430     1.870
    31   1 H        0.925     0.093     1.850     2.127
    32   1 H        0.924     0.085     1.927     2.171
    33   1 H        0.924     0.067     2.115     2.274
    34   1 H        0.925     0.065     2.136     2.285
    35   1 H        0.925     0.071     2.077     2.254
    36   1 H        0.925     0.089     1.892     2.151
    37   1 H        0.924     0.053     2.277     2.360
    38   1 H        0.924     0.086     1.917     2.165
    39   1 H        0.925     0.081     1.971     2.195
    40   1 H        0.925     0.071     2.077     2.254
    41   1 H        0.925     0.052     2.294     2.369

 Mol. C6AA /au·bohr⁶  :      26404.415604
 Mol. C8AA /au·bohr⁸  :     862492.887544
 Mol. α(0) /au        :        257.592872


Wiberg/Mayer (AO) data.
largest (>0.10) Wiberg bond orders for each atom

 ---------------------------------------------------------------------------
     #   Z sym  total        # sym  WBO       # sym  WBO       # sym  WBO
 ---------------------------------------------------------------------------
     1   6 C    3.986 --     2 C    1.022    22 H    0.981    21 H    0.976
                            20 H    0.975
     2   6 C    3.886 --     1 C    1.022    23 H    0.967    24 H    0.965
                             3 O    0.885
     3   8 O    2.403 --     4 P    1.323     2 C    0.885
     4  15 P    5.304 --     5 S    1.493     3 O    1.323     6 O    1.321
                             9 S    1.021
     5  16 S    1.843 --     4 P    1.493     9 S    0.136
     6   8 O    2.389 --     4 P    1.321     7 C    0.874
     7   6 C    3.896 --     8 C    1.019    25 H    0.971    26 H    0.969
                             6 O    0.874
     8   6 C    3.983 --     7 C    1.019    29 H    0.983    27 H    0.982
                            28 H    0.975
     9  16 S    2.315 --     4 P    1.021    10 C    0.988     5 S    0.136
    10   6 C    3.943 --     9 S    0.988    11 S    0.980    30 H    0.950
                            31 H    0.944
    11  16 S    2.303 --    12 P    1.010    10 C    0.980    13 S    0.131
    12  15 P    5.312 --    13 S    1.541    14 O    1.329    17 O    1.284
                            11 S    1.010
    13  16 S    1.848 --    12 P    1.541    11 S    0.131
    14   8 O    2.386 --    12 P    1.329    15 C    0.870
    15   6 C    3.888 --    16 C    1.022    33 H    0.967    32 H    0.967
                            14 O    0.870
    16   6 C    3.984 --    15 C    1.022    35 H    0.983    34 H    0.978
                            36 H    0.974
    17   8 O    2.380 --    12 P    1.284    18 C    0.885
    18   6 C    3.896 --    19 C    1.022    37 H    0.966    38 H    0.965
                            17 O    0.885
    19   6 C    3.988 --    18 C    1.022    40 H    0.982    39 H    0.977
                            41 H    0.976
    20   1 H    0.997 --     1 C    0.975
    21   1 H    0.992 --     1 C    0.976
    22   1 H    0.995 --     1 C    0.981
    23   1 H    0.996 --     2 C    0.967
    24   1 H    0.992 --     2 C    0.965
    25   1 H    0.996 --     7 C    0.971
    26   1 H    0.997 --     7 C    0.969
    27   1 H    0.994 --     8 C    0.982
    28   1 H    0.991 --     8 C    0.975
    29   1 H    0.996 --     8 C    0.983
    30   1 H    0.979 --    10 C    0.950
    31   1 H    0.991 --    10 C    0.944
    32   1 H    0.992 --    15 C    0.967
    33   1 H    0.995 --    15 C    0.967
    34   1 H    0.996 --    16 C    0.978
    35   1 H    0.995 --    16 C    0.983
    36   1 H    0.990 --    16 C    0.974
    37   1 H    0.997 --    18 C    0.966
    38   1 H    0.993 --    18 C    0.965
    39   1 H    0.992 --    19 C    0.977
    40   1 H    0.995 --    19 C    0.982
    41   1 H    0.997 --    19 C    0.976
 ---------------------------------------------------------------------------

Topologies differ in total number of bonds
Writing topology from bond orders to xtbtopo.mol

molecular dipole:
                 x           y           z       tot (Debye)
 q only:       -0.528      -1.716      -1.314
   full:       -0.416      -1.150      -1.247       4.440
molecular quadrupole (traceless):
                xx          xy          yy          xz          yz          zz
 q only:       29.155       7.607     -17.430      -0.665       2.777     -11.725
  q+dip:       34.516       6.959     -22.617       2.343       2.392     -11.898
   full:       34.426       7.671     -21.629       1.467       2.305     -12.797


           -------------------------------------------------
          | TOTAL ENERGY              -65.025101297209 Eh   |
          | GRADIENT NORM               0.000154185816 Eh/α |
          | HOMO-LUMO GAP               3.241476362148 eV   |
           -------------------------------------------------

------------------------------------------------------------------------
 * finished run on 2025/04/09 at 05:21:03.655     
------------------------------------------------------------------------
 total:
 * wall-time:     0 d,  0 h,  0 min,  0.126 sec
 *  cpu-time:     0 d,  0 h,  0 min,  0.074 sec
 * ratio c/w:     0.590 speedup
 SCF:
 * wall-time:     0 d,  0 h,  0 min,  0.068 sec
 *  cpu-time:     0 d,  0 h,  0 min,  0.060 sec
 * ratio c/w:     0.890 speedup

