
                                 *****************
                                 * O   R   C   A *
                                 *****************

                                            #,                                       
                                            ###                                      
                                            ####                                     
                                            #####                                    
                                            ######                                   
                                           ########,                                 
                                     ,,################,,,,,                         
                               ,,#################################,,                 
                          ,,##########################################,,             
                       ,#########################################, ''#####,          
                    ,#############################################,,   '####,        
                  ,##################################################,,,,####,       
                ,###########''''           ''''###############################       
              ,#####''   ,,,,##########,,,,          '''####'''          '####       
            ,##' ,,,,###########################,,,                        '##       
           ' ,,###''''                  '''############,,,                           
         ,,##''                                '''############,,,,        ,,,,,,###''
      ,#''                                            '''#######################'''  
     '                                                          ''''####''''         
             ,#######,   #######,   ,#######,      ##                                
            ,#'     '#,  ##    ##  ,#'     '#,    #''#        ,####,   ,####,        
            ##       ##  ##   ,#'  ##            #'  '#       #'       #'  '#        
            ##       ##  #######   ##           ,######,      #####,   #    #        
            '#,     ,#'  ##    ##  '#,     ,#' ,#      #,     #,   #   #,  ,#        
             '#######'   ##     ##  '#######'  #'      '#     '####' # '####'        



                #########################################################
                #                        -***-                          #
                #          Department of theory and spectroscopy        #
                #                                                       #
                #                      Frank Neese                      #
                #                                                       #
                #     Directorship, Architecture, Infrastructure        #
                #                    SHARK, DRIVERS                     #
                #        Core code/Algorithms in most modules           #
                #                                                       #
                #        Max Planck Institute fuer Kohlenforschung      #
                #                Kaiser Wilhelm Platz 1                 #
                #                 D-45470 Muelheim/Ruhr                 #
                #                      Germany                          #
                #                                                       #
                #                  All rights reserved                  #
                #                        -***-                          #
                #########################################################


                         Program Version 6.0.0  -   RELEASE  -


 With contributions from (in alphabetic order):
   Daniel Aravena         : Magnetic Suceptibility
   Michael Atanasov       : Ab Initio Ligand Field Theory (pilot matlab implementation)
   Alexander A. Auer      : GIAO ZORA, VPT2 properties, NMR spectrum
   Ute Becker             : All parallelization in ORCA, NUMFREQ, NUMCALC
   Giovanni Bistoni       : ED, misc. LED, open-shell LED, HFLD
   Martin Brehm           : Molecular dynamics
   Dmytro Bykov           : pre 5.0 version of the SCF Hessian
   Marcos Casanova-Páez   : Triplet and SCS-CIS(D). UHF-(DLPNO)-IP/EA/STEOM-CCSD. UHF-CVS-IP/STEOM-CCSD
   Vijay G. Chilkuri      : MRCI spin determinant printing, contributions to CSF-ICE
   Pauline Colinet        : FMM embedding
   Dipayan Datta          : RHF DLPNO-CCSD density
   Achintya Kumar Dutta   : EOM-CC, STEOM-CC
   Nicolas Foglia         : Exact transition moments, OPA infrastructure, MCD improvements
   Dmitry Ganyushin       : Spin-Orbit,Spin-Spin,Magnetic field MRCI
   Miquel Garcia          : C-PCM and meta-GGA Hessian, CCSD/C-PCM, Gaussian charge scheme
   Tiago L. C. Gouveia    : GS-ROHF, GS-ROCIS
   Yang Guo               : DLPNO-NEVPT2, F12-NEVPT2, CIM, IAO-localization
   Andreas Hansen         : Spin unrestricted coupled pair/coupled cluster methods
   Ingolf Harden          : AUTO-CI MPn and infrastructure 
   Benjamin Helmich-Paris : MC-RPA, TRAH-(SCF,CASSCF), AVAS, COSX integrals, SCF dyn. polar.
   Lee Huntington         : MR-EOM, pCC
   Robert Izsak           : Overlap fitted RIJCOSX, COSX-SCS-MP3, EOM
   Riya Kayal             : Wick's Theorem for AUTO-CI, AUTO-CI UHF-CCSDT
   Emily Kempfer          : AUTO-CI, RHF CISDT and CCSDT
   Christian Kollmar      : KDIIS, OOCD, Brueckner-CCSD(T), CCSD density, CASPT2, CASPT2-K, improved NEVPT2
   Axel Koslowski         : Symmetry handling
   Simone Kossmann        : Meta GGA functionals, TD-DFT gradient, OOMP2, (MP2 Hessian; deprecated post 5.0)
   Lucas Lang             : DCDCAS
   Marvin Lechner         : AUTO-CI (C++ implementation), FIC-MRCC
   Spencer Leger          : CASSCF response
   Dagmar Lenk            : GEPOL surface, SMD, ORCA-2-JSON
   Dimitrios Liakos       : Extrapolation schemes; Compound Job, initial MDCI parallelization
   Dimitrios Manganas     : Further ROCIS development; embedding schemes. LFT, Crystal Embedding
   Dimitrios Pantazis     : SARC Basis sets
   Anastasios Papadopoulos: AUTO-CI, single reference methods and gradients
   Taras Petrenko         : pre 6.0 DFT Hessian and TD-DFT gradient, (ASA, deprecated), ECA, 1-Electron XAS/XES, NRVS
   Peter Pinski           : DLPNO-MP2, DLPNO-MP2 Gradient
   Christoph Reimann      : Effective Core Potentials
   Marius Retegan         : Local ZFS, SOC
   Christoph Riplinger    : Optimizer, TS searches, QM/MM, DLPNO-CCSD(T), (RO)-DLPNO pert. Triples
   Michael Roemelt        : Original ROCIS implementation
   Masaaki Saitow         : Open-shell DLPNO-CCSD energy and density
   Barbara Sandhoefer     : DKH picture change effects
   Kantharuban Sivalingam : CASSCF convergence/infrastructure, NEVPT2 and variants, FIC-MRCI
   Bernardo de Souza      : ESD, SOC TD-DFT
   Georgi Stoychev        : AutoAux, RI-MP2 NMR, DLPNO-MP2 response, X2C
   Van Anh Tran           : RI-MP2 g-tensors
   Willem Van den Heuvel  : Paramagnetic NMR
   Zikuan Wang            : NOTCH, Electric field optimization 
   Frank Wennmohs         : Technical directorship and infrastructure
   Hang Xu                : AUTO-CI-Response properties 


 We gratefully acknowledge several colleagues who have allowed us to
 interface, adapt or use parts of their codes:
   Stefan Grimme, W. Hujo, H. Kruse, P. Pracht,  : VdW corrections, initial TS optimization,
                  C. Bannwarth, S. Ehlert,         DFT functionals, gCP, sTDA/sTD-DF
                  L. Wittmann, M. Mueller
   Ed Valeev, F. Pavosevic, A. Kumar             : LibInt (2-el integral package), F12 methods
   Garnet Chan, S. Sharma, J. Yang, R. Olivares  : DMRG
   Ulf Ekstrom                                   : XCFun DFT Library
   Mihaly Kallay                                 : mrcc  (arbitrary order and MRCC methods)
   Frank Weinhold                                : gennbo (NPA and NBO analysis)
   Simon Mueller                                 : openCOSMO-RS
   Christopher J. Cramer and Donald G. Truhlar   : smd solvation model
   Lars Goerigk                                  : TD-DFT with DH, B97 family of functionals
   V. Asgeirsson, H. Jonsson                     : NEB implementation
   FAccTs GmbH                                   : IRC, NEB, NEB-TS, DLPNO-Multilevel, CI-OPT
                                                   MM, QMMM, 2- and 3-layer-ONIOM, Crystal-QMMM,
                                                   LR-CPCM, SF, NACMEs, symmetry and pop. for TD-DFT,
                                                   nearIR, NL-DFT gradient (VV10), updates on ESD,
                                                   ML-optimized integration grids, MBIS, APM,
                                                   GOAT, DOCKER, SOLVATOR, interface openCOSMO-RS
   S Lehtola, MJT Oliveira, MAL Marques          : LibXC Library
   Liviu Ungur et al                             : ANISO software


 Your calculation uses the libint2 library for the computation of 2-el integrals
 For citations please refer to: http://libint.valeyev.net

 Your ORCA version has been built with support for libXC version: 6.2.2
 For citations please refer to: https://libxc.gitlab.io

 This ORCA versions uses:
   CBLAS   interface :  Fast vector & matrix operations
   LAPACKE interface :  Fast linear algebra routines
   SCALAPACK package :  Parallel linear algebra routines
   Shared memory     :  Shared parallel matrices
   BLAS/LAPACK       :  OpenBLAS 0.3.27  USE64BITINT DYNAMIC_ARCH NO_AFFINITY SapphireRapids SINGLE_THREADED
        Core in use  :  SapphireRapids
   Copyright (c) 2011-2014, The OpenBLAS Project


Your calculation utilizes the geometrical counterpoise correction gCP
Please cite in your paper:
H.Kruse, S. Grimme J.Chem.Phys., 136, (2012), 154101 
   

Your calculation utilizes the atom-pairwise dispersion correction
based on EEQ partial charges (D4)


================================================================================

----- Orbital basis set information -----
Your calculation utilizes the basis: def2-SV(P)
   F. Weigend and R. Ahlrichs, Phys. Chem. Chem. Phys. 7, 3297 (2005).

----- AuxJ basis set information -----
Your calculation utilizes the auxiliary basis: def2/J
   F. Weigend, Phys. Chem. Chem. Phys. 8, 1057 (2006).

================================================================================
                                        WARNINGS
                       Please study these warnings very carefully!
================================================================================


================================================================================
                                       INPUT FILE
================================================================================
NAME = sp.inp
|  1> ! pbe def2-sv(p) def2/J RI DEFGRID1 loosescf d4 GCP(DFT/SV(P)) printgap
|  2> %output
|  3>     printlevel normal
|  4> end
|  5> * xyz 0 1
|  6> C 5.3939341687 -0.4005663345 -1.0923134018
|  7> C 4.4274377614 -1.1304323764 -0.179297265
|  8> O 3.5814320703 -0.2082112528 0.5322956212
|  9> P 2.1688292143 0.2785211522 -0.0173713562
| 10> S 2.1682672484 1.1666111785 -1.7701350157
| 11> O 1.6835190874 1.1213553244 1.2282766309
| 12> C 1.7980027715 2.5554001192 1.2777785527
| 13> C 3.24486466 2.991940058 1.3568955306
| 14> S 1.0132213129 -1.4812796878 0.1320706901
| 15> C 0.0252364447 -1.3700448525 -1.406737077
| 16> S -1.7024861408 -1.8009529793 -1.14421421
| 17> P -2.3732289574 -0.0382339109 -0.1356763906
| 18> S -1.1867626249 1.5163660172 -0.2167720267
| 19> O -2.827765105 -0.5641753448 1.2978340765
| 20> C -1.9854087693 -1.2454316974 2.2433273145
| 21> C -1.1219938387 -0.2805617528 3.0310230659
| 22> O -3.7509800613 0.312886284 -0.8026661632
| 23> C -4.8346907 -0.6410148407 -0.9519128764
| 24> C -5.8475770442 -0.4822955758 0.1631106271
| 25> H 4.8496060212 0.1478241029 -1.8580226818
| 26> H 5.9925426398 0.3012327692 -0.5183370508
| 27> H 6.0476550946 -1.1224685268 -1.5709551168
| 28> H 4.9567079943 -1.6726901866 0.6066001781
| 29> H 3.8037465381 -1.8289759553 -0.7454534015
| 30> H 1.302994429 2.9734049097 0.3945594295
| 31> H 1.2351160386 2.8328712647 2.1699457737
| 32> H 3.7636805827 2.7058800664 0.4423620438
| 33> H 3.2912283267 4.0705992093 1.4678952917
| 34> H 3.7328670152 2.5148492378 2.2026673762
| 35> H 0.4075616702 -2.0978870565 -2.1177738861
| 36> H 0.1083731903 -0.3524886266 -1.7970286054
| 37> H -2.6902961734 -1.7645329436 2.8955676292
| 38> H -1.3680443854 -1.9786456786 1.7140380244
| 39> H -1.7412285064 0.4751230971 3.5071048792
| 40> H -0.5726498141 -0.8295266431 3.789042473
| 41> H -0.409478424 0.2182835697 2.3765853736
| 42> H -5.2717358932 -0.4032252863 -1.9232106095
| 43> H -4.4170596778 -1.6511835846 -0.9735952388
| 44> H -6.2225721129 0.5373134595 0.1816326573
| 45> H -6.6734636416 -1.1653779594 -0.0088696321
| 46> H -5.3909807241 -0.703545101 1.1236950754
| 47> *
| 48> 
| 49>                          ****END OF INPUT****
================================================================================

                       ****************************
                       * Single Point Calculation *
                       ****************************

---------------------------------
CARTESIAN COORDINATES (ANGSTROEM)
---------------------------------
  C      5.393934   -0.400566   -1.092313
  C      4.427438   -1.130432   -0.179297
  O      3.581432   -0.208211    0.532296
  P      2.168829    0.278521   -0.017371
  S      2.168267    1.166611   -1.770135
  O      1.683519    1.121355    1.228277
  C      1.798003    2.555400    1.277779
  C      3.244865    2.991940    1.356896
  S      1.013221   -1.481280    0.132071
  C      0.025236   -1.370045   -1.406737
  S     -1.702486   -1.800953   -1.144214
  P     -2.373229   -0.038234   -0.135676
  S     -1.186763    1.516366   -0.216772
  O     -2.827765   -0.564175    1.297834
  C     -1.985409   -1.245432    2.243327
  C     -1.121994   -0.280562    3.031023
  O     -3.750980    0.312886   -0.802666
  C     -4.834691   -0.641015   -0.951913
  C     -5.847577   -0.482296    0.163111
  H      4.849606    0.147824   -1.858023
  H      5.992543    0.301233   -0.518337
  H      6.047655   -1.122469   -1.570955
  H      4.956708   -1.672690    0.606600
  H      3.803747   -1.828976   -0.745453
  H      1.302994    2.973405    0.394559
  H      1.235116    2.832871    2.169946
  H      3.763681    2.705880    0.442362
  H      3.291228    4.070599    1.467895
  H      3.732867    2.514849    2.202667
  H      0.407562   -2.097887   -2.117774
  H      0.108373   -0.352489   -1.797029
  H     -2.690296   -1.764533    2.895568
  H     -1.368044   -1.978646    1.714038
  H     -1.741229    0.475123    3.507105
  H     -0.572650   -0.829527    3.789042
  H     -0.409478    0.218284    2.376585
  H     -5.271736   -0.403225   -1.923211
  H     -4.417060   -1.651184   -0.973595
  H     -6.222572    0.537313    0.181633
  H     -6.673464   -1.165378   -0.008870
  H     -5.390981   -0.703545    1.123695

----------------------------
CARTESIAN COORDINATES (A.U.)
----------------------------
  NO LB      ZA    FRAG     MASS         X           Y           Z
   0 C     6.0000    0    12.011   10.193058   -0.756961   -2.064173
   1 C     6.0000    0    12.011    8.366645   -2.136208   -0.338823
   2 O     8.0000    0    15.999    6.767926   -0.393462    1.005893
   3 P    15.0000    0    30.974    4.098493    0.526329   -0.032827
   4 S    16.0000    0    32.060    4.097431    2.204576   -3.345070
   5 O     8.0000    0    15.999    3.181390    2.119054    2.321106
   6 C     6.0000    0    12.011    3.397733    4.829006    2.414652
   7 C     6.0000    0    12.011    6.131906    5.653947    2.564161
   8 S    16.0000    0    32.060    1.914711   -2.799213    0.249577
   9 C     6.0000    0    12.011    0.047690   -2.589010   -2.658348
  10 S    16.0000    0    32.060   -3.217233   -3.403308   -2.162251
  11 P    15.0000    0    30.974   -4.484753   -0.072252   -0.256391
  12 S    16.0000    0    32.060   -2.242656    2.865516   -0.409640
  13 O     8.0000    0    15.999   -5.343702   -1.066137    2.452551
  14 C     6.0000    0    12.011   -3.751879   -2.353525    4.239274
  15 C     6.0000    0    12.011   -2.120261   -0.530185    5.727804
  16 O     8.0000    0    15.999   -7.088325    0.591269   -1.516819
  17 C     6.0000    0    12.011   -9.136241   -1.211342   -1.798855
  18 C     6.0000    0    12.011  -11.050319   -0.911407    0.308234
  19 H     1.0000    0     1.008    9.164427    0.279347   -3.511154
  20 H     1.0000    0     1.008   11.324264    0.569247   -0.979515
  21 H     1.0000    0     1.008   11.428412   -2.121158   -2.968675
  22 H     1.0000    0     1.008    9.366821   -3.160926    1.146308
  23 H     1.0000    0     1.008    7.188039   -3.456264   -1.408703
  24 H     1.0000    0     1.008    2.462303    5.618921    0.745609
  25 H     1.0000    0     1.008    2.334031    5.353351    4.100603
  26 H     1.0000    0     1.008    7.112326    5.113372    0.835943
  27 H     1.0000    0     1.008    6.219520    7.692318    2.773920
  28 H     1.0000    0     1.008    7.054096    4.752376    4.162438
  29 H     1.0000    0     1.008    0.770180   -3.964432   -4.002013
  30 H     1.0000    0     1.008    0.204796   -0.666107   -3.395892
  31 H     1.0000    0     1.008   -5.083923   -3.334484    5.471830
  32 H     1.0000    0     1.008   -2.585229   -3.739098    3.239062
  33 H     1.0000    0     1.008   -3.290445    0.897853    6.627468
  34 H     1.0000    0     1.008   -1.082151   -1.567578    7.160253
  35 H     1.0000    0     1.008   -0.773802    0.412496    4.491095
  36 H     1.0000    0     1.008   -9.962137   -0.761985   -3.634341
  37 H     1.0000    0     1.008   -8.347033   -3.120285   -1.839828
  38 H     1.0000    0     1.008  -11.758957    1.015375    0.343236
  39 H     1.0000    0     1.008  -12.611019   -2.202245   -0.016761
  40 H     1.0000    0     1.008  -10.187477   -1.329508    2.123476

--------------------------------
INTERNAL COORDINATES (ANGSTROEM)
--------------------------------
 C      0   0   0     0.000000000000     0.00000000     0.00000000
 C      1   0   0     1.516712962462     0.00000000     0.00000000
 O      2   1   0     1.439646437803   111.33068086     0.00000000
 P      3   2   1     1.592007867098   123.13519715    90.85388789
 S      4   3   2     1.964913396739   116.51463973   301.83513688
 O      4   3   2     1.580358905080    99.40403187   174.53914397
 C      6   4   3     1.439458727328   122.27575697    99.30637931
 C      7   6   4     1.513352549393   111.42050047   291.89967134
 S      4   3   2     2.110606913531   101.91485295    69.25492729
 C      9   4   3     1.832052573608   100.67111348   218.84937977
 S     10   9   4     1.799895941961   112.37140784   222.96112602
 P     11  10   9     2.138743316362    99.93336299    74.55572869
 S     12  11  10     1.957309325783   116.42135277    14.29266487
 O     12  11  10     1.593163444425   103.98652693   242.42555664
 C     14  12  11     1.437926241973   125.51504689    59.19075945
 C     15  14  12     1.515560605568   111.95388524    80.68198743
 O     12  11  10     1.570464533925   105.01822219   135.79100311
 C     17  12  11     1.451423675409   123.48810183    51.72433624
 C     18  17  12     1.514730327377   110.77634683    97.49433508
 H      1   2   3     1.087812440392   110.33171370   296.91945525
 H      1   2   3     1.086417477370   110.11650864    57.00944732
 H      1   2   3     1.085168980180   109.22419645   177.06631386
 H      2   1   3     1.091698357253   111.31136415   244.07041514
 H      2   1   3     1.094297329130   111.03450603   121.96529409
 H      7   6   4     1.095370842962   108.45168260    54.80433782
 H      7   6   4     1.090776815342   103.91653623   170.92343762
 H      8   7   6     1.089665902431   109.60912051    64.67628364
 H      8   7   6     1.085346074410   109.44302383   184.22801492
 H      8   7   6     1.086780550162   110.08170404   304.90180598
 H     10   9   4     1.086968350906   108.60867701   106.23134593
 H     10   9   4     1.093004971845   108.38686573   345.19342782
 H     15  14  12     1.091672929217   103.87994640   200.64801021
 H     15  14  12     1.094937750445   109.25115598   317.47018034
 H     16  15  14     1.086814178692   110.22731144    54.57658286
 H     16  15  14     1.085234873051   109.23028395   174.95532889
 H     16  15  14     1.088491417085   110.62208763   294.55025800
 H     18  17  12     1.091316479948   104.31973314   217.44405374
 H     18  17  12     1.093309968259   108.90899364   334.48993718
 H     19  18  17     1.086538978600   109.97814719    56.73440284
 H     19  18  17     1.085480273475   109.03857358   176.57679206
 H     19  18  17     1.086348946815   110.39603390   296.75514935

---------------------------
INTERNAL COORDINATES (A.U.)
---------------------------
 C      0   0   0     0.000000000000     0.00000000     0.00000000
 C      1   0   0     2.866172122821     0.00000000     0.00000000
 O      2   1   0     2.720537497122   111.33068086     0.00000000
 P      3   2   1     3.008458871862   123.13519715    90.85388789
 S      4   3   2     3.713148196709   116.51463973   301.83513688
 O      4   3   2     2.986445523905    99.40403187   174.53914397
 C      6   4   3     2.720182775732   122.27575697    99.30637931
 C      7   6   4     2.859821862424   111.42050047   291.89967134
 S      4   3   2     3.988469042935   101.91485295    69.25492729
 C      9   4   3     3.462077627065   100.67111348   218.84937977
 S     10   9   4     3.401310399862   112.37140784   222.96112602
 P     11  10   9     4.041639138678    99.93336299    74.55572869
 S     12  11  10     3.698778585101   116.42135277    14.29266487
 O     12  11  10     3.010642596538   103.98652693   242.42555664
 C     14  12  11     2.717286798108   125.51504689    59.19075945
 C     15  14  12     2.863994483883   111.95388524    80.68198743
 O     12  11  10     2.967747872155   105.01822219   135.79100311
 C     17  12  11     2.742793250812   123.48810183    51.72433624
 C     18  17  12     2.862425485487   110.77634683    97.49433508
 H      1   2   3     2.055667597413   110.33171370   296.91945525
 H      1   2   3     2.053031499334   110.11650864    57.00944732
 H      1   2   3     2.050672181567   109.22419645   177.06631386
 H      2   1   3     2.063010916059   111.31136415   244.07041514
 H      2   1   3     2.067922261137   111.03450603   121.96529409
 H      7   6   4     2.069950908281   108.45168260    54.80433782
 H      7   6   4     2.061269454226   103.91653623   170.92343762
 H      8   7   6     2.059170133066   109.60912051    64.67628364
 H      8   7   6     2.051006841162   109.44302383   184.22801492
 H      8   7   6     2.053717607478   110.08170404   304.90180598
 H     10   9   4     2.054072499453   108.60867701   106.23134593
 H     10   9   4     2.065480059801   108.38686573   345.19342782
 H     15  14  12     2.062962864036   103.87994640   200.64801021
 H     15  14  12     2.069132482033   109.25115598   317.47018034
 H     16  15  14     2.053781156190   110.22731144    54.57658286
 H     16  15  14     2.050796701047   109.23028395   174.95532889
 H     16  15  14     2.056950677415   110.62208763   294.55025800
 H     18  17  12     2.062289272537   104.31973314   217.44405374
 H     18  17  12     2.066056419497   108.90899364   334.48993718
 H     19  18  17     2.053261103385   109.97814719    56.73440284
 H     19  18  17     2.051260440642   109.03857358   176.57679206
 H     19  18  17     2.052901995354   110.39603390   296.75514935

---------------------
BASIS SET INFORMATION
---------------------
There are 5 groups of distinct atoms

 Group   1 Type C   : 7s4p1d contracted to 3s2p1d pattern {511/31/1}
 Group   2 Type O   : 7s4p1d contracted to 3s2p1d pattern {511/31/1}
 Group   3 Type P   : 10s7p1d contracted to 4s3p1d pattern {5311/511/1}
 Group   4 Type S   : 10s7p1d contracted to 4s3p1d pattern {5311/511/1}
 Group   5 Type H   : 4s contracted to 2s pattern {31}

Atom   0C    basis set group =>   1
Atom   1C    basis set group =>   1
Atom   2O    basis set group =>   2
Atom   3P    basis set group =>   3
Atom   4S    basis set group =>   4
Atom   5O    basis set group =>   2
Atom   6C    basis set group =>   1
Atom   7C    basis set group =>   1
Atom   8S    basis set group =>   4
Atom   9C    basis set group =>   1
Atom  10S    basis set group =>   4
Atom  11P    basis set group =>   3
Atom  12S    basis set group =>   4
Atom  13O    basis set group =>   2
Atom  14C    basis set group =>   1
Atom  15C    basis set group =>   1
Atom  16O    basis set group =>   2
Atom  17C    basis set group =>   1
Atom  18C    basis set group =>   1
Atom  19H    basis set group =>   5
Atom  20H    basis set group =>   5
Atom  21H    basis set group =>   5
Atom  22H    basis set group =>   5
Atom  23H    basis set group =>   5
Atom  24H    basis set group =>   5
Atom  25H    basis set group =>   5
Atom  26H    basis set group =>   5
Atom  27H    basis set group =>   5
Atom  28H    basis set group =>   5
Atom  29H    basis set group =>   5
Atom  30H    basis set group =>   5
Atom  31H    basis set group =>   5
Atom  32H    basis set group =>   5
Atom  33H    basis set group =>   5
Atom  34H    basis set group =>   5
Atom  35H    basis set group =>   5
Atom  36H    basis set group =>   5
Atom  37H    basis set group =>   5
Atom  38H    basis set group =>   5
Atom  39H    basis set group =>   5
Atom  40H    basis set group =>   5
---------------------------------
AUXILIARY/J BASIS SET INFORMATION
---------------------------------
There are 5 groups of distinct atoms

 Group   1 Type C   : 12s5p4d2f1g contracted to 6s4p3d1f1g pattern {711111/2111/211/2/1}
 Group   2 Type O   : 12s5p4d2f1g contracted to 6s4p3d1f1g pattern {711111/2111/211/2/1}
 Group   3 Type P   : 14s5p5d2f1g contracted to 8s4p3d1f1g pattern {71111111/2111/311/2/1}
 Group   4 Type S   : 14s5p5d2f1g contracted to 8s4p3d1f1g pattern {71111111/2111/311/2/1}
 Group   5 Type H   : 5s2p1d contracted to 3s1p1d pattern {311/2/1}

Atom   0C    basis set group =>   1
Atom   1C    basis set group =>   1
Atom   2O    basis set group =>   2
Atom   3P    basis set group =>   3
Atom   4S    basis set group =>   4
Atom   5O    basis set group =>   2
Atom   6C    basis set group =>   1
Atom   7C    basis set group =>   1
Atom   8S    basis set group =>   4
Atom   9C    basis set group =>   1
Atom  10S    basis set group =>   4
Atom  11P    basis set group =>   3
Atom  12S    basis set group =>   4
Atom  13O    basis set group =>   2
Atom  14C    basis set group =>   1
Atom  15C    basis set group =>   1
Atom  16O    basis set group =>   2
Atom  17C    basis set group =>   1
Atom  18C    basis set group =>   1
Atom  19H    basis set group =>   5
Atom  20H    basis set group =>   5
Atom  21H    basis set group =>   5
Atom  22H    basis set group =>   5
Atom  23H    basis set group =>   5
Atom  24H    basis set group =>   5
Atom  25H    basis set group =>   5
Atom  26H    basis set group =>   5
Atom  27H    basis set group =>   5
Atom  28H    basis set group =>   5
Atom  29H    basis set group =>   5
Atom  30H    basis set group =>   5
Atom  31H    basis set group =>   5
Atom  32H    basis set group =>   5
Atom  33H    basis set group =>   5
Atom  34H    basis set group =>   5
Atom  35H    basis set group =>   5
Atom  36H    basis set group =>   5
Atom  37H    basis set group =>   5
Atom  38H    basis set group =>   5
Atom  39H    basis set group =>   5
Atom  40H    basis set group =>   5
------------------------------------------------------------------------------
                             ORCA STARTUP CALCULATIONS
                           -- RI-GTO INTEGRALS CHOSEN --
------------------------------------------------------------------------------
------------------------------------------------------------------------------
                   ___                                                        
                  /   \      - P O W E R E D   B Y -                         
                 /     \                                                     
                 |  |  |   _    _      __       _____    __    __             
                 |  |  |  | |  | |    /  \     |  _  \  |  |  /  |          
                  \  \/   | |  | |   /    \    | | | |  |  | /  /          
                 / \  \   | |__| |  /  /\  \   | |_| |  |  |/  /          
                |  |  |   |  __  | /  /__\  \  |    /   |      \           
                |  |  |   | |  | | |   __   |  |    \   |  |\   \          
                \     /   | |  | | |  |  |  |  | |\  \  |  | \   \       
                 \___/    |_|  |_| |__|  |__|  |_| \__\ |__|  \__/        
                                                                              
                      - O R C A' S   B I G   F R I E N D -                    
                                      &                                       
                       - I N T E G R A L  F E E D E R -                       
                                                                              
 v1 FN, 2020, v2 2021, v3 2022-2024                                           
------------------------------------------------------------------------------


----------------------
SHARK INTEGRAL PACKAGE
----------------------

Number of atoms                             ...     41
Number of basis functions                   ...    334
Number of shells                            ...    170
Maximum angular momentum                    ...      2
Integral batch strategy                     ... SHARK/LIBINT Hybrid
RI-J (if used) integral strategy            ... SPLIT-RIJ (Revised 2003 algorithm where possible)
Printlevel                                  ...      1
Contraction scheme used                     ... SEGMENTED contraction
Prescreening option                         ... SCHWARTZ
   Thresh                                   ... 1.000e-09
   Tcut                                     ... 1.000e-10
   Tpresel                                  ... 1.000e-10 
Coulomb Range Separation                    ... NOT USED
Exchange Range Separation                   ... NOT USED
Multipole approximations                    ... NOT USED
Finite Nucleus Model                        ... NOT USED
CABS basis                                  ... NOT available
Auxiliary Coulomb fitting basis             ... AVAILABLE
   # of basis functions in Aux-J            ...   1185
   # of shells in Aux-J                     ...    407
   Maximum angular momentum in Aux-J        ...      4
Auxiliary J/K fitting basis                 ... NOT available
Auxiliary Correlation fitting basis         ... NOT available
Auxiliary 'external' fitting basis          ... NOT available

Checking pre-screening integrals            ... done (  0.0 sec) Dimension = 170
Check shell pair data                       ... done (  0.0 sec)
Shell pair information
Shell pair cut-off parameter TPreSel        ...   1.0e-10
Total number of shell pairs                 ...     14535
Shell pairs after pre-screening             ...     10074
Total number of primitive shell pairs       ...     62501
Primitive shell pairs kept                  ...     25054
          la=0 lb=0:   3888 shell pairs
          la=1 lb=0:   3417 shell pairs
          la=1 lb=1:    797 shell pairs
          la=2 lb=0:   1274 shell pairs
          la=2 lb=1:    587 shell pairs
          la=2 lb=2:    111 shell pairs

Calculating one electron integrals          ... done (  0.1 sec)
Calculating RI/J V-Matrix + Cholesky decomp.... done (  0.1 sec)
Calculating Nuclear repulsion               ... done (  0.0 sec) ENN=   2768.921538119032 Eh

Diagonalization of the overlap matrix:
Smallest eigenvalue                        ... 3.104e-03
Time for diagonalization                   ...    0.010 sec
Threshold for overlap eigenvalues          ... 1.000e-07
Number of eigenvalues below threshold      ... 0
Time for construction of square roots      ...    0.024 sec
Total time needed                          ...    0.042 sec

-------------------
DFT GRID GENERATION
-------------------

General Integration Accuracy     IntAcc      ... 4.159
Radial Grid Type                 RadialGrid  ... OptM3 with GC (2021)
Angular Grid (max. ang.)         AngularGrid ... 3 (Lebedev-194)
Angular grid pruning method      GridPruning ... 4 (adaptive)
Weight generation scheme         WeightScheme... mBecke (2022)
Basis function cutoff            BFCut       ... 1.0000e-10
Integration weight cutoff        WCut        ... 1.0000e-14
Partially contracted basis set               ... off
Rotationally invariant grid construction     ... off
Angular grids for H and He will be reduced by one unit

Total number of grid points                  ...    97462
Total number of batches                      ...     1542
Average number of points per batch           ...       63
Average number of grid points per atom       ...     2377
Initializing property integral containers    ... done (  0.0 sec)

SHARK setup successfully completed in   1.6 seconds

Maximum memory used throughout the entire STARTUP-calculation: 51.4 MB
-------------------------------------------------------------------------------
                                 ORCA GUESS
                   Start orbitals & Density for SCF / CASSCF
-------------------------------------------------------------------------------

------------
SCF SETTINGS
------------
Hamiltonian:
 Density Functional     Method          .... DFT(GTOs)
 Exchange Functional    Exchange        .... PBE
   PBE kappa parameter   XKappa         ....  0.804000
   PBE mue parameter    XMuePBE         ....  0.219520
 Correlation Functional Correlation     .... PBE
   PBE beta parameter  CBetaPBE         ....  0.066725
 LDA part of GGA corr.  LDAOpt          .... PW91-LDA
 Gradients option       PostSCFGGA      .... off
   NL short-range parameter             ....  6.400000
 RI-approximation to the Coulomb term is turned on
   Number of AuxJ basis functions       .... 1185


General Settings:
 Integral files         IntName         .... sp
 Hartree-Fock type      HFTyp           .... RHF
 Total Charge           Charge          ....    0
 Multiplicity           Mult            ....    1
 Number of Electrons    NEL             ....  202
 Basis Dimension        Dim             ....  334
 Nuclear Repulsion      ENuc            ....   2768.9215381190 Eh

Convergence Acceleration:
 AO-DIIS                CNVDIIS         .... on
   Start iteration      DIISMaxIt       ....    12
   Startup error        DIISStart       ....  0.200000
   # of expansion vecs  DIISMaxEq       ....     5
   Bias factor          DIISBfac        ....   1.050
   Max. coefficient     DIISMaxC        ....  10.000
 MO-DIIS                CNVKDIIS        .... off
 Trust-Rad. Augm. Hess. CNVTRAH         .... auto
   Auto Start mean grad. ratio tolernc. ....  1.125000
   Auto Start start iteration           ....    50
   Auto Start num. interpolation iter.  ....    10
   Max. Number of Micro iterations      ....    24
   Max. Number of Macro iterations      .... Maxiter - #DIIS iter
   Number of Davidson start vectors     ....     2
   Converg. threshold    (grad. norm)   ....   1.000e-04
   Grad. Scal. Fac. for Micro threshold ....   0.100
   Minimum threshold for Micro iter.    ....   1.000e-02
   NR start threshold (gradient norm)   ....   1.000e-04
   Initial trust radius                 ....   0.400
   Minimum AH scaling param. (alpha)    ....   1.000
   Maximum AH scaling param. (alpha)    .... 1000.000
   Quad. conv. algorithm                .... NR
   White noise on init. David. guess    .... on
   Maximum white noise                  ....   0.010
   Pseudo random numbers                .... off
   Inactive MOs                         .... canonical
   Orbital update algorithm             .... Taylor
   Preconditioner                       .... Diag
   Full preconditioner red. dimension   ....   250
 SOSCF                  CNVSOSCF        .... on
   Start iteration      SOSCFMaxIt      ....   150
   Startup grad/error   SOSCFStart      ....  0.003300
   Hessian update       SOSCFHessUp     .... L-BFGS
 Level Shifting         CNVShift        .... on
   Level shift para.    LevelShift      ....    0.2500
   Turn off err/grad.   ShiftErr        ....    0.0010
 Zerner damping         CNVZerner       .... off
 Static damping         CNVDamp         .... on
   Fraction old density DampFac         ....    0.7000
   Max. Damping (<1)    DampMax         ....    0.9800
   Min. Damping (>=0)   DampMin         ....    0.0000
   Turn off err/grad.   DampErr         ....    0.1000

SCF Procedure:
 Maximum # iterations   MaxIter         ....   125
 SCF integral mode      SCFMode         .... Direct
   Integral package                     .... SHARK and LIBINT hybrid scheme
 Reset frequency        DirectResetFreq ....    20
 Integral Threshold     Thresh          ....  1.000e-09 Eh
 Primitive CutOff       TCut            ....  1.000e-10 Eh

Convergence Tolerance:
 Convergence Check Mode ConvCheckMode   .... Total+1el-Energy
 Convergence forced     ConvForced      .... 0
 Energy Change          TolE            ....  1.000e-05 Eh
 1-El. energy change                    ....  1.000e-02 Eh
 Orbital Gradient       TolG            ....  1.000e-04
 Orbital Rotation angle TolX            ....  1.000e-04
 DIIS Error             TolErr          ....  5.000e-04

------------------------------
INITIAL GUESS: MODEL POTENTIAL
------------------------------
Loading Hartree-Fock densities                     ... done
Calculating cut-offs                               ... done
Initializing the effective Hamiltonian             ... done
Setting up the integral package (SHARK)            ... done
Starting the Coulomb interaction                   ... done (   0.6 sec)
Making the grid                                    ... done (   0.6 sec)
Mapping shells                                     ... done
Starting the XC term evaluation                    ... done (   0.4 sec)
  promolecular density results
     # of electrons  =    201.987140458
     EX              =   -229.996095051
     EC              =     -7.287468230
     EX+EC           =   -237.283563281
Transforming the Hamiltonian                       ... done (   0.0 sec)
Diagonalizing the Hamiltonian                      ... done (   0.0 sec)
Back transforming the eigenvectors                 ... done (   0.0 sec)
Now organizing SCF variables                       ... done
                      ------------------
                      INITIAL GUESS DONE (   1.6 sec)
                      ------------------
             **** ENERGY FILE WAS UPDATED (sp.en.tmp) ****
Finished Guess after   1.9 sec
Maximum memory used throughout the entire GUESS-calculation: 39.0 MB

-------------------------------------------------------------------------------------------
                                      ORCA LEAN-SCF
                              memory conserving SCF solver
-------------------------------------------------------------------------------------------

----------------------------------------D-I-I-S--------------------------------------------
Iteration    Energy (Eh)           Delta-E    RMSDP     MaxDP     DIISErr   Damp  Time(sec)
-------------------------------------------------------------------------------------------
               ***  Starting incremental Fock matrix formation  ***
    1    -2929.1859066895754040     0.00e+00  2.72e-03  1.39e-01  1.80e-01  0.700   2.2
    2    -2929.4143907046714048    -2.28e-01  1.76e-03  7.16e-02  7.49e-02  0.700   2.1
                               ***Turning on AO-DIIS***
    3    -2929.4861940362011410    -7.18e-02  6.79e-04  1.98e-02  2.20e-02  0.700   2.0
    4    -2929.5315781515078015    -4.54e-02  1.03e-03  3.74e-02  1.08e-02  0.000   2.0
    5    -2929.6378490449001220    -1.06e-01  3.16e-04  1.34e-02  8.10e-03  0.000   2.0
                              *** Initializing SOSCF ***
---------------------------------------S-O-S-C-F--------------------------------------
Iteration    Energy (Eh)           Delta-E    RMSDP     MaxDP     MaxGrad    Time(sec)
--------------------------------------------------------------------------------------
    6    -2929.6389745603623851    -1.13e-03  1.13e-04  3.50e-03  2.55e-03     1.9
               *** Restarting incremental Fock matrix formation ***
    7    -2929.6391200354787543    -1.45e-04  7.75e-05  2.22e-03  2.93e-04     2.2
    8    -2929.6391244025685410    -4.37e-06  3.25e-05  7.55e-04  2.72e-04     1.8
                 **** Energy Check signals convergence ****

               *****************************************************
               *                     SUCCESS                       *
               *           SCF CONVERGED AFTER   8 CYCLES          *
               *****************************************************

             **** ENERGY FILE WAS UPDATED (sp.en.tmp) ****

----------------
TOTAL SCF ENERGY
----------------

Total Energy       :      -2929.63912440256854 Eh          -79719.53344 eV

Components:
Nuclear Repulsion  :       2768.92153811903199 Eh           75346.18558 eV
Electronic Energy  :      -5698.56066252160053 Eh         -155065.71902 eV
One Electron Energy:      -9556.81381132441675 Eh         -260054.12470 eV
Two Electron Energy:       3858.25314880281667 Eh          104988.40569 eV

Virial components:
Potential Energy   :      -5848.90066850278981 Eh         -159156.67856 eV
Kinetic Energy     :       2919.26154410022127 Eh           79437.14512 eV
Virial Ratio       :          2.00355486486756

DFT components:
N(Alpha)           :      100.999882135405 electrons
N(Beta)            :      100.999882135405 electrons
N(Total)           :      201.999764270809 electrons
E(X)               :     -231.802792363235 Eh       
E(C)               :       -7.296274052730 Eh       
E(XC)              :     -239.099066415964 Eh       

---------------
SCF CONVERGENCE
---------------

  Last Energy change         ...    4.3671e-06  Tolerance :   1.0000e-05
  Last MAX-Density change    ...    7.5517e-04  Tolerance :   1.0000e-03
  Last RMS-Density change    ...    3.2507e-05  Tolerance :   1.0000e-04
  Last DIIS Error            ...    2.5510e-03  Tolerance :   5.0000e-04
  Last Orbital Gradient      ...    2.7185e-04  Tolerance :   1.0000e-04
  Last Orbital Rotation      ...    4.4306e-04  Tolerance :   1.0000e-04


----------------
ORBITAL ENERGIES
----------------

  NO   OCC          E(Eh)            E(eV) 
   0   2.0000     -88.045415     -2395.8375 
   1   2.0000     -88.043380     -2395.7822 
   2   2.0000     -87.986892     -2394.2451 
   3   2.0000     -87.980570     -2394.0730 
   4   2.0000     -76.425700     -2079.6490 
   5   2.0000     -76.424258     -2079.6098 
   6   2.0000     -18.791353      -511.3387 
   7   2.0000     -18.790530      -511.3163 
   8   2.0000     -18.789214      -511.2805 
   9   2.0000     -18.786580      -511.2088 
  10   2.0000      -9.959758      -271.0188 
  11   2.0000      -9.954653      -270.8799 
  12   2.0000      -9.952875      -270.8315 
  13   2.0000      -9.949893      -270.7503 
  14   2.0000      -9.945875      -270.6410 
  15   2.0000      -9.887889      -269.0631 
  16   2.0000      -9.879758      -268.8419 
  17   2.0000      -9.878725      -268.8138 
  18   2.0000      -9.873526      -268.6723 
  19   2.0000      -7.690387      -209.2661 
  20   2.0000      -7.688171      -209.2058 
  21   2.0000      -7.631725      -207.6698 
  22   2.0000      -7.625424      -207.4983 
  23   2.0000      -6.422980      -174.7782 
  24   2.0000      -6.421652      -174.7420 
  25   2.0000      -5.718312      -155.6032 
  26   2.0000      -5.715995      -155.5401 
  27   2.0000      -5.714686      -155.5045 
  28   2.0000      -5.712687      -155.4501 
  29   2.0000      -5.707563      -155.3107 
  30   2.0000      -5.705195      -155.2463 
  31   2.0000      -5.660609      -154.0330 
  32   2.0000      -5.654533      -153.8677 
  33   2.0000      -5.652438      -153.8107 
  34   2.0000      -5.651827      -153.7940 
  35   2.0000      -5.645983      -153.6350 
  36   2.0000      -5.645440      -153.6202 
  37   2.0000      -4.645205      -126.4025 
  38   2.0000      -4.644777      -126.3908 
  39   2.0000      -4.644353      -126.3793 
  40   2.0000      -4.643777      -126.3636 
  41   2.0000      -4.643625      -126.3595 
  42   2.0000      -4.641811      -126.3101 
  43   2.0000      -0.987306       -26.8660 
  44   2.0000      -0.984884       -26.8001 
  45   2.0000      -0.943482       -25.6735 
  46   2.0000      -0.942222       -25.6392 
  47   2.0000      -0.761643       -20.7254 
  48   2.0000      -0.720655       -19.6100 
  49   2.0000      -0.709738       -19.3130 
  50   2.0000      -0.687523       -18.7085 
  51   2.0000      -0.683002       -18.5854 
  52   2.0000      -0.673553       -18.3283 
  53   2.0000      -0.649030       -17.6610 
  54   2.0000      -0.636592       -17.3225 
  55   2.0000      -0.596877       -16.2418 
  56   2.0000      -0.584478       -15.9044 
  57   2.0000      -0.574974       -15.6458 
  58   2.0000      -0.568563       -15.4714 
  59   2.0000      -0.562982       -15.3195 
  60   2.0000      -0.505152       -13.7459 
  61   2.0000      -0.495019       -13.4701 
  62   2.0000      -0.476643       -12.9701 
  63   2.0000      -0.471325       -12.8254 
  64   2.0000      -0.448419       -12.2021 
  65   2.0000      -0.447242       -12.1701 
  66   2.0000      -0.438728       -11.9384 
  67   2.0000      -0.436618       -11.8810 
  68   2.0000      -0.427915       -11.6442 
  69   2.0000      -0.410922       -11.1817 
  70   2.0000      -0.405955       -11.0466 
  71   2.0000      -0.400080       -10.8867 
  72   2.0000      -0.396131       -10.7793 
  73   2.0000      -0.386195       -10.5089 
  74   2.0000      -0.384967       -10.4755 
  75   2.0000      -0.370755       -10.0888 
  76   2.0000      -0.361245        -9.8300 
  77   2.0000      -0.356520        -9.7014 
  78   2.0000      -0.351241        -9.5577 
  79   2.0000      -0.348053        -9.4710 
  80   2.0000      -0.343536        -9.3481 
  81   2.0000      -0.341262        -9.2862 
  82   2.0000      -0.336767        -9.1639 
  83   2.0000      -0.332680        -9.0527 
  84   2.0000      -0.331058        -9.0085 
  85   2.0000      -0.318078        -8.6553 
  86   2.0000      -0.312395        -8.5007 
  87   2.0000      -0.295088        -8.0297 
  88   2.0000      -0.291826        -7.9410 
  89   2.0000      -0.287803        -7.8315 
  90   2.0000      -0.283170        -7.7054 
  91   2.0000      -0.277361        -7.5474 
  92   2.0000      -0.271909        -7.3990 
  93   2.0000      -0.264685        -7.2024 
  94   2.0000      -0.257128        -6.9968 
  95   2.0000      -0.237609        -6.4657 
  96   2.0000      -0.221669        -6.0319 
  97   2.0000      -0.211768        -5.7625 
  98   2.0000      -0.201878        -5.4934 
  99   2.0000      -0.195245        -5.3129 
 100   2.0000      -0.188490        -5.1291 
 101   0.0000      -0.045117        -1.2277 
 102   0.0000      -0.034371        -0.9353 
 103   0.0000      -0.010474        -0.2850 
 104   0.0000       0.009330         0.2539 
 105   0.0000       0.015434         0.4200 
 106   0.0000       0.028769         0.7828 
 107   0.0000       0.033065         0.8997 
 108   0.0000       0.037041         1.0079 
 109   0.0000       0.043178         1.1749 
 110   0.0000       0.048417         1.3175 
 111   0.0000       0.055386         1.5071 
*Only the first 10 virtual orbitals were printed.

                    ********************************
                    * MULLIKEN POPULATION ANALYSIS *
                    ********************************

-----------------------
MULLIKEN ATOMIC CHARGES
-----------------------
   0 C :   -0.295097
   1 C :   -0.006186
   2 O :   -0.369874
   3 P :    0.622951
   4 S :   -0.316667
   5 O :   -0.356248
   6 C :   -0.007160
   7 C :   -0.301903
   8 S :   -0.112502
   9 C :   -0.329668
  10 S :   -0.134649
  11 P :    0.601209
  12 S :   -0.302377
  13 O :   -0.377230
  14 C :   -0.011177
  15 C :   -0.323739
  16 O :   -0.351450
  17 C :   -0.020700
  18 C :   -0.287874
  19 H :    0.129058
  20 H :    0.113426
  21 H :    0.105903
  22 H :    0.105961
  23 H :    0.094507
  24 H :    0.124253
  25 H :    0.105944
  26 H :    0.123711
  27 H :    0.111272
  28 H :    0.114064
  29 H :    0.179033
  30 H :    0.214887
  31 H :    0.099466
  32 H :    0.107908
  33 H :    0.109713
  34 H :    0.103508
  35 H :    0.158896
  36 H :    0.114972
  37 H :    0.107835
  38 H :    0.122504
  39 H :    0.109490
  40 H :    0.124030
Sum of atomic charges:    0.0000000

--------------------------------
MULLIKEN REDUCED ORBITAL CHARGES
--------------------------------
  0 C s       :     3.094086  s :     3.094086
      pz      :     1.068165  p :     3.173238
      px      :     1.044344
      py      :     1.060729
      dz2     :     0.002767  d :     0.027773
      dxz     :     0.007167
      dyz     :     0.007970
      dx2y2   :     0.001196
      dxy     :     0.008674

  1 C s       :     3.074246  s :     3.074246
      pz      :     0.997904  p :     2.871707
      px      :     0.930910
      py      :     0.942893
      dz2     :     0.006864  d :     0.060233
      dxz     :     0.014990
      dyz     :     0.014837
      dx2y2   :     0.007891
      dxy     :     0.015651

  2 O s       :     3.761844  s :     3.761844
      pz      :     1.642013  p :     4.595117
      px      :     1.372675
      py      :     1.580430
      dz2     :     0.001924  d :     0.012913
      dxz     :     0.003385
      dyz     :     0.002767
      dx2y2   :     0.002588
      dxy     :     0.002249

  3 P s       :     5.201616  s :     5.201616
      pz      :     2.838928  p :     8.589035
      px      :     2.837630
      py      :     2.912478
      dz2     :     0.131515  d :     0.586398
      dxz     :     0.115635
      dyz     :     0.120258
      dx2y2   :     0.099775
      dxy     :     0.119216

  4 S s       :     5.922051  s :     5.922051
      pz      :     3.174635  p :    10.351254
      px      :     3.666143
      py      :     3.510477
      dz2     :     0.016189  d :     0.043363
      dxz     :     0.007086
      dyz     :     0.014635
      dx2y2   :     0.002902
      dxy     :     0.002551

  5 O s       :     3.753344  s :     3.753344
      pz      :     1.545225  p :     4.589674
      px      :     1.745637
      py      :     1.298812
      dz2     :     0.003123  d :     0.013229
      dxz     :     0.002212
      dyz     :     0.003396
      dx2y2   :     0.002370
      dxy     :     0.002130

  6 C s       :     3.087772  s :     3.087772
      pz      :     1.093733  p :     2.858658
      px      :     1.063861
      py      :     0.701065
      dz2     :     0.009028  d :     0.060730
      dxz     :     0.010554
      dyz     :     0.010463
      dx2y2   :     0.017233
      dxy     :     0.013452

  7 C s       :     3.096327  s :     3.096327
      pz      :     1.094862  p :     3.177658
      px      :     1.025167
      py      :     1.057629
      dz2     :     0.005351  d :     0.027918
      dxz     :     0.008733
      dyz     :     0.003079
      dx2y2   :     0.007666
      dxy     :     0.003089

  8 S s       :     5.880238  s :     5.880238
      pz      :     3.323752  p :    10.159249
      px      :     3.419039
      py      :     3.416457
      dz2     :     0.018745  d :     0.073015
      dxz     :     0.016904
      dyz     :     0.009856
      dx2y2   :     0.010722
      dxy     :     0.016788

  9 C s       :     3.210004  s :     3.210004
      pz      :     1.000922  p :     3.080020
      px      :     0.900396
      py      :     1.178701
      dz2     :     0.006682  d :     0.039643
      dxz     :     0.009814
      dyz     :     0.008150
      dx2y2   :     0.009830
      dxy     :     0.005168

 10 S s       :     5.871735  s :     5.871735
      pz      :     3.677447  p :    10.188055
      px      :     3.093472
      py      :     3.417135
      dz2     :     0.008763  d :     0.074859
      dxz     :     0.010407
      dyz     :     0.012630
      dx2y2   :     0.023765
      dxy     :     0.019295

 11 P s       :     5.207785  s :     5.207785
      pz      :     2.823076  p :     8.604307
      px      :     2.854159
      py      :     2.927072
      dz2     :     0.124217  d :     0.586699
      dxz     :     0.121356
      dyz     :     0.116861
      dx2y2   :     0.119954
      dxy     :     0.104312

 12 S s       :     5.913803  s :     5.913803
      pz      :     3.689381  p :    10.345218
      px      :     3.460217
      py      :     3.195620
      dz2     :     0.006062  d :     0.043356
      dxz     :     0.003693
      dyz     :     0.006273
      dx2y2   :     0.010092
      dxy     :     0.017237

 13 O s       :     3.756208  s :     3.756208
      pz      :     1.341481  p :     4.608479
      px      :     1.609781
      py      :     1.657217
      dz2     :     0.002853  d :     0.012544
      dxz     :     0.003512
      dyz     :     0.002338
      dx2y2   :     0.001638
      dxy     :     0.002202

 14 C s       :     3.080425  s :     3.080425
      pz      :     0.898251  p :     2.870425
      px      :     0.963061
      py      :     1.009112
      dz2     :     0.007874  d :     0.060327
      dxz     :     0.017455
      dyz     :     0.014073
      dx2y2   :     0.006540
      dxy     :     0.014386

 15 C s       :     3.105957  s :     3.105957
      pz      :     1.067325  p :     3.190046
      px      :     1.071869
      py      :     1.050852
      dz2     :     0.001845  d :     0.027736
      dxz     :     0.007477
      dyz     :     0.007998
      dx2y2   :     0.001892
      dxy     :     0.008524

 16 O s       :     3.756065  s :     3.756065
      pz      :     1.712288  p :     4.582011
      px      :     1.286150
      py      :     1.583573
      dz2     :     0.002005  d :     0.013374
      dxz     :     0.002690
      dyz     :     0.001728
      dx2y2   :     0.002865
      dxy     :     0.004087

 17 C s       :     3.090575  s :     3.090575
      pz      :     1.097946  p :     2.870681
      px      :     0.853831
      py      :     0.918904
      dz2     :     0.013394  d :     0.059443
      dxz     :     0.011980
      dyz     :     0.005042
      dx2y2   :     0.011775
      dxy     :     0.017252

 18 C s       :     3.092180  s :     3.092180
      pz      :     1.058720  p :     3.167874
      px      :     1.028778
      py      :     1.080376
      dz2     :     0.008441  d :     0.027820
      dxz     :     0.006161
      dyz     :     0.002083
      dx2y2   :     0.003644
      dxy     :     0.007492

 19 H s       :     0.870942  s :     0.870942

 20 H s       :     0.886574  s :     0.886574

 21 H s       :     0.894097  s :     0.894097

 22 H s       :     0.894039  s :     0.894039

 23 H s       :     0.905493  s :     0.905493

 24 H s       :     0.875747  s :     0.875747

 25 H s       :     0.894056  s :     0.894056

 26 H s       :     0.876289  s :     0.876289

 27 H s       :     0.888728  s :     0.888728

 28 H s       :     0.885936  s :     0.885936

 29 H s       :     0.820967  s :     0.820967

 30 H s       :     0.785113  s :     0.785113

 31 H s       :     0.900534  s :     0.900534

 32 H s       :     0.892092  s :     0.892092

 33 H s       :     0.890287  s :     0.890287

 34 H s       :     0.896492  s :     0.896492

 35 H s       :     0.841104  s :     0.841104

 36 H s       :     0.885028  s :     0.885028

 37 H s       :     0.892165  s :     0.892165

 38 H s       :     0.877496  s :     0.877496

 39 H s       :     0.890510  s :     0.890510

 40 H s       :     0.875970  s :     0.875970


------------------------
MULLIKEN OVERLAP CHARGES
------------------------
B(  0-C ,  1-C ) :   0.9090 B(  0-C ,  2-O ) :  -0.1045 B(  0-C , 19-H ) :   0.7223 
B(  0-C , 20-H ) :   0.7310 B(  0-C , 21-H ) :   0.6893 B(  0-C , 22-H ) :  -0.0547 
B(  0-C , 23-H ) :  -0.0631 B(  1-C ,  2-O ) :   0.5657 B(  1-C ,  3-P ) :  -0.0883 
B(  1-C , 22-H ) :   0.7386 B(  1-C , 23-H ) :   0.6897 B(  2-O ,  3-P ) :   0.6455 
B(  2-O ,  4-S ) :  -0.0704 B(  2-O ,  5-O ) :  -0.0725 B(  2-O ,  8-S ) :  -0.0669 
B(  2-O , 22-H ) :  -0.0568 B(  2-O , 23-H ) :  -0.0652 B(  3-P ,  4-S ) :   0.9344 
B(  3-P ,  5-O ) :   0.6629 B(  3-P ,  6-C ) :  -0.0934 B(  3-P ,  8-S ) :   0.5013 
B(  3-P ,  9-C ) :  -0.0613 B(  4-S ,  5-O ) :  -0.0646 B(  4-S ,  8-S ) :  -0.0897 
B(  4-S , 19-H ) :   0.0576 B(  4-S , 30-H ) :   0.0915 B(  5-O ,  6-C ) :   0.5533 
B(  5-O ,  7-C ) :  -0.0876 B(  5-O ,  8-S ) :  -0.0665 B(  5-O , 24-H ) :  -0.0652 
B(  5-O , 25-H ) :  -0.0638 B(  5-O , 35-H ) :   0.0520 B(  6-C ,  7-C ) :   0.9124 
B(  6-C , 24-H ) :   0.7341 B(  6-C , 25-H ) :   0.7263 B(  7-C , 24-H ) :  -0.0758 
B(  7-C , 25-H ) :  -0.0525 B(  7-C , 26-H ) :   0.7220 B(  7-C , 27-H ) :   0.7021 
B(  7-C , 28-H ) :   0.7258 B(  8-S ,  9-C ) :   0.4687 B(  8-S , 10-S ) :  -0.1512 
B(  8-S , 29-H ) :  -0.0626 B(  8-S , 30-H ) :  -0.0572 B(  9-C , 10-S ) :   0.4948 
B(  9-C , 11-P ) :  -0.0651 B(  9-C , 29-H ) :   0.7166 B(  9-C , 30-H ) :   0.6172 
B( 10-S , 11-P ) :   0.5249 B( 10-S , 12-S ) :  -0.0848 B( 10-S , 13-O ) :  -0.0814 
B( 10-S , 16-O ) :  -0.0643 B( 10-S , 29-H ) :  -0.0675 B( 10-S , 32-H ) :   0.0578 
B( 11-P , 12-S ) :   0.9613 B( 11-P , 13-O ) :   0.5998 B( 11-P , 14-C ) :  -0.0853 
B( 11-P , 16-O ) :   0.6592 B( 12-S , 13-O ) :  -0.0639 B( 12-S , 16-O ) :  -0.0724 
B( 12-S , 30-H ) :   0.0504 B( 13-O , 14-C ) :   0.5735 B( 13-O , 15-C ) :  -0.1124 
B( 13-O , 16-O ) :  -0.0695 B( 13-O , 31-H ) :  -0.0611 B( 13-O , 32-H ) :  -0.0612 
B( 14-C , 15-C ) :   0.9115 B( 14-C , 31-H ) :   0.7240 B( 14-C , 32-H ) :   0.7031 
B( 15-C , 31-H ) :  -0.0528 B( 15-C , 32-H ) :  -0.0668 B( 15-C , 33-H ) :   0.7230 
B( 15-C , 34-H ) :   0.6866 B( 15-C , 35-H ) :   0.7160 B( 16-O , 17-C ) :   0.5052 
B( 16-O , 18-C ) :  -0.0997 B( 16-O , 36-H ) :  -0.0535 B( 16-O , 37-H ) :  -0.0591 
B( 17-C , 18-C ) :   0.9005 B( 17-C , 36-H ) :   0.7421 B( 17-C , 37-H ) :   0.7239 
B( 18-C , 36-H ) :  -0.0519 B( 18-C , 37-H ) :  -0.0664 B( 18-C , 38-H ) :   0.7384 
B( 18-C , 39-H ) :   0.6934 B( 18-C , 40-H ) :   0.7391 B( 22-H , 23-H ) :  -0.0687 
B( 24-H , 25-H ) :  -0.0659 B( 26-H , 28-H ) :  -0.0519 B( 31-H , 32-H ) :  -0.0689 
B( 36-H , 37-H ) :  -0.0690 


                     *******************************
                     * LOEWDIN POPULATION ANALYSIS *
                     *******************************

----------------------
LOEWDIN ATOMIC CHARGES
----------------------
   0 C :   -0.365111
   1 C :   -0.117402
   2 O :   -0.245624
   3 P :    0.573594
   4 S :   -0.300879
   5 O :   -0.229532
   6 C :   -0.116750
   7 C :   -0.365725
   8 S :    0.077245
   9 C :   -0.476650
  10 S :    0.061690
  11 P :    0.561123
  12 S :   -0.286640
  13 O :   -0.245539
  14 C :   -0.119325
  15 C :   -0.370614
  16 O :   -0.233818
  17 C :   -0.112256
  18 C :   -0.358764
  19 H :    0.123384
  20 H :    0.125192
  21 H :    0.127872
  22 H :    0.118302
  23 H :    0.102762
  24 H :    0.110950
  25 H :    0.119472
  26 H :    0.121551
  27 H :    0.130421
  28 H :    0.125330
  29 H :    0.134794
  30 H :    0.125807
  31 H :    0.115152
  32 H :    0.097401
  33 H :    0.124510
  34 H :    0.127825
  35 H :    0.124904
  36 H :    0.123612
  37 H :    0.104428
  38 H :    0.130528
  39 H :    0.129279
  40 H :    0.127503

-------------------------------
LOEWDIN REDUCED ORBITAL CHARGES
-------------------------------
  0 C s       :     2.953525  s :     2.953525
      pz      :     1.117131  p :     3.342842
      px      :     1.105950
      py      :     1.119761
      dz2     :     0.005344  d :     0.068745
      dxz     :     0.019072
      dyz     :     0.019881
      dx2y2   :     0.002626
      dxy     :     0.021822

  1 C s       :     2.927465  s :     2.927465
      pz      :     1.059049  p :     3.055368
      px      :     1.007364
      py      :     0.988954
      dz2     :     0.012220  d :     0.134569
      dxz     :     0.035675
      dyz     :     0.034964
      dx2y2   :     0.015256
      dxy     :     0.036454

  2 O s       :     3.502945  s :     3.502945
      pz      :     1.671545  p :     4.718998
      px      :     1.438025
      py      :     1.609428
      dz2     :     0.002765  d :     0.023682
      dxz     :     0.006513
      dyz     :     0.004449
      dx2y2   :     0.005386
      dxy     :     0.004568

  3 P s       :     5.057487  s :     5.057487
      pz      :     2.868917  p :     8.555654
      px      :     2.809068
      py      :     2.877669
      dz2     :     0.184023  d :     0.813265
      dxz     :     0.155247
      dyz     :     0.173508
      dx2y2   :     0.135795
      dxy     :     0.164692

  4 S s       :     5.767392  s :     5.767392
      pz      :     3.258381  p :    10.475477
      px      :     3.669337
      py      :     3.547758
      dz2     :     0.022520  d :     0.058010
      dxz     :     0.007802
      dyz     :     0.021524
      dx2y2   :     0.003605
      dxy     :     0.002559

  5 O s       :     3.493162  s :     3.493162
      pz      :     1.608482  p :     4.712269
      px      :     1.740264
      py      :     1.363523
      dz2     :     0.005552  d :     0.024101
      dxz     :     0.003068
      dyz     :     0.006852
      dx2y2   :     0.004738
      dxy     :     0.003891

  6 C s       :     2.928037  s :     2.928037
      pz      :     1.143521  p :     3.054027
      px      :     1.110450
      py      :     0.800056
      dz2     :     0.020927  d :     0.134686
      dxz     :     0.022759
      dyz     :     0.021849
      dx2y2   :     0.040085
      dxy     :     0.029066

  7 C s       :     2.952787  s :     2.952787
      pz      :     1.138517  p :     3.343634
      px      :     1.084512
      py      :     1.120605
      dz2     :     0.013806  d :     0.069304
      dxz     :     0.019674
      dyz     :     0.007318
      dx2y2   :     0.020310
      dxy     :     0.008197

  8 S s       :     5.645359  s :     5.645359
      pz      :     3.350479  p :    10.185772
      px      :     3.413074
      py      :     3.422219
      dz2     :     0.022800  d :     0.091624
      dxz     :     0.022926
      dyz     :     0.010768
      dx2y2   :     0.012841
      dxy     :     0.022290

  9 C s       :     3.067628  s :     3.067628
      pz      :     1.081934  p :     3.321801
      px      :     1.028485
      py      :     1.211382
      dz2     :     0.014764  d :     0.087221
      dxz     :     0.021659
      dyz     :     0.018081
      dx2y2   :     0.022155
      dxy     :     0.010562

 10 S s       :     5.633001  s :     5.633001
      pz      :     3.657421  p :    10.210796
      px      :     3.120576
      py      :     3.432799
      dz2     :     0.011010  d :     0.094513
      dxz     :     0.012510
      dyz     :     0.015907
      dx2y2   :     0.031220
      dxy     :     0.023866

 11 P s       :     5.056396  s :     5.056396
      pz      :     2.803640  p :     8.561826
      px      :     2.838405
      py      :     2.919781
      dz2     :     0.177920  d :     0.820655
      dxz     :     0.168457
      dyz     :     0.162152
      dx2y2   :     0.165438
      dxy     :     0.146687

 12 S s       :     5.763031  s :     5.763031
      pz      :     3.691262  p :    10.465319
      px      :     3.485966
      py      :     3.288091
      dz2     :     0.009233  d :     0.058289
      dxz     :     0.004098
      dyz     :     0.006774
      dx2y2   :     0.012150
      dxy     :     0.026034

 13 O s       :     3.497653  s :     3.497653
      pz      :     1.413750  p :     4.724555
      px      :     1.635866
      py      :     1.674939
      dz2     :     0.006023  d :     0.023331
      dxz     :     0.006908
      dyz     :     0.004619
      dx2y2   :     0.002280
      dxy     :     0.003501

 14 C s       :     2.927254  s :     2.927254
      pz      :     0.977893  p :     3.056845
      px      :     1.031711
      py      :     1.047241
      dz2     :     0.014774  d :     0.135226
      dxz     :     0.040188
      dyz     :     0.033326
      dx2y2   :     0.011720
      dxy     :     0.035218

 15 C s       :     2.953043  s :     2.953043
      pz      :     1.118866  p :     3.348941
      px      :     1.119507
      py      :     1.110568
      dz2     :     0.003807  d :     0.068630
      dxz     :     0.019199
      dyz     :     0.020197
      dx2y2   :     0.003856
      dxy     :     0.021571

 16 O s       :     3.501754  s :     3.501754
      pz      :     1.716929  p :     4.707941
      px      :     1.369048
      py      :     1.621964
      dz2     :     0.003096  d :     0.024123
      dxz     :     0.005213
      dyz     :     0.002270
      dx2y2   :     0.005568
      dxy     :     0.007977

 17 C s       :     2.929789  s :     2.929789
      pz      :     1.121139  p :     3.050289
      px      :     0.936181
      py      :     0.992968
      dz2     :     0.029368  d :     0.132178
      dxz     :     0.030514
      dyz     :     0.009136
      dx2y2   :     0.025719
      dxy     :     0.037441

 18 C s       :     2.951819  s :     2.951819
      pz      :     1.108260  p :     3.337980
      px      :     1.098035
      py      :     1.131685
      dz2     :     0.019858  d :     0.068965
      dxz     :     0.017534
      dyz     :     0.004347
      dx2y2   :     0.009412
      dxy     :     0.017813

 19 H s       :     0.876616  s :     0.876616

 20 H s       :     0.874808  s :     0.874808

 21 H s       :     0.872128  s :     0.872128

 22 H s       :     0.881698  s :     0.881698

 23 H s       :     0.897238  s :     0.897238

 24 H s       :     0.889050  s :     0.889050

 25 H s       :     0.880528  s :     0.880528

 26 H s       :     0.878449  s :     0.878449

 27 H s       :     0.869579  s :     0.869579

 28 H s       :     0.874670  s :     0.874670

 29 H s       :     0.865206  s :     0.865206

 30 H s       :     0.874193  s :     0.874193

 31 H s       :     0.884848  s :     0.884848

 32 H s       :     0.902599  s :     0.902599

 33 H s       :     0.875490  s :     0.875490

 34 H s       :     0.872175  s :     0.872175

 35 H s       :     0.875096  s :     0.875096

 36 H s       :     0.876388  s :     0.876388

 37 H s       :     0.895572  s :     0.895572

 38 H s       :     0.869472  s :     0.869472

 39 H s       :     0.870721  s :     0.870721

 40 H s       :     0.872497  s :     0.872497


---------------------------------
LOEWDIN BOND ORDERS (THRESH 0.050000)
---------------------------------
B(  0-C ,  1-C ) :   1.1555 B(  0-C ,  2-O ) :   0.0586 B(  0-C , 19-H ) :   0.9254 
B(  0-C , 20-H ) :   0.9366 B(  0-C , 21-H ) :   0.9274 B(  1-C ,  2-O ) :   1.0919 
B(  1-C ,  3-P ) :   0.0635 B(  1-C , 22-H ) :   0.9188 B(  1-C , 23-H ) :   0.9095 
B(  2-O ,  3-P ) :   1.2659 B(  2-O ,  4-S ) :   0.0881 B(  2-O ,  5-O ) :   0.0517 
B(  2-O ,  8-S ) :   0.0638 B(  3-P ,  4-S ) :   1.7089 B(  3-P ,  5-O ) :   1.2901 
B(  3-P ,  6-C ) :   0.0660 B(  3-P ,  8-S ) :   1.0643 B(  4-S ,  5-O ) :   0.0922 
B(  4-S ,  8-S ) :   0.1322 B(  4-S , 30-H ) :   0.0588 B(  5-O ,  6-C ) :   1.0804 
B(  5-O ,  7-C ) :   0.0593 B(  6-C ,  7-C ) :   1.1577 B(  6-C , 24-H ) :   0.9075 
B(  6-C , 25-H ) :   0.9165 B(  7-C , 26-H ) :   0.9270 B(  7-C , 27-H ) :   0.9260 
B(  7-C , 28-H ) :   0.9359 B(  8-S ,  9-C ) :   1.1437 B(  8-S , 10-S ) :   0.0861 
B(  9-C , 10-S ) :   1.1894 B(  9-C , 29-H ) :   0.9242 B(  9-C , 30-H ) :   0.8918 
B( 10-S , 11-P ) :   1.0107 B( 10-S , 12-S ) :   0.1315 B( 10-S , 13-O ) :   0.0677 
B( 10-S , 16-O ) :   0.0608 B( 11-P , 12-S ) :   1.7822 B( 11-P , 13-O ) :   1.2638 
B( 11-P , 14-C ) :   0.0607 B( 11-P , 16-O ) :   1.3134 B( 11-P , 17-C ) :   0.0651 
B( 12-S , 13-O ) :   0.0889 B( 12-S , 16-O ) :   0.0746 B( 13-O , 14-C ) :   1.0906 
B( 13-O , 15-C ) :   0.0580 B( 13-O , 16-O ) :   0.0534 B( 14-C , 15-C ) :   1.1561 
B( 14-C , 31-H ) :   0.9174 B( 14-C , 32-H ) :   0.9042 B( 15-C , 33-H ) :   0.9357 
B( 15-C , 34-H ) :   0.9259 B( 15-C , 35-H ) :   0.9204 B( 16-O , 17-C ) :   1.0730 
B( 16-O , 18-C ) :   0.0590 B( 17-C , 18-C ) :   1.1576 B( 17-C , 36-H ) :   0.9185 
B( 17-C , 37-H ) :   0.9116 B( 18-C , 38-H ) :   0.9350 B( 18-C , 39-H ) :   0.9269 
B( 18-C , 40-H ) :   0.9324 

------------------------------------------
LOEWDIN REDUCED ORBITAL POPULATIONS PER MO
-------------------------------------------
THRESHOLD FOR PRINTING IS 0.1%%
                      0         1         2         3         4         5   
                 -88.04541 -88.04338 -87.98689 -87.98057 -76.42570 -76.42426
                   2.00000   2.00000   2.00000   2.00000   2.00000   2.00000
                  --------  --------  --------  --------  --------  --------
 3 P  s               0.0       0.0       0.0       0.0     100.0       0.0
 4 S  s               0.0       0.0     100.0       0.0       0.0       0.0
 8 S  s               0.0     100.0       0.0       0.0       0.0       0.0
10 S  s             100.0       0.0       0.0       0.0       0.0       0.0
11 P  s               0.0       0.0       0.0       0.0       0.0     100.0
12 S  s               0.0       0.0       0.0     100.0       0.0       0.0

                      6         7         8         9        10        11   
                 -18.79135 -18.79053 -18.78921 -18.78658  -9.95976  -9.95465
                   2.00000   2.00000   2.00000   2.00000   2.00000   2.00000
                  --------  --------  --------  --------  --------  --------
 2 O  s               0.0       0.0      99.9       0.0       0.0       0.0
 5 O  s               0.0       0.0       0.0      99.9       0.0       0.0
 9 C  s               0.0       0.0       0.0       0.0       0.0      99.8
13 O  s               0.2      99.7       0.0       0.0       0.0       0.0
16 O  s              99.7       0.2       0.0       0.0       0.0       0.0
17 C  s               0.0       0.0       0.0       0.0      99.7       0.0

                     12        13        14        15        16        17   
                  -9.95287  -9.94989  -9.94587  -9.88789  -9.87976  -9.87872
                   2.00000   2.00000   2.00000   2.00000   2.00000   2.00000
                  --------  --------  --------  --------  --------  --------
 0 C  s               0.0       0.0       0.0       0.0      99.7       0.0
 1 C  s              99.7       0.0       0.0       0.0       0.0       0.0
 6 C  s               0.0       0.0      99.7       0.0       0.0       0.0
 6 C  px              0.0       0.0       0.0       0.0       0.0       0.1
 7 C  s               0.0       0.0       0.0       0.0       0.0      99.7
 7 C  px              0.0       0.0       0.1       0.0       0.0       0.0
14 C  s               0.0      99.7       0.0       0.0       0.0       0.0
18 C  s               0.0       0.0       0.0      99.7       0.0       0.0

                     18        19        20        21        22        23   
                  -9.87353  -7.69039  -7.68817  -7.63173  -7.62542  -6.42298
                   2.00000   2.00000   2.00000   2.00000   2.00000   2.00000
                  --------  --------  --------  --------  --------  --------
 2 O  px              0.0       0.0       0.0       0.0       0.0       0.2
 3 P  s               0.0       0.0       0.0       0.0       0.0      99.3
 4 S  s               0.0       0.0       0.0      99.9       0.0       0.0
 5 O  pz              0.0       0.0       0.0       0.0       0.0       0.2
 8 S  s               0.0       0.0      99.8       0.0       0.0       0.0
 9 C  pz              0.0       0.0       0.1       0.0       0.0       0.0
 9 C  px              0.0       0.2       0.0       0.0       0.0       0.0
10 S  s               0.0      99.7       0.0       0.0       0.0       0.0
12 S  s               0.0       0.0       0.0       0.0      99.9       0.0
15 C  s              99.7       0.0       0.0       0.0       0.0       0.0

                     24        25        26        27        28        29   
                  -6.42165  -5.71831  -5.71599  -5.71469  -5.71269  -5.70756
                   2.00000   2.00000   2.00000   2.00000   2.00000   2.00000
                  --------  --------  --------  --------  --------  --------
 8 S  pz              0.0       0.0      24.6       0.0      52.5       0.0
 8 S  px              0.0       0.0      49.1       0.0       0.0       0.0
 8 S  py              0.0       0.0      26.3       0.0      47.5       0.0
10 S  pz              0.0      15.5       0.0       8.3       0.0      76.2
10 S  px              0.0      71.6       0.0      23.5       0.0       4.9
10 S  py              0.0      12.9       0.0      68.2       0.0      18.9
11 P  s              99.3       0.0       0.0       0.0       0.0       0.0
13 O  pz              0.2       0.0       0.0       0.0       0.0       0.0
16 O  px              0.2       0.0       0.0       0.0       0.0       0.0

                     30        31        32        33        34        35   
                  -5.70520  -5.66061  -5.65453  -5.65244  -5.65183  -5.64598
                   2.00000   2.00000   2.00000   2.00000   2.00000   2.00000
                  --------  --------  --------  --------  --------  --------
 4 S  pz              0.0      76.0       0.0      20.7       3.2       0.0
 4 S  px              0.0       0.3       0.0      20.7      79.0       0.0
 4 S  py              0.0      23.6       0.0      58.5      17.8       0.0
 8 S  pz             22.9       0.0       0.0       0.0       0.0       0.0
 8 S  px             50.9       0.0       0.0       0.0       0.0       0.0
 8 S  py             26.2       0.0       0.0       0.0       0.0       0.0
12 S  pz              0.0       0.0       0.1       0.0       0.0       7.6
12 S  px              0.0       0.0      27.6       0.0       0.0      66.3
12 S  py              0.0       0.0      72.3       0.0       0.0      26.2

                     36        37        38        39        40        41   
                  -5.64544  -4.64521  -4.64478  -4.64435  -4.64378  -4.64363
                   2.00000   2.00000   2.00000   2.00000   2.00000   2.00000
                  --------  --------  --------  --------  --------  --------
 3 P  pz              0.0      16.7      45.8       0.0      37.3       0.0
 3 P  px              0.0      65.0      33.8       0.0       1.1       0.0
 3 P  py              0.0      18.2      20.3       0.0      61.5       0.0
11 P  pz              0.0       0.0       0.0      51.0       0.0      47.3
11 P  px              0.0       0.0       0.0      30.4       0.0      44.2
11 P  py              0.0       0.0       0.0      18.6       0.0       8.4
12 S  pz             92.4       0.0       0.0       0.0       0.0       0.0
12 S  px              6.1       0.0       0.0       0.0       0.0       0.0
12 S  py              1.5       0.0       0.0       0.0       0.0       0.0

                     42        43        44        45        46        47   
                  -4.64181  -0.98731  -0.98488  -0.94348  -0.94222  -0.76164
                   2.00000   2.00000   2.00000   2.00000   2.00000   2.00000
                  --------  --------  --------  --------  --------  --------
 0 C  s               0.0       0.0       0.2       0.0       0.3       0.1
 0 C  pz              0.0       0.0       0.2       0.0       0.2       0.0
 0 C  px              0.0       0.0       0.2       0.0       0.3       0.0
 1 C  s               0.0       0.0       3.3       0.0       4.9       0.3
 1 C  pz              0.0       0.0       0.7       0.0       0.9       0.0
 1 C  px              0.0       0.0       1.4       0.0       1.5       0.0
 1 C  py              0.0       0.0       1.5       0.0       1.8       0.0
 1 C  dyz             0.0       0.0       0.1       0.0       0.1       0.0
 1 C  dxy             0.0       0.0       0.1       0.0       0.2       0.0
 2 O  s               0.0       0.0      28.6       0.0      30.4       0.2
 2 O  pz              0.0       0.0       0.8       0.0       1.0       0.0
 2 O  px              0.0       0.0       0.7       0.0       0.0       0.4
 2 O  py              0.0       0.0       0.0       0.0       0.4       0.1
 3 P  s               0.0       0.0      14.2       0.0       0.0       2.4
 3 P  pz              0.0       0.0       3.9       0.0       0.9       0.2
 3 P  px              0.0       0.0       1.0       0.0       6.0       0.9
 3 P  py              0.0       0.0       0.1       0.0       3.6       1.0
 3 P  dz2             0.0       0.0       0.0       0.0       0.7       0.0
 3 P  dxz             0.0       0.0       0.0       0.0       0.9       0.0
 3 P  dyz             0.0       0.0       0.3       0.0       1.0       0.0
 3 P  dx2y2           0.0       0.0       0.1       0.0       0.7       0.0
 3 P  dxy             0.0       0.0       0.5       0.0       0.1       0.2
 4 S  s               0.0       0.0       0.3       0.0       0.0       0.5
 4 S  pz              0.0       0.0       0.3       0.0       0.0       0.1
 5 O  s               0.0       0.0      28.3       0.0      30.3       0.2
 5 O  pz              0.0       0.0       1.3       0.0       0.5       0.1
 5 O  px              0.0       0.0       0.4       0.0       0.1       0.0
 5 O  py              0.0       0.0       0.0       0.0       0.5       0.5
 6 C  s               0.0       0.0       3.3       0.0       4.5       0.4
 6 C  py              0.0       0.0       3.7       0.0       4.0       0.0
 6 C  dx2y2           0.0       0.0       0.2       0.0       0.3       0.0
 7 C  s               0.0       0.0       0.2       0.0       0.3       0.1
 7 C  px              0.0       0.0       0.3       0.0       0.4       0.0
 7 C  py              0.0       0.0       0.2       0.0       0.1       0.0
 8 S  s               0.0       0.0       0.3       0.0       0.0      18.0
 8 S  pz              0.0       0.0       0.0       0.0       0.0       1.8
 8 S  px              0.0       0.0       0.1       0.0       0.0       0.4
 8 S  py              0.0       0.0       0.3       0.0       0.0       0.3
 8 S  dxz             0.0       0.0       0.0       0.0       0.0       0.2
 9 C  s               0.0       0.0       0.0       0.0       0.0      26.6
 9 C  pz              0.0       0.0       0.0       0.0       0.0       1.9
 9 C  px              0.0       0.0       0.0       0.0       0.0       0.5
10 S  s               0.0       0.3       0.0       0.0       0.0      20.0
10 S  px              0.0       0.0       0.0       0.0       0.0       2.2
10 S  py              0.0       0.2       0.0       0.0       0.0       0.7
10 S  dx2y2           0.0       0.0       0.0       0.0       0.0       0.1
11 P  s               0.0      14.1       0.0       0.0       0.0       2.5
11 P  pz              1.6       0.4       0.0       7.8       0.0       0.6
11 P  px             25.3       4.6       0.0       1.6       0.0       1.0
11 P  py             73.0       0.1       0.0       1.3       0.0       0.6
11 P  dz2             0.0       0.1       0.0       1.1       0.0       0.0
11 P  dxz             0.0       0.1       0.0       1.3       0.0       0.0
11 P  dyz             0.0       0.4       0.0       0.2       0.0       0.1
11 P  dx2y2           0.0       0.4       0.0       0.6       0.0       0.1
[...]
 1 C  px              0.0       0.4       0.0       0.8
 1 C  py              0.0       0.3       0.0       0.7
 1 C  dz2             0.0       0.1       0.0       0.3
 1 C  dxz             0.0       0.6       0.0       1.5
 1 C  dyz             0.0       0.9       0.0       1.4
 1 C  dxy             0.0       1.5       0.0       2.9
 2 O  s               0.0       0.3       0.0       0.4
 2 O  pz              0.0       0.1       0.0       0.1
 2 O  px              0.0       0.9       0.0       3.2
 2 O  py              0.0       0.4       0.0       1.3
 2 O  dxz             0.0       8.4       0.2      21.2
 2 O  dyz             0.0       5.6       0.1      13.3
 2 O  dx2y2           0.0       0.6       0.0       4.3
 2 O  dxy             0.0       4.0       0.1       5.0
 3 P  s               0.0       0.3       0.0       0.0
 3 P  pz              0.0       0.1       0.0       0.5
 3 P  px              0.0       0.1       0.0       1.2
 3 P  py              0.0       0.0       0.0       1.0
 3 P  dz2             0.0       0.3       0.0       0.5
 3 P  dyz             0.0       0.1       0.0       0.8
 3 P  dx2y2           0.0       0.0       0.0       0.3
 3 P  dxy             0.0       0.2       0.0       0.1
 5 O  s               0.0       2.6       0.0       0.2
 5 O  pz              0.0       0.2       0.0       0.8
 5 O  px              0.0       0.0       0.0       0.1
 5 O  py              0.0       3.3       0.0       2.3
 5 O  dz2             0.0      16.4       0.0       8.7
 5 O  dxz             0.0       0.0       0.0       3.5
 5 O  dyz             0.0       0.0       0.0       7.2
 5 O  dx2y2           0.0      34.9       0.0       5.4
 5 O  dxy             0.0       0.8       0.0       4.2
 6 C  s               0.0       1.5       0.0       0.4
 6 C  py              0.0       2.7       0.0       0.8
 6 C  dz2             0.0       2.0       0.0       0.5
 6 C  dyz             0.0       0.0       0.0       0.2
 6 C  dx2y2           0.0       7.6       0.0       1.8
 6 C  dxy             0.0       0.1       0.0       0.0
 7 C  dxy             0.0       0.3       0.0       0.0
11 P  s               0.6       0.0       0.1       0.0
11 P  pz              0.4       0.0       1.2       0.0
11 P  px              0.1       0.0       0.9       0.0
11 P  py              0.1       0.0       0.2       0.0
11 P  dz2             0.2       0.0       0.5       0.0
11 P  dyz             0.0       0.0       0.1       0.0
11 P  dx2y2           0.0       0.0       0.9       0.0
11 P  dxy             0.2       0.0       0.0       0.0
13 O  s               0.0       0.1       0.8       0.0
13 O  pz              1.5       0.0       2.8       0.0
13 O  px              0.1       0.0       0.3       0.0
13 O  py              0.5       0.0       0.7       0.0
13 O  dz2             1.7       0.1       0.5       0.1
13 O  dxz            10.4       0.0      28.4       0.2
13 O  dyz             0.3       0.2       3.6       0.0
13 O  dx2y2           0.5       0.0       0.5       0.0
13 O  dxy             4.6       0.0      11.0       0.1
14 C  s               0.4       0.0       1.2       0.0
14 C  pz              0.4       0.0       1.0       0.0
14 C  px              0.2       0.0       0.7       0.0
14 C  py              0.1       0.0       0.4       0.0
14 C  dz2             0.2       0.0       0.3       0.0
14 C  dxz             0.9       0.0       2.7       0.0
14 C  dyz             0.8       0.0       2.2       0.0
14 C  dxy             0.4       0.0       1.5       0.0
16 O  s               3.3       0.0       0.1       0.0
16 O  pz              0.1       0.0       0.4       0.0
16 O  px              1.9       0.0       2.6       0.0
16 O  py              0.8       0.0       0.1       0.0
16 O  dz2            12.1       0.1       1.6       0.0
16 O  dxz             1.4       0.0       5.8       0.1
16 O  dyz             0.4       0.0       1.5       0.0
16 O  dx2y2           0.8       0.1       3.1       0.1
16 O  dxy            39.2       0.0      17.1       0.1
17 C  s               1.4       0.0       0.5       0.0
17 C  px              1.7       0.0       0.5       0.0
17 C  py              1.1       0.0       0.3       0.0
17 C  dz2             2.8       0.0       0.5       0.0
17 C  dxz             0.4       0.0       0.1       0.0
17 C  dyz             0.1       0.0       0.1       0.0
17 C  dx2y2           0.1       0.0       0.2       0.0
17 C  dxy             7.1       0.0       1.6       0.0
18 C  dxz             0.2       0.0       0.0       0.0


                      *****************************
                      * MAYER POPULATION ANALYSIS *
                      *****************************

  NA   - Mulliken gross atomic population
  ZA   - Total nuclear charge
  QA   - Mulliken gross atomic charge
  VA   - Mayer's total valence
  BVA  - Mayer's bonded valence
  FA   - Mayer's free valence

  ATOM       NA         ZA         QA         VA         BVA        FA
  0 C      6.2951     6.0000    -0.2951     3.9788     3.9788     0.0000
  1 C      6.0062     6.0000    -0.0062     4.0075     4.0075     0.0000
  2 O      8.3699     8.0000    -0.3699     2.1777     2.1777    -0.0000
  3 P     14.3770    15.0000     0.6230     4.9700     4.9700    -0.0000
  4 S     16.3167    16.0000    -0.3167     2.0846     2.0846    -0.0000
  5 O      8.3562     8.0000    -0.3562     2.2071     2.2071    -0.0000
  6 C      6.0072     6.0000    -0.0072     3.9897     3.9897    -0.0000
  7 C      6.3019     6.0000    -0.3019     3.9903     3.9903    -0.0000
  8 S     16.1125    16.0000    -0.1125     2.2694     2.2694     0.0000
  9 C      6.3297     6.0000    -0.3297     3.8197     3.8197    -0.0000
 10 S     16.1346    16.0000    -0.1346     2.2699     2.2699    -0.0000
 11 P     14.3988    15.0000     0.6012     4.9767     4.9767     0.0000
 12 S     16.3024    16.0000    -0.3024     2.0733     2.0733     0.0000
 13 O      8.3772     8.0000    -0.3772     2.1726     2.1726    -0.0000
 14 C      6.0112     6.0000    -0.0112     3.9975     3.9975    -0.0000
 15 C      6.3237     6.0000    -0.3237     3.9762     3.9762     0.0000
 16 O      8.3515     8.0000    -0.3515     2.1667     2.1667     0.0000
 17 C      6.0207     6.0000    -0.0207     4.0277     4.0277    -0.0000
 18 C      6.2879     6.0000    -0.2879     3.9887     3.9887    -0.0000
 19 H      0.8709     1.0000     0.1291     0.9967     0.9967     0.0000
 20 H      0.8866     1.0000     0.1134     0.9586     0.9586    -0.0000
 21 H      0.8941     1.0000     0.1059     0.9549     0.9549    -0.0000
 22 H      0.8940     1.0000     0.1060     0.9481     0.9481     0.0000
 23 H      0.9055     1.0000     0.0945     0.9822     0.9822     0.0000
 24 H      0.8757     1.0000     0.1243     0.9726     0.9726    -0.0000
 25 H      0.8941     1.0000     0.1059     0.9489     0.9489    -0.0000
 26 H      0.8763     1.0000     0.1237     0.9851     0.9851    -0.0000
 27 H      0.8887     1.0000     0.1113     0.9545     0.9545    -0.0000
 28 H      0.8859     1.0000     0.1141     0.9601     0.9601    -0.0000
 29 H      0.8210     1.0000     0.1790     0.9348     0.9348    -0.0000
 30 H      0.7851     1.0000     0.2149     0.9938     0.9938    -0.0000
 31 H      0.9005     1.0000     0.0995     0.9457     0.9457     0.0000
 32 H      0.8921     1.0000     0.1079     0.9850     0.9850     0.0000
 33 H      0.8903     1.0000     0.1097     0.9601     0.9601     0.0000
 34 H      0.8965     1.0000     0.1035     0.9556     0.9556     0.0000
 35 H      0.8411     1.0000     0.1589     1.0004     1.0004     0.0000
 36 H      0.8850     1.0000     0.1150     0.9473     0.9473     0.0000
 37 H      0.8922     1.0000     0.1078     0.9549     0.9549     0.0000
 38 H      0.8775     1.0000     0.1225     0.9578     0.9578    -0.0000
 39 H      0.8905     1.0000     0.1095     0.9541     0.9541     0.0000
 40 H      0.8760     1.0000     0.1240     0.9812     0.9812    -0.0000

  Mayer bond orders larger than 0.100000
B(  0-C ,  1-C ) :   1.1651 B(  0-C , 19-H ) :   0.9303 B(  0-C , 20-H ) :   0.9468 
B(  0-C , 21-H ) :   0.9396 B(  1-C ,  2-O ) :   0.9122 B(  1-C , 22-H ) :   0.9368 
B(  1-C , 23-H ) :   0.9134 B(  2-O ,  3-P ) :   1.1028 B(  3-P ,  4-S ) :   1.6011 
B(  3-P ,  5-O ) :   1.1332 B(  3-P ,  8-S ) :   0.9556 B(  4-S ,  8-S ) :   0.1168 
B(  5-O ,  6-C ) :   0.8963 B(  6-C ,  7-C ) :   1.1628 B(  6-C , 24-H ) :   0.9149 
B(  6-C , 25-H ) :   0.9340 B(  7-C , 26-H ) :   0.9333 B(  7-C , 27-H ) :   0.9390 
B(  7-C , 28-H ) :   0.9454 B(  8-S ,  9-C ) :   0.9824 B(  9-C , 10-S ) :   1.0168 
B(  9-C , 29-H ) :   0.9094 B(  9-C , 30-H ) :   0.8469 B( 10-S , 11-P ) :   0.9289 
B( 10-S , 12-S ) :   0.1114 B( 11-P , 12-S ) :   1.6759 B( 11-P , 13-O ) :   1.0772 
B( 11-P , 16-O ) :   1.1454 B( 13-O , 14-C ) :   0.9133 B( 14-C , 15-C ) :   1.1666 
B( 14-C , 31-H ) :   0.9343 B( 14-C , 32-H ) :   0.9064 B( 15-C , 33-H ) :   0.9451 
B( 15-C , 34-H ) :   0.9384 B( 15-C , 35-H ) :   0.9203 B( 16-O , 17-C ) :   0.8932 
B( 17-C , 18-C ) :   1.1655 B( 17-C , 36-H ) :   0.9356 B( 17-C , 37-H ) :   0.9161 
B( 18-C , 38-H ) :   0.9466 B( 18-C , 39-H ) :   0.9394 B( 18-C , 40-H ) :   0.9413 


-------
TIMINGS
-------

Total SCF time: 0 days 0 hours 0 min 16 sec 

Total time                  ....      16.740 sec
Sum of individual times     ....      16.222 sec  ( 96.9%)

SCF preparation             ....       0.232 sec  (  1.4%)
Fock matrix formation       ....      14.822 sec  ( 88.5%)
  Startup                   ....       0.058 sec  (  0.4% of F)
  Split-RI-J                ....       8.864 sec  ( 59.8% of F)
  XC integration            ....       5.439 sec  ( 36.7% of F)
    Basis function eval.    ....       2.085 sec  ( 38.3% of XC)
    Density eval.           ....       1.027 sec  ( 18.9% of XC)
    XC-Functional eval.     ....       0.408 sec  (  7.5% of XC)
    XC-Potential eval.      ....       1.243 sec  ( 22.9% of XC)
Diagonalization             ....       0.000 sec  (  0.0%)
Density matrix formation    ....       0.234 sec  (  1.4%)
Total Energy calculation    ....       0.029 sec  (  0.2%)
Population analysis         ....       0.206 sec  (  1.2%)
Orbital Transformation      ....       0.095 sec  (  0.6%)
Orbital Orthonormalization  ....       0.000 sec  (  0.0%)
DIIS solution               ....       0.455 sec  (  2.7%)
  MO trafo                  ....       0.000 sec  (  0.0 % of DIIS)
  Orb grad                  ....       0.000 sec  (  0.0 % of DIIS)
  Energy W gradient         ....       0.000 sec  (  0.0 % of DIIS)
  DIIS error                ....       0.021 sec  (  4.6 % of DIIS)
  DIIS work                 ....       0.369 sec  ( 81.2 % of DIIS)
  Form Q                    ....       0.000 sec  (  0.0 % of DIIS)
  Form QpQm                 ....       0.000 sec  (  0.0 % of DIIS)
  Exp/Cayley                ....       0.000 sec  (  0.0 % of DIIS)
  Orb update                ....       0.000 sec  (  0.0 % of DIIS)
  Wake-sleep                ....       0.020 sec  (  4.4 % of DIIS)
SOSCF solution              ....       0.148 sec  (  0.9%)
  MO trafo                  ....       0.084 sec  ( 56.6 % of SOSCF)
  Orb grad                  ....       0.002 sec  (  1.1 % of SOSCF)
  Rot update                ....       0.028 sec  ( 19.0 % of SOSCF)
  Step                      ....       0.034 sec  ( 23.2 % of SOSCF)
Finished LeanSCF after  16.8 sec

Maximum memory used throughout the entire LEANSCF-calculation: 34.4 MB


-------------------------------------------------------------------------------
                          DFT DISPERSION CORRECTION                            
                                                                               
                                DFTD4 V3.4.0                                   
-------------------------------------------------------------------------------
The PBE functional is recognized
Active option DFTDOPT                   ...         5   

-------------------------   ----------------
Dispersion correction           -0.066293835
-------------------------   ----------------

------------------   -----------------
gCP correction             0.185496478
------------------   -----------------

-------------------------   --------------------
FINAL SINGLE POINT ENERGY     -2929.519921759379
-------------------------   --------------------


------------------------------------------------------------------------------
                              ORCA PROPERTY CALCULATIONS
------------------------------------------------------------------------------

GBWName                                 ... sp.gbw
Number of atoms                         ...     41
Number of basis functions               ...    334
Max core memory                         ...   1024 MB

Electric properties:
Dipole moment                           ... YES
Quadrupole moment                       ...  NO
Static polarizability (Dipole/Dipole)   ...  NO
Static polarizability (Dipole/Quad.)    ...  NO
Static polarizability (Quad./Quad.)     ...  NO
Static polarizability (Velocity)        ...  NO

Atomic electric properties:
Dipole moment                           ...  NO
Quadrupole moment                       ...  NO
Static polarizability                   ...  NO

Choice of electric origin               ... Center of mass
Position of electric origin             ...     0.000005    -0.000000     0.000001

General magnetic properties:
Magnetizability                         ...  NO

EPR properties:
g-Tensor (aka g-matrix)                 ...  NO
Zero-Field splitting spin-orbit         ...  NO
Zero-field splitting spin-spin          ...  NO
Hyperfine couplings                     ...  NO (   0 nuclei)
Quadrupole couplings                    ...  NO (   0 nuclei)
Contact density                         ...  NO (   0 nuclei)

NMR properties:
Chemical shifts                         ...  NO (   0 nuclei)
Spin-rotation constants                 ...  NO (   0 nuclei)
Spin-spin couplings                     ...  NO (   0 nuclei,    0 pairs)

Choice of magnetic origin               ... GIAO
Position of magnetic origin             ...     0.000000     0.000000     0.000000

Properties with geometric perturbations:
SCF Hessian                             ...  NO
IR spectrum                             ...  NO
VCD spectrum                            ...  NO
X-ray spectroscopy properties:
SCF XES/XAS/RIXS spectra                ...  NO


-------------
DIPOLE MOMENT
-------------

Method             : SCF
Type of density    : Electron Density
Multiplicity       :   1
Irrep              :   0
Energy             : -2929.6391244025685410 Eh
Relativity type    : 
Basis              : AO
                                X                 Y                 Z
Electronic contribution:     -4.750662686      -2.085866881     -10.216639477
Nuclear contribution   :      4.596555347       0.944668752      10.913148618
                        -----------------------------------------
Total Dipole Moment    :     -0.154107339      -1.141198129       0.696509141
                        -----------------------------------------
Magnitude (a.u.)       :      1.345810992
Magnitude (Debye)      :      3.420779687



--------------------
Rotational spectrum 
--------------------
 
Rotational constants in cm-1:             0.014701             0.004646             0.004408 
Rotational constants in MHz :           440.711872           139.279462           132.156186 

Dipole components along the rotational axes: 
x,y,z [a.u.] :    -0.322967    -0.448214     1.227193 
x,y,z [Debye]:    -0.820918    -1.139270     3.119277 

 

Dipole moment calculation done in   0.0 sec 

Maximum memory used throughout the entire PROP-calculation: 23.7 MB

--------------------------------
SUGGESTED CITATIONS FOR THIS RUN
--------------------------------

Below you find a list of papers that are relevant to this ORCA run
We neither can nor want to force you to cite these papers, but we appreciate if you do
You receive ORCA, which is the product of decades of hard work by many enthusiastic individuals, for free
The only thing we kindly ask in return is that you cite our papers,
We deeply appreciate it, if you show your appreciation for ORCA by not just citing the generic ORCA reference.

Please note that relegating all ORCA citations to the supporting information does *not* help us.
SI sections are not indexed - citations you put there will not count into any citation statistics
But we need these citations in order to attract the funding resources that allow us to do what we are doing

Therefore, if you are a happy ORCA user, please consider citing a few of the papers listed below in the main body of your paper

In addition to the list printed below, the program has created the file sp.bibtex that contains the list in bibtex format
You can import this file easily into all common literature databanks and citation aid programs


List of essential papers. We consider these as the minimum necessary citations

  1. Neese,F.
     Software update: the ORCA program system, version 5.0
     WIRES Comput. Molec. Sci., 2022 12(1)e1606
     doi.org/10.1002/wcms.1606

List of papers to cite with high priority. The work reported in these papers was absolutely
necessary for this run to complete.
Our perspective: the developers of density functionals and basis sets usually get cited in chemistry papers
Good! But without the algorithms to do something with them, the functionals or basis sets would not do anything.
Hence, in our opinion, the algorithm design and method developments papers are equally worthy of getting cited

  1. Neese,F.
     An improvement of the resolution of the identity approximation for the formation of the Coulomb matrix
     J. Comp. Chem., 2003 24(14)1740-1747
     doi.org/10.1002/jcc.10318
  2. Neese,F.
     The SHARK Integral Generation and Digestion System
     J. Comp. Chem., 2022  1-16
     doi.org/10.1002/jcc.26942
  3. Caldeweyher,E.; Bannwarth,C.; Grimme,S.
     Extension of the D3 dispersion coefficient model
     J. Chem. Phys., 2017 147 034112-XXXX
     doi.org/10.1063/1.4993215
  4. Caldeweyher,E.; Ehlert,S.; Hansen,A.; Neugebauer,H.; Spicher,S.; Bannwarth,C.; Grimme,S.
     A generally applicable atomic-charge dependent London dispersion correction
     J. Chem. Phys., 2019 150 154122-XXXX
     doi.org/10.1063/1.5090222
  5. Caldeweyher,E.; Mewes,J.; Ehlert,S.; Grimme,S.
     Extension and evaluation of the D4 London-dispersion model for periodic systems
     Phys. Chem. Chem. Phys., 2020 22(16)8499-8512
     doi.org/10.1039/D0CP00502A

List of suggested additional citations. These are papers that are important in the 'surrounding' of 
of this run, or papers that preceded the highly important papers. If you like your results we are grateful for a citation.

  1. Neese,F.
     The ORCA program system
     WIRES Comput. Molec. Sci., 2012 2(1)73-78
     doi.org/10.1002/wcms.81
  2. Neese,F.
     Software update: the ORCA program system, version 4.0
     WIRES Comput. Molec. Sci., 2018 8(1)1-6
     doi.org/10.1002/wcms.1327
  3. Neese,F.; Wennmohs,F.; Becker,U.; Riplinger,C.
     The ORCA quantum chemistry program package
     J. Chem. Phys., 2020 152 Art. No. L224108
     doi.org/10.1063/5.0004608

List of optional additional citations

  1. Neese,F.
     Approximate second-order SCF convergence for spin unrestricted wavefunctions
     Chem. Phys. Lett., 2000 325(1-3)93-98
     doi.org/10.1016/s0009-2614(00)00662-x

Timings for individual modules:

Sum of individual times          ...       20.546 sec (=   0.342 min)
Startup calculation              ...        1.621 sec (=   0.027 min)   7.9 %
SCF iterations                   ...       18.810 sec (=   0.314 min)  91.6 %
Property calculations            ...        0.115 sec (=   0.002 min)   0.6 %
                             ****ORCA TERMINATED NORMALLY****
TOTAL RUN TIME: 0 days 0 hours 0 minutes 21 seconds 447 msec
