      -----------------------------------------------------------      
     |                   =====================                   |     
     |                           x T B                           |     
     |                   =====================                   |     
     |                         S. Grimme                         |     
     |          Mulliken Center for Theoretical Chemistry        |     
     |                    University of Bonn                     |     
      -----------------------------------------------------------      

   * xtb version 6.7.1 (edcfbbe) compiled by 'albert@albert-system' on 2024-07-22

   xtb is free software: you can redistribute it and/or modify it under
   the terms of the GNU Lesser General Public License as published by
   the Free Software Foundation, either version 3 of the License, or
   (at your option) any later version.
   
   xtb is distributed in the hope that it will be useful,
   but WITHOUT ANY WARRANTY; without even the implied warranty of
   MERCHANTABILITY or FITNESS FOR A PARTICULAR PURPOSE.  See the
   GNU Lesser General Public License for more details.
   
   Cite this work as:
   * C. Bannwarth, E. Caldeweyher, S. Ehlert, A. Hansen, P. Pracht,
     J. Seibert, S. Spicher, S. Grimme, WIREs Comput. Mol. Sci., 2020, 11,
     e01493. DOI: 10.1002/wcms.1493
   
   for GFN2-xTB:
   * C. Bannwarth, S. Ehlert and S. Grimme., J. Chem. Theory Comput., 2019,
     15, 1652-1671. DOI: 10.1021/acs.jctc.8b01176
   for GFN1-xTB:
   * S. Grimme, C. Bannwarth, P. Shushkov, J. Chem. Theory Comput., 2017,
     13, 1989-2009. DOI: 10.1021/acs.jctc.7b00118
   for GFN0-xTB:
   * P. Pracht, E. Caldeweyher, S. Ehlert, S. Grimme, ChemRxiv, 2019, preprint.
     DOI: 10.26434/chemrxiv.8326202.v1
   for GFN-FF:
   * S. Spicher and S. Grimme, Angew. Chem. Int. Ed., 2020, 59, 15665-15673.
     DOI: 10.1002/anie.202004239
   
   for ALPB and GBSA implicit solvation:
   * S. Ehlert, M. Stahn, S. Spicher, S. Grimme, J. Chem. Theory Comput.,
     2021, 17, 4250-4261. DOI: 10.1021/acs.jctc.1c00471
   
   for ddCOSMO and CPCM-X implicit solvation:
   * M. Stahn, S. Ehlert, S. Grimme, J. Phys. Chem. A,
     2023, XX, XXXX-XXXX. DOI: 10.1021/acs.jpca.3c04382
   
   for DFT-D4:
   * E. Caldeweyher, C. Bannwarth and S. Grimme, J. Chem. Phys., 2017,
     147, 034112. DOI: 10.1063/1.4993215
   * E. Caldeweyher, S. Ehlert, A. Hansen, H. Neugebauer, S. Spicher,
     C. Bannwarth and S. Grimme, J. Chem. Phys., 2019, 150, 154122.
     DOI: 10.1063/1.5090222
   * E. Caldeweyher, J.-M. Mewes, S. Ehlert and S. Grimme, Phys. Chem. Chem. Phys.
     2020, 22, 8499-8512. DOI: 10.1039/D0CP00502A
   
   for sTDA-xTB:
   * S. Grimme and C. Bannwarth, J. Chem. Phys., 2016, 145, 054103.
     DOI: 10.1063/1.4959605
   
   in the mass-spec context:
   * V. Asgeirsson, C. Bauer and S. Grimme, Chem. Sci., 2017, 8, 4879.
     DOI: 10.1039/c7sc00601b
   * J. Koopman and S. Grimme, ACS Omega 2019, 4, 12, 15120-15133.
     DOI: 10.1021/acsomega.9b02011
   
   for metadynamics refer to:
   * S. Grimme, J. Chem. Theory Comput., 2019, 155, 2847-2862
     DOI: 10.1021/acs.jctc.9b00143
   
   for SPH calculations refer to:
   * S. Spicher and S. Grimme, J. Chem. Theory Comput., 2021, 17, 1701-1714
     DOI: 10.1021/acs.jctc.0c01306
   
   for ONIOM refer to:
   * C. Plett, A. Katbashev, S. Ehlert, S. Grimme, M. Bursch,
     Phys. Chem. Chem. Phys., 2023, 25, 17860-17868. DOI: 10.1039/D3CP02178E
   
   for DIPRO refer to:
   * J. Kohn, N. Gildemeister, S. Grimme, D. Fazzi, A. Hansen,
     J. Chem. Phys., 2023, just accepted.
   
   for PTB refer to:
   * S. Grimme, M. Mueller, A. Hansen, J. Chem. Phys., 2023, 158, 124111.
     DOI: 10.1063/5.0137838
   
   with help from (in alphabetical order)
   P. Atkinson, C. Bannwarth, F. Bohle, G. Brandenburg, E. Caldeweyher
   M. Checinski, S. Dohm, S. Ehlert, S. Ehrlich, I. Gerasimov, C. Hölzer
   A. Katbashev, J. Kohn, J. Koopman, C. Lavigne, S. Lehtola, F. März, M. Müller,
   F. Musil, H. Neugebauer, J. Pisarek, C. Plett, P. Pracht, F. Pultar,
   J. Seibert, P. Shushkov, S. Spicher, M. Stahn, M. Steiner, T. Strunk,
   J. Stückrath, T. Rose, and J. Unsleber
   
 * started run on 2025/04/09 at 09:47:19.713     
   ID    Z sym.   atoms
    1    6 C      1, 2, 4, 6, 7, 9, 12, 13, 18, 20
    2    8 O      3, 5, 10, 11, 17, 19
    3    1 H      8, 21-38
    4   16 S      14, 16
    5   15 P      15

           -------------------------------------------------
          |                Calculation Setup                |
           -------------------------------------------------

          program call               : /software/projects/pawsey0265/mwang1/xtb/bin/xtb xtb_rrho.coord --gfn2 --bhess vtight --chrg 0 --enso --norestart -I rrho-xcontrol-inp --parallel 1 --alpb water
          hostname                   : nid002043
          coordinate file            : xtb_rrho.coord
          omp threads                :                     1


           -------------------------------------------------
          |                 G F N 2 - x T B                 |
           -------------------------------------------------

        Reference                      10.1021/acs.jctc.8b01176
      * Hamiltonian:
        H0-scaling (s, p, d)           1.850000    2.230000    2.230000
        zeta-weighting                 0.500000
      * Dispersion:
        s8                             2.700000
        a1                             0.520000
        a2                             5.000000
        s9                             5.000000
      * Repulsion:
        kExp                           1.500000    1.000000
        rExp                           1.000000
      * Coulomb:
        alpha                          2.000000
        third order                    shell-resolved
        anisotropic                    true
        a3                             3.000000
        a5                             4.000000
        cn-shift                       1.200000
        cn-exp                         4.000000
        max-rad                        5.000000

      * Solvation model:               ALPB
        Solvent                        water
        Parameter file                 internal GFN2-xTB/ALPB
        Dielectric constant                8.0200E+01
        Reference state                gsolv [1 M gas/solution]
        Free energy shift                  1.0808E-03 Eh       6.7819E-01 kcal/mol
        Temperature                        2.9815E+02 K
        Density                            1.0000E+00 kg/L
        Solvent mass                       1.8000E+01 g/mol
        Interaction kernel             P16
        Born radius scaling (c1)           1.4744E+00
        Born radii integrator          GBOBC
        Born offset                        0.0000E+00 a0       0.0000E+00 AA
        H-bond correction              true
        Ion screening                  false
        Surface tension                    1.0000E-05 Eh       1.5569E+01 dyn/cm
        Grid points                               974 per atom

          ...................................................
          :                      SETUP                      :
          :.................................................:
          :  # basis functions                 113          :
          :  # atomic orbitals                 110          :
          :  # shells                           60          :
          :  # electrons                       112          :
          :  max. iterations                   250          :
          :  Hamiltonian                  GFN2-xTB          :
          :  restarted?                      false          :
          :  GBSA solvation                   true          :
          :  PC potential                    false          :
          :  electronic temp.          300.0000000     K    :
          :  accuracy                    1.0000000          :
          :  -> integral cutoff          0.2500000E+02      :
          :  -> integral neglect         0.1000000E-07      :
          :  -> SCF convergence          0.1000000E-05 Eh   :
          :  -> wf. convergence          0.1000000E-03 e    :
          :  Broyden damping             0.4000000          :
          :  net charge                          0          :
          :  unpaired electrons                  0          :
          ...................................................

 iter      E             dE          RMSdq      gap      omega  full diag
   1    -65.0527769 -0.650528E+02  0.588E+00    4.27       0.0  T
   2    -65.1950518 -0.142275E+00  0.308E+00    3.23       1.0  T
   3    -65.2051898 -0.101380E-01  0.126E+00    3.30       1.0  T
   4    -65.2113603 -0.617056E-02  0.457E-01    3.15       1.0  T
   5    -65.2121468 -0.786492E-03  0.204E-01    3.26       1.0  T
   6    -65.2122582 -0.111329E-03  0.872E-02    3.25       1.0  T
   7    -65.2122748 -0.166885E-04  0.312E-02    3.27       1.0  T
   8    -65.2122765 -0.165066E-05  0.128E-02    3.27       1.3  T
   9    -65.2122772 -0.699661E-06  0.406E-03    3.27       4.0  T
  10    -65.2122773 -0.720242E-07  0.210E-03    3.27       7.7  T
  11    -65.2122773 -0.982789E-08  0.576E-04    3.27      28.2  T
  12    -65.2122773 -0.109149E-08  0.242E-04    3.27      67.0  T

   *** convergence criteria satisfied after 12 iterations ***

         #    Occupation            Energy/Eh            Energy/eV
      -------------------------------------------------------------
         1        2.0000           -0.7677612             -20.8918
       ...           ...                  ...                  ...
        50        2.0000           -0.4497646             -12.2387
        51        2.0000           -0.4478359             -12.1862
        52        2.0000           -0.4455087             -12.1229
        53        2.0000           -0.4347719             -11.8307
        54        2.0000           -0.4135685             -11.2538
        55        2.0000           -0.3969946             -10.8028
        56        2.0000           -0.3955332             -10.7630 (HOMO)
        57                         -0.2753449              -7.4925 (LUMO)
        58                         -0.2565579              -6.9813
        59                         -0.2542995              -6.9198
        60                         -0.2095197              -5.7013
        61                         -0.1799073              -4.8955
       ...                                ...                  ...
       110                          1.2764669              34.7344
      -------------------------------------------------------------
                  HL-Gap            0.1201883 Eh            3.2705 eV
             Fermi-level           -0.3354391 Eh           -9.1278 eV

 SCC (total)                   0 d,  0 h,  0 min,  0.139 sec
 SCC setup                      ...        0 min,  0.004 sec (  3.179%)
 Dispersion                     ...        0 min,  0.000 sec (  0.345%)
 classical contributions        ...        0 min,  0.000 sec (  0.070%)
 integral evaluation            ...        0 min,  0.066 sec ( 47.185%)
 iterations                     ...        0 min,  0.034 sec ( 24.781%)
 molecular gradient             ...        0 min,  0.034 sec ( 24.192%)
 printout                       ...        0 min,  0.000 sec (  0.228%)

         :::::::::::::::::::::::::::::::::::::::::::::::::::::
         ::                     SUMMARY                     ::
         :::::::::::::::::::::::::::::::::::::::::::::::::::::
         :: total energy             -64.663551168896 Eh    ::
         :: total w/o Gsasa/hb       -64.664112319112 Eh    ::
         :: gradient norm              0.055970890434 Eh/a0 ::
         :: HOMO-LUMO gap              3.270491392963 eV    ::
         ::.................................................::
         :: SCC energy               -65.211678264285 Eh    ::
         :: -> isotropic ES            0.168525571218 Eh    ::
         :: -> anisotropic ES         -0.011029700441 Eh    ::
         :: -> anisotropic XC          0.017920503232 Eh    ::
         :: -> dispersion             -0.041511049462 Eh    ::
         :: -> Gsolv                  -0.027788484529 Eh    ::
         ::    -> Gelec               -0.028349634746 Eh    ::
         ::    -> Gsasa                0.004864642698 Eh    ::
         ::    -> Ghb                 -0.005384252179 Eh    ::
         ::    -> Gshift               0.001080759698 Eh    ::
         :: repulsion energy           0.548127095389 Eh    ::
         :: add. restraining           0.000000000000 Eh    ::
         :: total charge               0.000000000000 e     ::
         :::::::::::::::::::::::::::::::::::::::::::::::::::::

metadynamics with 1 initial structures loaded
           -------------------------------------------------
          |           Optimal kpush determination           |
           -------------------------------------------------
      ----------------------------------------------------------- 
     |                   =====================                   |
     |                        A N C O P T                        |
     |                   =====================                   |
     |               Approximate Normal Coordinate               |
     |                Rational Function Optimizer                |
      ----------------------------------------------------------- 
target rmsd / Å         0.100000
unbiased initial rmsd   0.221361
 
iter. min.        max.        rmsd       kpush
      ----------------------------------------------------------- 
     |                   =====================                   |
     |                        A N C O P T                        |
     |                   =====================                   |
     |               Approximate Normal Coordinate               |
     |                Rational Function Optimizer                |
      ----------------------------------------------------------- 
 1    0.000000    1.727273    0.014750   -0.863636
      ----------------------------------------------------------- 
     |                   =====================                   |
     |                        A N C O P T                        |
     |                   =====================                   |
     |               Approximate Normal Coordinate               |
     |                Rational Function Optimizer                |
      ----------------------------------------------------------- 
 2    0.000000    0.863636    0.021343   -0.431818
      ----------------------------------------------------------- 
     |                   =====================                   |
     |                        A N C O P T                        |
     |                   =====================                   |
     |               Approximate Normal Coordinate               |
     |                Rational Function Optimizer                |
      ----------------------------------------------------------- 
 3    0.000000    0.431818    0.032215   -0.215909
      ----------------------------------------------------------- 
     |                   =====================                   |
     |                        A N C O P T                        |
     |                   =====================                   |
     |               Approximate Normal Coordinate               |
     |                Rational Function Optimizer                |
      ----------------------------------------------------------- 
 4    0.000000    0.215909    0.049552   -0.107955
      ----------------------------------------------------------- 
     |                   =====================                   |
     |                        A N C O P T                        |
     |                   =====================                   |
     |               Approximate Normal Coordinate               |
     |                Rational Function Optimizer                |
      ----------------------------------------------------------- 
 5    0.000000    0.107955    0.075188   -0.053977
      ----------------------------------------------------------- 
     |                   =====================                   |
     |                        A N C O P T                        |
     |                   =====================                   |
     |               Approximate Normal Coordinate               |
     |                Rational Function Optimizer                |
      ----------------------------------------------------------- 
 6    0.000000    0.053977    0.108413   -0.026989
      ----------------------------------------------------------- 
     |                   =====================                   |
     |                        A N C O P T                        |
     |                   =====================                   |
     |               Approximate Normal Coordinate               |
     |                Rational Function Optimizer                |
      ----------------------------------------------------------- 
 7    0.026989    0.053977    0.088225   -0.040483
      ----------------------------------------------------------- 
     |                   =====================                   |
     |                        A N C O P T                        |
     |                   =====================                   |
     |               Approximate Normal Coordinate               |
     |                Rational Function Optimizer                |
      ----------------------------------------------------------- 
 8    0.026989    0.040483    0.097141   -0.033736
      ----------------------------------------------------------- 
     |                   =====================                   |
     |                        A N C O P T                        |
     |                   =====================                   |
     |               Approximate Normal Coordinate               |
     |                Rational Function Optimizer                |
      ----------------------------------------------------------- 
 9    0.026989    0.033736    0.102535   -0.030362
      ----------------------------------------------------------- 
     |                   =====================                   |
     |                        A N C O P T                        |
     |                   =====================                   |
     |               Approximate Normal Coordinate               |
     |                Rational Function Optimizer                |
      ----------------------------------------------------------- 
10    0.030362    0.033736    0.099797   -0.032049
final kpush: -0.032049
           -------------------------------------------------
          |            Biased Numerical Hessian             |
           -------------------------------------------------
kpush                :  -0.03205
alpha                :   1.00000
step length          :   0.00500
SCC accuracy         :   0.30000
Hessian scale factor :   1.00000
frozen atoms in %    :   0.00000    0
RMS gradient         :   0.00010
estimated CPU  time      0.15 min
estimated wall time      0.15 min

writing file <hessian>.

 projected vibrational frequencies (cm⁻¹)
eigval :       -0.00    -0.00    -0.00    -0.00     0.00     0.00
eigval :       51.96    58.98    63.76    59.14    74.99    78.56
eigval :       79.14   104.60    81.26    88.88    93.18    84.01
eigval :      113.60   137.71   146.55   147.58   159.99   163.68
eigval :      146.05   110.93   224.33   210.89   253.15   216.88
eigval :      290.40   263.27   317.13   340.82   369.92   381.73
eigval :      402.20   432.73   438.97   440.13   529.15   625.74
eigval :      638.60   676.51   719.49   739.19   749.04   770.18
eigval :      806.14   814.81   871.14   892.92   946.14   955.49
eigval :      966.09   983.69  1024.08  1049.88  1054.32  1071.91
eigval :     1093.67  1093.15  1100.40  1101.88  1105.27  1117.57
eigval :     1116.87  1133.36  1146.28  1145.14  1184.92  1201.99
eigval :     1209.72  1232.07  1248.78  1286.39  1306.04  1317.85
eigval :     1367.14  1385.10  1390.91  1392.00  1420.46  1422.97
eigval :     1430.77  1433.06  1436.14  1451.08  1455.40  1458.13
eigval :     1466.14  1474.69  1480.76  1704.23  1710.33  2924.31
eigval :     2933.42  2951.44  2954.06  2980.53  2986.19  2986.77
eigval :     2993.76  2996.94  2999.81  3008.05  3027.90  3028.17
eigval :     3040.16  3049.57  3056.73  3062.00  3063.55  3064.19
           -------------------------------------------------
          |                Property Printout                |
           -------------------------------------------------

    * Orbital Energies and Occupations

         #    Occupation            Energy/Eh            Energy/eV
      -------------------------------------------------------------
         1        2.0000           -0.7733053             -21.0427
       ...           ...                  ...                  ...
        44        2.0000           -0.4760214             -12.9532
        45        2.0000           -0.4716111             -12.8332
        46        2.0000           -0.4692679             -12.7694
        47        2.0000           -0.4625165             -12.5857
        48        2.0000           -0.4586502             -12.4805
        49        2.0000           -0.4560762             -12.4105
        50        2.0000           -0.4490509             -12.2193
        51        2.0000           -0.4478334             -12.1862
        52        2.0000           -0.4454207             -12.1205
        53        2.0000           -0.4358600             -11.8604
        54        2.0000           -0.4121065             -11.2140
        55        2.0000           -0.3946703             -10.7395
        56        2.0000           -0.3928559             -10.6902 (HOMO)
        57                         -0.2722612              -7.4086 (LUMO)
        58                         -0.2573126              -7.0018
        59                         -0.2492297              -6.7819
        60                         -0.2028779              -5.5206
        61                         -0.1763777              -4.7995
        62                         -0.1620082              -4.4085
        63                         -0.1213918              -3.3032
        64                         -0.0512986              -1.3959
        65                         -0.0451921              -1.2297
        66                         -0.0377338              -1.0268
        67                         -0.0256306              -0.6974
       ...                                ...                  ...
       110                          1.2679684              34.5032
      -------------------------------------------------------------
                  HL-Gap            0.1205948 Eh            3.2816 eV
             Fermi-level           -0.3325586 Eh           -9.0494 eV

     #   Z          covCN         q      C6AA      α(0)
     1   6 C        3.750    -0.130    23.054     6.848
     2   6 C        3.695     0.063    19.691     6.348
     3   8 O        1.703    -0.256    18.236     5.766
     4   6 C        2.715     0.372    20.687     7.445
     5   8 O        0.856    -0.463    22.978     6.427
     6   6 C        3.828    -0.091    22.205     6.705
     7   6 C        3.852     0.007    20.426     6.428
     8   1 H        0.924     0.124     1.583     1.967
     9   6 C        2.747     0.369    20.747     7.458
    10   8 O        0.856    -0.453    22.768     6.397
    11   8 O        1.703    -0.252    18.174     5.756
    12   6 C        3.702     0.080    19.388     6.296
    13   6 C        3.752    -0.132    23.100     6.854
    14  16 S        1.941    -0.136   146.789    20.392
    15  15 P        3.854     0.392   143.979    21.555
    16  16 S        0.925    -0.475   160.214    21.409
    17   8 O        1.654    -0.252    18.192     5.758
    18   6 C        3.821     0.006    20.454     6.436
    19   8 O        1.656    -0.265    18.406     5.792
    20   6 C        3.810     0.020    20.227     6.402
    21   1 H        0.925     0.055     2.262     2.352
    22   1 H        0.925     0.077     2.010     2.217
    23   1 H        0.925     0.068     2.113     2.273
    24   1 H        0.924     0.067     2.116     2.275
    25   1 H        0.925     0.093     1.850     2.127
    26   1 H        0.924     0.109     1.701     2.040
    27   1 H        0.924     0.078     1.999     2.211
    28   1 H        0.924     0.059     2.210     2.325
    29   1 H        0.924     0.069     2.099     2.265
    30   1 H        0.925     0.079     1.986     2.204
    31   1 H        0.925     0.068     2.103     2.268
    32   1 H        0.925     0.081     1.965     2.192
    33   1 H        0.925     0.115     1.654     2.011
    34   1 H        0.925     0.093     1.854     2.129
    35   1 H        0.925     0.096     1.824     2.112
    36   1 H        0.924     0.077     2.015     2.220
    37   1 H        0.925     0.111     1.687     2.031
    38   1 H        0.924     0.075     2.035     2.231

 Mol. C6AA /au·bohr⁶  :      18244.901601
 Mol. C8AA /au·bohr⁸  :     514377.493706
 Mol. α(0) /au        :        207.920357


Wiberg/Mayer (AO) data.
largest (>0.10) Wiberg bond orders for each atom

 ---------------------------------------------------------------------------
     #   Z sym  total        # sym  WBO       # sym  WBO       # sym  WBO
 ---------------------------------------------------------------------------
     1   6 C    3.987 --     2 C    1.014    21 H    0.985    23 H    0.984
                            22 H    0.979
     2   6 C    3.899 --     1 C    1.014    24 H    0.970    25 H    0.967
                             3 O    0.908
     3   8 O    2.338 --     4 C    1.193     2 C    0.908     5 O    0.180
     4   6 C    3.920 --     5 O    1.705     3 O    1.193     6 C    0.963
     5   8 O    1.992 --     4 C    1.705     3 O    0.180
     6   6 C    3.985 --     7 C    0.985    27 H    0.966     4 C    0.963
                            26 H    0.946
     7   6 C    3.969 --     6 C    0.985    14 S    0.955     9 C    0.953
                             8 H    0.925
     8   1 H    0.985 --     7 C    0.925
     9   6 C    3.922 --    10 O    1.706    11 O    1.185     7 C    0.953
    10   8 O    2.007 --     9 C    1.706    11 O    0.174
    11   8 O    2.351 --     9 C    1.185    12 C    0.897    10 O    0.174
    12   6 C    3.893 --    13 C    1.021    28 H    0.968    29 H    0.968
                            11 O    0.897
    13   6 C    3.981 --    12 C    1.021    31 H    0.982    30 H    0.982
                            32 H    0.977
    14  16 S    2.265 --    15 P    0.969     7 C    0.955    16 S    0.133
    15  15 P    5.265 --    16 S    1.524    17 O    1.336    19 O    1.288
                            14 S    0.969
    16  16 S    1.839 --    15 P    1.524    14 S    0.133
    17   8 O    2.398 --    15 P    1.336    18 C    0.887
    18   6 C    3.870 --    34 H    0.977    35 H    0.972    33 H    0.971
                            17 O    0.887
    19   8 O    2.385 --    15 P    1.288    20 C    0.915
    20   6 C    3.887 --    38 H    0.979    36 H    0.976    37 H    0.971
                            19 O    0.915
    21   1 H    0.997 --     1 C    0.985
    22   1 H    0.993 --     1 C    0.979
    23   1 H    0.995 --     1 C    0.984
    24   1 H    0.995 --     2 C    0.970
    25   1 H    0.991 --     2 C    0.967
    26   1 H    0.988 --     6 C    0.946
    27   1 H    0.994 --     6 C    0.966
    28   1 H    0.996 --    12 C    0.968
    29   1 H    0.995 --    12 C    0.968
    30   1 H    0.994 --    13 C    0.982
    31   1 H    0.995 --    13 C    0.982
    32   1 H    0.992 --    13 C    0.977
    33   1 H    0.987 --    18 C    0.971
    34   1 H    0.991 --    18 C    0.977
    35   1 H    0.991 --    18 C    0.972
    36   1 H    0.994 --    20 C    0.976
    37   1 H    0.988 --    20 C    0.971
    38   1 H    0.994 --    20 C    0.979
 ---------------------------------------------------------------------------

Topologies differ in total number of bonds
Writing topology from bond orders to xtbtopo.mol

molecular dipole:
                 x           y           z       tot (Debye)
 q only:       -0.656       0.078      -3.538
   full:       -0.662       0.188      -3.262       8.473
molecular quadrupole (traceless):
                xx          xy          yy          xz          yz          zz
 q only:        7.913     -14.917      12.937      -2.095       0.266     -20.851
  q+dip:       11.022     -10.953      10.402      -5.589      -0.987     -21.424
   full:       11.072     -11.933      10.423      -4.664      -1.063     -21.495

           -------------------------------------------------
          |                Geometry Summary                 |
           -------------------------------------------------

      molecular mass/u    :      330.3579996
   center of mass at/Å    :       -0.0164299      -0.0368733       0.0336701
  moments of inertia/u·Å² :        0.1206154E+04   0.2422850E+04   0.2943446E+04
rotational constants/cm⁻¹ :        0.1397635E-01   0.6957770E-02   0.5727175E-02

 * 34 selected distances

     #   Z          #   Z                                           value/Å
     1   6 C        2   6 C                                       1.5204667
     2   6 C        3   8 O                                       1.4416103
     3   8 O        4   6 C                                       1.3177402
     4   6 C        5   8 O                                       1.2106787
     6   6 C        7   6 C                                       1.5281477
     7   6 C        8   1 H                                       1.0959356
     9   6 C       10   8 O                                       1.2086149
     9   6 C       11   8 O                                       1.3172717
    11   8 O       12   6 C                                       1.4455292
    12   6 C       13   6 C                                       1.5139419
    14  16 S       15  15 P                                       2.1241974 (max)
    15  15 P       16  16 S                                       1.9579349
    15  15 P       17   8 O                                       1.5782431
    17   8 O       18   6 C                                       1.4431174
    15  15 P       19   8 O                                       1.6031644
    19   8 O       20   6 C                                       1.4311786
     1   6 C       21   1 H                                       1.0877343
     1   6 C       22   1 H                                       1.0849832 (min)
     1   6 C       23   1 H                                       1.0866032
     2   6 C       24   1 H                                       1.0935010
     2   6 C       25   1 H                                       1.0898249
     6   6 C       26   1 H                                       1.0907861
     6   6 C       27   1 H                                       1.0916345
    12   6 C       28   1 H                                       1.0946071
    12   6 C       29   1 H                                       1.0947198
    13   6 C       30   1 H                                       1.0857548
    13   6 C       31   1 H                                       1.0857243
    13   6 C       32   1 H                                       1.0851569
    18   6 C       33   1 H                                       1.0869898
    18   6 C       34   1 H                                       1.0880251
    18   6 C       35   1 H                                       1.0895816
    20   6 C       36   1 H                                       1.0910129
    20   6 C       37   1 H                                       1.0873448
    20   6 C       38   1 H                                       1.0903135

 * 5 distinct bonds (by element types)

   Z      Z             #   av. dist./Å        max./Å        min./Å
   1 H    6 C          19     1.0894860     1.0959356     1.0849832
   6 C    6 C           3     1.5208521     1.5281477     1.5139419
   6 C    8 O           8     1.3519676     1.4455292     1.2086149
   8 O   15 P           2     1.5907037     1.6031644     1.5782431
  15 P   16 S           2     2.0410661     2.1241974     1.9579349

           -------------------------------------------------
          |               Frequency Printout                |
           -------------------------------------------------
 projected vibrational frequencies (cm⁻¹)
eigval :       -0.00    -0.00    -0.00    -0.00     0.00     0.00
eigval :       51.96    58.98    63.76    59.14    74.99    78.56
eigval :       79.14   104.60    81.26    88.88    93.18    84.01
eigval :      113.60   137.71   146.55   147.58   159.99   163.68
eigval :      146.05   110.93   224.33   210.89   253.15   216.88
eigval :      290.40   263.27   317.13   340.82   369.92   381.73
eigval :      402.20   432.73   438.97   440.13   529.15   625.74
eigval :      638.60   676.51   719.49   739.19   749.04   770.18
eigval :      806.14   814.81   871.14   892.92   946.14   955.49
eigval :      966.09   983.69  1024.08  1049.88  1054.32  1071.91
eigval :     1093.67  1093.15  1100.40  1101.88  1105.27  1117.57
eigval :     1116.87  1133.36  1146.28  1145.14  1184.92  1201.99
eigval :     1209.72  1232.07  1248.78  1286.39  1306.04  1317.85
eigval :     1367.14  1385.10  1390.91  1392.00  1420.46  1422.97
eigval :     1430.77  1433.06  1436.14  1451.08  1455.40  1458.13
eigval :     1466.14  1474.69  1480.76  1704.23  1710.33  2924.31
eigval :     2933.42  2951.44  2954.06  2980.53  2986.19  2986.77
eigval :     2993.76  2996.94  2999.81  3008.05  3027.90  3028.17
eigval :     3040.16  3049.57  3056.73  3062.00  3063.55  3064.19
 reduced masses (amu)
   1: 17.94   2: 14.33   3: 17.03   4: 16.36   5: 17.18   6: 14.54   7: 17.29   8: 20.74
   9: 15.15  10: 17.71  11: 19.01  12: 18.03  13: 11.92  14: 17.66  15: 10.99  16: 11.85
  17: 12.72  18:  9.60  19: 12.26  20: 16.97  21: 16.27  22: 14.86  23: 11.84  24:  9.68
  25:  6.79  26:  1.94  27: 13.79  28:  6.97  29: 15.35  30:  2.59  31: 18.91  32:  5.42
  33: 18.19  34: 11.31  35: 16.92  36: 12.02  37: 18.76  38: 19.52  39: 23.19  40: 10.56
  41: 14.03  42: 12.23  43: 24.36  44: 11.40  45: 12.85  46: 22.71  47: 13.01  48: 22.55
  49:  4.63  50:  2.18  51:  8.69  52: 10.07  53: 10.38  54:  8.19  55: 10.84  56: 14.54
  57: 14.04  58:  8.96  59:  8.92  60:  9.35  61:  7.41  62:  3.46  63:  5.67  64:  4.12
  65:  3.60  66:  8.05  67:  4.09  68:  4.98  69:  6.25  70:  4.16  71: 11.11  72:  7.42
  73:  6.55  74:  2.14  75:  4.00  76:  4.46  77:  3.40  78:  3.61  79:  2.33  80:  2.32
  81:  3.21  82:  2.99  83:  1.54  84:  1.99  85:  1.94  86:  1.50  87:  1.56  88:  1.59
  89:  1.86  90:  1.51  91:  1.49  92:  1.55  93:  1.56  94: 13.45  95: 13.34  96:  1.76
  97:  1.98  98:  1.46  99:  1.71 100:  1.83 101:  1.52 102:  1.60 103:  1.75 104:  1.75
 105:  1.73 106:  1.70 107:  1.87 108:  1.80 109:  1.81 110:  1.63 111:  1.66 112:  1.56
 113:  1.94 114:  1.72
 IR intensities (km·mol⁻¹)
   1:  1.82   2:  0.89   3:  0.05   4:  0.64   5:  0.15   6:  0.14   7:  4.70   8:  4.34
   9:  2.58  10:  2.67  11:  3.68  12:  2.68  13:  0.06  14:  1.82  15:  0.12  16:  6.43
  17: 13.80  18:  1.96  19:  5.99  20:  3.75  21:  8.30  22:  1.12  23:  1.19  24:  2.22
  25:  3.26  26:  0.37  27:  8.59  28:  6.51  29: 17.00  30:  0.82  31: 40.60  32:  6.03
  33: 31.94  34: 10.88  35:  9.22  36:  3.66  37: 20.52  38: 55.18  39: 61.57  40: 10.57
  41: 35.84  42: 14.09  43:224.52  44: 20.19  45: 20.66  46:319.14  47: 35.30  48:226.03
  49: 23.15  50:  2.85  51: 15.09  52: 24.14  53: 11.72  54:  6.69  55: 17.28  56:322.29
  57:180.08  58: 44.89  59: 38.60  60:110.76  61: 12.77  62:  3.30  63: 57.87  64:  4.22
  65:  3.32  66: 27.15  67:  8.13  68: 15.20  69: 57.49  70:  3.17  71:489.90  72: 88.42
  73:257.15  74:  3.22  75: 66.37  76:  5.49  77: 10.45  78:  7.43  79: 20.83  80: 14.93
  81: 15.47  82:  2.87  83: 16.17  84:  4.26  85:  7.45  86: 10.54  87: 13.54  88: 11.21
  89:  2.10  90:  6.38  91:  7.51  92:  3.14  93:  2.38  94:666.17  95:509.95  96:  5.34
  97: 27.12  98: 27.73  99: 22.37 100:  8.30 101: 11.35 102:  8.33 103:  0.55 104:  6.20
 105:  7.35 106:  5.11 107:  0.59 108:  1.36 109: 33.97 110: 24.02 111: 17.62 112: 17.59
 113: 20.15 114: 16.12
 Raman intensities (Ä⁴*amu⁻¹)
   1:  0.00   2:  0.00   3:  0.00   4:  0.00   5:  0.00   6:  0.00   7:  0.00   8:  0.00
   9:  0.00  10:  0.00  11:  0.00  12:  0.00  13:  0.00  14:  0.00  15:  0.00  16:  0.00
  17:  0.00  18:  0.00  19:  0.00  20:  0.00  21:  0.00  22:  0.00  23:  0.00  24:  0.00
  25:  0.00  26:  0.00  27:  0.00  28:  0.00  29:  0.00  30:  0.00  31:  0.00  32:  0.00
  33:  0.00  34:  0.00  35:  0.00  36:  0.00  37:  0.00  38:  0.00  39:  0.00  40:  0.00
  41:  0.00  42:  0.00  43:  0.00  44:  0.00  45:  0.00  46:  0.00  47:  0.00  48:  0.00
  49:  0.00  50:  0.00  51:  0.00  52:  0.00  53:  0.00  54:  0.00  55:  0.00  56:  0.00
  57:  0.00  58:  0.00  59:  0.00  60:  0.00  61:  0.00  62:  0.00  63:  0.00  64:  0.00
  65:  0.00  66:  0.00  67:  0.00  68:  0.00  69:  0.00  70:  0.00  71:  0.00  72:  0.00
  73:  0.00  74:  0.00  75:  0.00  76:  0.00  77:  0.00  78:  0.00  79:  0.00  80:  0.00
  81:  0.00  82:  0.00  83:  0.00  84:  0.00  85:  0.00  86:  0.00  87:  0.00  88:  0.00
  89:  0.00  90:  0.00  91:  0.00  92:  0.00  93:  0.00  94:  0.00  95:  0.00  96:  0.00
  97:  0.00  98:  0.00  99:  0.00 100:  0.00 101:  0.00 102:  0.00 103:  0.00 104:  0.00
 105:  0.00 106:  0.00 107:  0.00 108:  0.00 109:  0.00 110:  0.00 111:  0.00 112:  0.00
 113:  0.00 114:  0.00
 output can be read by thermo (or use thermo option).
 writing <g98.out> molden fake output.
 recommended (thermochemical) frequency scaling factor: 1.0
           -------------------------------------------------
          |             Thermodynamic Functions             |
           -------------------------------------------------

Molecule has no symmetry elements
It seems to be the C1 point group
c1  symmetry found (for desy threshold:  0.10E+00) used in thermo

          ...................................................
          :                      SETUP                      :
          :.................................................:
          :  # frequencies                         108      :
          :  # imaginary freq.                       0      :
          :  linear?                             false      :
          :  only rotor calc.                    false      :
          :  symmetry                               c1      :
          :  rotational number                       1      :
          :  scaling factor                  1.0000000      :
          :  rotor cutoff                    0.0000000 cm⁻¹ :
          :  imag. cutoff                 -100.0000000 cm⁻¹ :
          :.................................................:

    mode    ω/cm⁻¹     T·S(HO)/kcal·mol⁻¹    T·S(FR)/kcal·mol⁻¹   T·S(vib)
   ------------------------------------------------------------------------
       1     51.96    -1.41364 (100.00%)    -1.04512 (  0.00%)    -1.41364
       2     58.98    -1.33899 (100.00%)    -1.00758 (  0.00%)    -1.33899
       3     63.76    -1.29318 (100.00%)    -0.98451 (  0.00%)    -1.29318
       4     59.14    -1.33742 (100.00%)    -1.00679 (  0.00%)    -1.33742
       5     74.99    -1.19796 (100.00%)    -0.93646 (  0.00%)    -1.19796
       6     78.56    -1.17069 (100.00%)    -0.92266 (  0.00%)    -1.17069
       7     79.14    -1.16636 (100.00%)    -0.92048 (  0.00%)    -1.16636
       8    104.60    -1.00379 (100.00%)    -0.83786 (  0.00%)    -1.00379
       9     81.26    -1.15092 (100.00%)    -0.91266 (  0.00%)    -1.15092
      10     88.88    -1.09858 (100.00%)    -0.88612 (  0.00%)    -1.09858
      11     93.18    -1.07102 (100.00%)    -0.87212 (  0.00%)    -1.07102
      12     84.01    -1.13144 (100.00%)    -0.90279 (  0.00%)    -1.13144
      13    113.60    -0.95599 (100.00%)    -0.81341 (  0.00%)    -0.95599
      14    137.71    -0.84540 (100.00%)    -0.75641 (  0.00%)    -0.84540
      15    146.55    -0.80994 (100.00%)    -0.73798 (  0.00%)    -0.80994
      16    147.58    -0.80597 (100.00%)    -0.73591 (  0.00%)    -0.80597
      17    159.99    -0.76026 (100.00%)    -0.71198 (  0.00%)    -0.76026
      18    163.68    -0.74741 (100.00%)    -0.70523 (  0.00%)    -0.74741
      19    146.05    -0.81187 (100.00%)    -0.73898 (  0.00%)    -0.81187
      20    110.93    -0.96975 (100.00%)    -0.82046 (  0.00%)    -0.96975
      21    224.33    -0.57360 (100.00%)    -0.61186 (  0.00%)    -0.57360
      22    210.89    -0.60701 (100.00%)    -0.63015 (  0.00%)    -0.60701
      23    253.15    -0.50939 (100.00%)    -0.57604 (  0.00%)    -0.50939
      24    216.88    -0.59182 (100.00%)    -0.62186 (  0.00%)    -0.59182
      25    290.40    -0.43877 (100.00%)    -0.53538 (  0.00%)    -0.43877
      26    263.27    -0.48897 (100.00%)    -0.56444 (  0.00%)    -0.48897
   ------------------------------------------------------------------------

   temp. (K)  partition function   enthalpy   heat capacity  entropy
                                   cal/mol     cal/K/mol   cal/K/mol   J/K/mol
 298.15  VIB  0.330E+11            13939.113     79.285     94.882
         ROT  0.708E+07              888.752      2.981     34.327
         INT  0.234E+18            14827.865     82.266    129.209
         TR   0.581E+28             1481.254      4.968     43.260
         TOT                       16309.1188    87.2342   172.4691   721.6109

       T/K    H(0)-H(T)+PV         H(T)/Eh          T*S/Eh         G(T)/Eh
   ------------------------------------------------------------------------
    298.15    0.259902E-01    0.314497E+00    0.819457E-01    0.232551E+00
   ------------------------------------------------------------------------

         :::::::::::::::::::::::::::::::::::::::::::::::::::::
         ::                  THERMODYNAMIC                  ::
         :::::::::::::::::::::::::::::::::::::::::::::::::::::
         :: total free energy         -64.469158969789 Eh   ::
         ::.................................................::
         :: total energy              -64.701710274651 Eh   ::
         :: zero point energy           0.288506724017 Eh   ::
         :: G(RRHO) w/o ZPVE           -0.055955419155 Eh   ::
         :: G(RRHO) contrib.            0.232551304862 Eh   ::
         :::::::::::::::::::::::::::::::::::::::::::::::::::::

optimized geometry written to: xtbopt.coord


           -------------------------------------------------
          | TOTAL ENERGY              -64.701710274651 Eh   |
          | TOTAL ENTHALPY            -64.387213315446 Eh   |
          | TOTAL FREE ENERGY         -64.469158969789 Eh   |
          | GRADIENT NORM               0.000099836772 Eh/α |
          | HOMO-LUMO GAP               3.281550368781 eV   |
           -------------------------------------------------

------------------------------------------------------------------------
 * finished run on 2025/04/09 at 09:47:37.763     
------------------------------------------------------------------------
 total:
 * wall-time:     0 d,  0 h,  0 min, 18.049 sec
 *  cpu-time:     0 d,  0 h,  0 min, 17.957 sec
 * ratio c/w:     0.995 speedup
 SCF:
 * wall-time:     0 d,  0 h,  0 min,  0.139 sec
 *  cpu-time:     0 d,  0 h,  0 min,  0.097 sec
 * ratio c/w:     0.694 speedup
 analytical hessian:
 * wall-time:     0 d,  0 h,  0 min,  8.986 sec
 *  cpu-time:     0 d,  0 h,  0 min,  8.983 sec
 * ratio c/w:     1.000 speedup

