      -----------------------------------------------------------      
     |                   =====================                   |     
     |                           x T B                           |     
     |                   =====================                   |     
     |                         S. Grimme                         |     
     |          Mulliken Center for Theoretical Chemistry        |     
     |                    University of Bonn                     |     
      -----------------------------------------------------------      

   * xtb version 6.7.1 (edcfbbe) compiled by 'albert@albert-system' on 2024-07-22

   xtb is free software: you can redistribute it and/or modify it under
   the terms of the GNU Lesser General Public License as published by
   the Free Software Foundation, either version 3 of the License, or
   (at your option) any later version.
   
   xtb is distributed in the hope that it will be useful,
   but WITHOUT ANY WARRANTY; without even the implied warranty of
   MERCHANTABILITY or FITNESS FOR A PARTICULAR PURPOSE.  See the
   GNU Lesser General Public License for more details.
   
   Cite this work as:
   * C. Bannwarth, E. Caldeweyher, S. Ehlert, A. Hansen, P. Pracht,
     J. Seibert, S. Spicher, S. Grimme, WIREs Comput. Mol. Sci., 2020, 11,
     e01493. DOI: 10.1002/wcms.1493
   
   for GFN2-xTB:
   * C. Bannwarth, S. Ehlert and S. Grimme., J. Chem. Theory Comput., 2019,
     15, 1652-1671. DOI: 10.1021/acs.jctc.8b01176
   for GFN1-xTB:
   * S. Grimme, C. Bannwarth, P. Shushkov, J. Chem. Theory Comput., 2017,
     13, 1989-2009. DOI: 10.1021/acs.jctc.7b00118
   for GFN0-xTB:
   * P. Pracht, E. Caldeweyher, S. Ehlert, S. Grimme, ChemRxiv, 2019, preprint.
     DOI: 10.26434/chemrxiv.8326202.v1
   for GFN-FF:
   * S. Spicher and S. Grimme, Angew. Chem. Int. Ed., 2020, 59, 15665-15673.
     DOI: 10.1002/anie.202004239
   
   for ALPB and GBSA implicit solvation:
   * S. Ehlert, M. Stahn, S. Spicher, S. Grimme, J. Chem. Theory Comput.,
     2021, 17, 4250-4261. DOI: 10.1021/acs.jctc.1c00471
   
   for ddCOSMO and CPCM-X implicit solvation:
   * M. Stahn, S. Ehlert, S. Grimme, J. Phys. Chem. A,
     2023, XX, XXXX-XXXX. DOI: 10.1021/acs.jpca.3c04382
   
   for DFT-D4:
   * E. Caldeweyher, C. Bannwarth and S. Grimme, J. Chem. Phys., 2017,
     147, 034112. DOI: 10.1063/1.4993215
   * E. Caldeweyher, S. Ehlert, A. Hansen, H. Neugebauer, S. Spicher,
     C. Bannwarth and S. Grimme, J. Chem. Phys., 2019, 150, 154122.
     DOI: 10.1063/1.5090222
   * E. Caldeweyher, J.-M. Mewes, S. Ehlert and S. Grimme, Phys. Chem. Chem. Phys.
     2020, 22, 8499-8512. DOI: 10.1039/D0CP00502A
   
   for sTDA-xTB:
   * S. Grimme and C. Bannwarth, J. Chem. Phys., 2016, 145, 054103.
     DOI: 10.1063/1.4959605
   
   in the mass-spec context:
   * V. Asgeirsson, C. Bauer and S. Grimme, Chem. Sci., 2017, 8, 4879.
     DOI: 10.1039/c7sc00601b
   * J. Koopman and S. Grimme, ACS Omega 2019, 4, 12, 15120-15133.
     DOI: 10.1021/acsomega.9b02011
   
   for metadynamics refer to:
   * S. Grimme, J. Chem. Theory Comput., 2019, 155, 2847-2862
     DOI: 10.1021/acs.jctc.9b00143
   
   for SPH calculations refer to:
   * S. Spicher and S. Grimme, J. Chem. Theory Comput., 2021, 17, 1701-1714
     DOI: 10.1021/acs.jctc.0c01306
   
   for ONIOM refer to:
   * C. Plett, A. Katbashev, S. Ehlert, S. Grimme, M. Bursch,
     Phys. Chem. Chem. Phys., 2023, 25, 17860-17868. DOI: 10.1039/D3CP02178E
   
   for DIPRO refer to:
   * J. Kohn, N. Gildemeister, S. Grimme, D. Fazzi, A. Hansen,
     J. Chem. Phys., 2023, just accepted.
   
   for PTB refer to:
   * S. Grimme, M. Mueller, A. Hansen, J. Chem. Phys., 2023, 158, 124111.
     DOI: 10.1063/5.0137838
   
   with help from (in alphabetical order)
   P. Atkinson, C. Bannwarth, F. Bohle, G. Brandenburg, E. Caldeweyher
   M. Checinski, S. Dohm, S. Ehlert, S. Ehrlich, I. Gerasimov, C. Hölzer
   A. Katbashev, J. Kohn, J. Koopman, C. Lavigne, S. Lehtola, F. März, M. Müller,
   F. Musil, H. Neugebauer, J. Pisarek, C. Plett, P. Pracht, F. Pultar,
   J. Seibert, P. Shushkov, S. Spicher, M. Stahn, M. Steiner, T. Strunk,
   J. Stückrath, T. Rose, and J. Unsleber
   
 * started run on 2025/04/10 at 13:43:08.553     
   ID    Z sym.   atoms
    1    6 C      1, 2, 7, 8, 10, 15, 16, 18, 19
    2    8 O      3, 6, 14, 17
    3   15 P      4, 12
    4   16 S      5, 9, 11, 13
    5    1 H      20-41

           -------------------------------------------------
          |                Calculation Setup                |
           -------------------------------------------------

          program call               : /srv/scratch/z5358697/.xtb/bin/xtb xtb_opt.coord --opt normal --orca -I xtb_opt-xcontrol-inp
          hostname                   : k163
          coordinate file            : xtb_opt.coord
          omp threads                :                    24

           -------------------------------------------------
          |                   Orca driver                   |
           -------------------------------------------------
orca executable           : /apps/z_install_tree/linux-rocky8-ivybridge/gcc-12.2.0/orca-6.0.0-srtngmq3qlimg2qxbl6avaaiffipurdx/bin/orca
orca input file           : xtb_opt.inp
orca input line           : 
orca parallel             : true
orca number of threads    : 24
                         * ORCA takes the control...
  ------------------------------------------------------------------------

                                 *****************
                                 * O   R   C   A *
                                 *****************

                                            #,                                       
                                            ###                                      
                                            ####                                     
                                            #####                                    
                                            ######                                   
                                           ########,                                 
                                     ,,################,,,,,                         
                               ,,#################################,,                 
                          ,,##########################################,,             
                       ,#########################################, ''#####,          
                    ,#############################################,,   '####,        
                  ,##################################################,,,,####,       
                ,###########''''           ''''###############################       
              ,#####''   ,,,,##########,,,,          '''####'''          '####       
            ,##' ,,,,###########################,,,                        '##       
           ' ,,###''''                  '''############,,,                           
         ,,##''                                '''############,,,,        ,,,,,,###''
      ,#''                                            '''#######################'''  
     '                                                          ''''####''''         
             ,#######,   #######,   ,#######,      ##                                
            ,#'     '#,  ##    ##  ,#'     '#,    #''#        ,####,   ,####,        
            ##       ##  ##   ,#'  ##            #'  '#       #'       #'  '#        
            ##       ##  #######   ##           ,######,      #####,   #    #        
            '#,     ,#'  ##    ##  '#,     ,#' ,#      #,     #,   #   #,  ,#        
             '#######'   ##     ##  '#######'  #'      '#     '####' # '####'        



                #########################################################
                #                        -***-                          #
                #          Department of theory and spectroscopy        #
                #                                                       #
                #                      Frank Neese                      #
                #                                                       #
                #     Directorship, Architecture, Infrastructure        #
                #                    SHARK, DRIVERS                     #
                #        Core code/Algorithms in most modules           #
                #                                                       #
                #        Max Planck Institute fuer Kohlenforschung      #
                #                Kaiser Wilhelm Platz 1                 #
                #                 D-45470 Muelheim/Ruhr                 #
                #                      Germany                          #
                #                                                       #
                #                  All rights reserved                  #
                #                        -***-                          #
                #########################################################


                         Program Version 6.0.0  -   RELEASE  -


 With contributions from (in alphabetic order):
   Daniel Aravena         : Magnetic Suceptibility
   Michael Atanasov       : Ab Initio Ligand Field Theory (pilot matlab implementation)
   Alexander A. Auer      : GIAO ZORA, VPT2 properties, NMR spectrum
   Ute Becker             : All parallelization in ORCA, NUMFREQ, NUMCALC
   Giovanni Bistoni       : ED, misc. LED, open-shell LED, HFLD
   Martin Brehm           : Molecular dynamics
   Dmytro Bykov           : pre 5.0 version of the SCF Hessian
   Marcos Casanova-Páez   : Triplet and SCS-CIS(D). UHF-(DLPNO)-IP/EA/STEOM-CCSD. UHF-CVS-IP/STEOM-CCSD
   Vijay G. Chilkuri      : MRCI spin determinant printing, contributions to CSF-ICE
   Pauline Colinet        : FMM embedding
   Dipayan Datta          : RHF DLPNO-CCSD density
   Achintya Kumar Dutta   : EOM-CC, STEOM-CC
   Nicolas Foglia         : Exact transition moments, OPA infrastructure, MCD improvements
   Dmitry Ganyushin       : Spin-Orbit,Spin-Spin,Magnetic field MRCI
   Miquel Garcia          : C-PCM and meta-GGA Hessian, CCSD/C-PCM, Gaussian charge scheme
   Tiago L. C. Gouveia    : GS-ROHF, GS-ROCIS
   Yang Guo               : DLPNO-NEVPT2, F12-NEVPT2, CIM, IAO-localization
   Andreas Hansen         : Spin unrestricted coupled pair/coupled cluster methods
   Ingolf Harden          : AUTO-CI MPn and infrastructure 
   Benjamin Helmich-Paris : MC-RPA, TRAH-(SCF,CASSCF), AVAS, COSX integrals, SCF dyn. polar.
   Lee Huntington         : MR-EOM, pCC
   Robert Izsak           : Overlap fitted RIJCOSX, COSX-SCS-MP3, EOM
   Riya Kayal             : Wick's Theorem for AUTO-CI, AUTO-CI UHF-CCSDT
   Emily Kempfer          : AUTO-CI, RHF CISDT and CCSDT
   Christian Kollmar      : KDIIS, OOCD, Brueckner-CCSD(T), CCSD density, CASPT2, CASPT2-K, improved NEVPT2
   Axel Koslowski         : Symmetry handling
   Simone Kossmann        : Meta GGA functionals, TD-DFT gradient, OOMP2, (MP2 Hessian; deprecated post 5.0)
   Lucas Lang             : DCDCAS
   Marvin Lechner         : AUTO-CI (C++ implementation), FIC-MRCC
   Spencer Leger          : CASSCF response
   Dagmar Lenk            : GEPOL surface, SMD, ORCA-2-JSON
   Dimitrios Liakos       : Extrapolation schemes; Compound Job, initial MDCI parallelization
   Dimitrios Manganas     : Further ROCIS development; embedding schemes. LFT, Crystal Embedding
   Dimitrios Pantazis     : SARC Basis sets
   Anastasios Papadopoulos: AUTO-CI, single reference methods and gradients
   Taras Petrenko         : pre 6.0 DFT Hessian and TD-DFT gradient, (ASA, deprecated), ECA, 1-Electron XAS/XES, NRVS
   Peter Pinski           : DLPNO-MP2, DLPNO-MP2 Gradient
   Christoph Reimann      : Effective Core Potentials
   Marius Retegan         : Local ZFS, SOC
   Christoph Riplinger    : Optimizer, TS searches, QM/MM, DLPNO-CCSD(T), (RO)-DLPNO pert. Triples
   Michael Roemelt        : Original ROCIS implementation
   Masaaki Saitow         : Open-shell DLPNO-CCSD energy and density
   Barbara Sandhoefer     : DKH picture change effects
   Kantharuban Sivalingam : CASSCF convergence/infrastructure, NEVPT2 and variants, FIC-MRCI
   Bernardo de Souza      : ESD, SOC TD-DFT
   Georgi Stoychev        : AutoAux, RI-MP2 NMR, DLPNO-MP2 response, X2C
   Van Anh Tran           : RI-MP2 g-tensors
   Willem Van den Heuvel  : Paramagnetic NMR
   Zikuan Wang            : NOTCH, Electric field optimization 
   Frank Wennmohs         : Technical directorship and infrastructure
   Hang Xu                : AUTO-CI-Response properties 


 We gratefully acknowledge several colleagues who have allowed us to
 interface, adapt or use parts of their codes:
   Stefan Grimme, W. Hujo, H. Kruse, P. Pracht,  : VdW corrections, initial TS optimization,
                  C. Bannwarth, S. Ehlert,         DFT functionals, gCP, sTDA/sTD-DF
                  L. Wittmann, M. Mueller
   Ed Valeev, F. Pavosevic, A. Kumar             : LibInt (2-el integral package), F12 methods
   Garnet Chan, S. Sharma, J. Yang, R. Olivares  : DMRG
   Ulf Ekstrom                                   : XCFun DFT Library
   Mihaly Kallay                                 : mrcc  (arbitrary order and MRCC methods)
   Frank Weinhold                                : gennbo (NPA and NBO analysis)
   Simon Mueller                                 : openCOSMO-RS
   Christopher J. Cramer and Donald G. Truhlar   : smd solvation model
   Lars Goerigk                                  : TD-DFT with DH, B97 family of functionals
   V. Asgeirsson, H. Jonsson                     : NEB implementation
   FAccTs GmbH                                   : IRC, NEB, NEB-TS, DLPNO-Multilevel, CI-OPT
                                                   MM, QMMM, 2- and 3-layer-ONIOM, Crystal-QMMM,
                                                   LR-CPCM, SF, NACMEs, symmetry and pop. for TD-DFT,
                                                   nearIR, NL-DFT gradient (VV10), updates on ESD,
                                                   ML-optimized integration grids, MBIS, APM,
                                                   GOAT, DOCKER, SOLVATOR, interface openCOSMO-RS
   S Lehtola, MJT Oliveira, MAL Marques          : LibXC Library
   Liviu Ungur et al                             : ANISO software


 Your calculation uses the libint2 library for the computation of 2-el integrals
 For citations please refer to: http://libint.valeyev.net

 Your ORCA version has been built with support for libXC version: 6.2.2
 For citations please refer to: https://libxc.gitlab.io

 This ORCA versions uses:
   CBLAS   interface :  Fast vector & matrix operations
   LAPACKE interface :  Fast linear algebra routines
   SCALAPACK package :  Parallel linear algebra routines
   Shared memory     :  Shared parallel matrices
   BLAS/LAPACK       :  OpenBLAS 0.3.27  USE64BITINT DYNAMIC_ARCH NO_AFFINITY SapphireRapids SINGLE_THREADED
        Core in use  :  SapphireRapids
   Copyright (c) 2011-2014, The OpenBLAS Project




***************************************
The coordinates will be read from file: xtb_opt.xyz
***************************************


Your calculation utilizes the geometrical counterpoise correction gCP
Please cite in your paper:
H.Kruse, S. Grimme J.Chem.Phys., 136, (2012), 154101 
   

Your calculation utilizes the atom-pairwise dispersion correction
based on EEQ partial charges (D4)


Your calculation utilizes the SMD solvation module
Please cite in your paper:
A.V. Marenich, C.J. Cramer, D.G. Truhlar J. Phys. Chem. B, 113, (2009), 6378 

================================================================================

----- Orbital basis set information -----
Your calculation utilizes the basis: def2-mTZVPP
   Stefan Grimme, Andreas Hansen, Sebastian Ehlert, and Jan-Michael Mewes 
   J. Chem. Phys. 154, 064103 (2021). DOI: 10.1063/5.0040021

----- AuxJ basis set information -----
Your calculation utilizes the auxiliary basis: def2/J
   F. Weigend, Phys. Chem. Chem. Phys. 8, 1057 (2006).

================================================================================
                                        WARNINGS
                       Please study these warnings very carefully!
================================================================================

WARNING: Old DensityContainer found on disk!
         Will remove this file - 
         If you want to keep old densities, please start your calculation with a different basename. 

Using LibXC functional ID 497 : Re-regularized SCAN exchange by Furness et al
[ 1]  J. W. Furness, A. D. Kaplan, J. Ning, J. P. Perdew, and J. Sun.,  J. Phys. Chem. Lett. 11, 8208-8215 (2020)
[ 2]  J. W. Furness, A. D. Kaplan, J. Ning, J. P. Perdew, and J. Sun.,  J. Phys. Chem. Lett. 11, 9248-9248 (2020)
Using LibXC functional ID 498 : Re-regularized SCAN correlation by Furness et al
[ 1]  J. W. Furness, A. D. Kaplan, J. Ning, J. P. Perdew, and J. Sun.,  J. Phys. Chem. Lett. 11, 8208-8215 (2020)
[ 2]  J. W. Furness, A. D. Kaplan, J. Ning, J. P. Perdew, and J. Sun.,  J. Phys. Chem. Lett. 11, 9248-9248 (2020)
Using LibXC functional ID 497 : Re-regularized SCAN exchange by Furness et al
[ 1]  J. W. Furness, A. D. Kaplan, J. Ning, J. P. Perdew, and J. Sun.,  J. Phys. Chem. Lett. 11, 8208-8215 (2020)
[ 2]  J. W. Furness, A. D. Kaplan, J. Ning, J. P. Perdew, and J. Sun.,  J. Phys. Chem. Lett. 11, 9248-9248 (2020)
Using LibXC functional ID 498 : Re-regularized SCAN correlation by Furness et al
[ 1]  J. W. Furness, A. D. Kaplan, J. Ning, J. P. Perdew, and J. Sun.,  J. Phys. Chem. Lett. 11, 8208-8215 (2020)
[ 2]  J. W. Furness, A. D. Kaplan, J. Ning, J. P. Perdew, and J. Sun.,  J. Phys. Chem. Lett. 11, 9248-9248 (2020)

================================================================================
                                       INPUT FILE
================================================================================
NAME = xtb_opt.inp
|  1> ! r2scan-3c def2/J RI DEFGRID2 scfconv7 ENGRAD tightSCF miniprint
|  2> %cpcm
|  3>     smd true
|  4>     smdsolvent "water"
|  5> end
|  6> * xyzfile 0 1 xtb_opt.xyz
|  7> 
|  8>                          ****END OF INPUT****
================================================================================

                     *******************************
                     * Energy+Gradient Calculation *
                     *******************************

---------------------------------
CARTESIAN COORDINATES (ANGSTROEM)
---------------------------------
  C      1.538156    0.694872    3.097509
  C      1.265278   -0.460523    2.170798
  O      2.196106   -0.342583    1.040873
  P      2.209578   -1.470696   -0.110102
  S      2.314284   -3.325458    0.473299
  O      3.381953   -0.906269   -1.048017
  C      4.791987   -1.276086   -0.824450
  C      5.373907   -0.596391    0.390000
  S      0.476997   -1.195902   -1.273931
  C      0.520567    0.610174   -1.651718
  S     -0.188895    1.736616   -0.387064
  P     -2.192223    1.041764   -0.337635
  S     -2.933878    0.448298   -2.036791
  O     -2.926536    2.267096    0.406794
  C     -3.278087    3.490905   -0.327831
  C     -4.109946    4.342677    0.595540
  O     -2.158089   -0.022287    0.861010
  C     -2.979870   -1.240445    0.878492
  C     -2.395923   -2.150454    1.928007
  H      2.564240    0.660211    3.474656
  H      1.374666    1.650700    2.591698
  H      0.853905    0.632892    3.949175
  H      0.244004   -0.431451    1.777961
  H      1.440439   -1.424201    2.659807
  H      4.849953   -2.366490   -0.752849
  H      5.284919   -0.952588   -1.742793
  H      5.257606    0.488997    0.326588
  H      4.911490   -0.952405    1.314621
  H      6.443152   -0.827237    0.435205
  H     -0.037682    0.724317   -2.584756
  H      1.550495    0.940912   -1.808582
  H     -2.350747    3.994465   -0.619615
  H     -3.832971    3.205412   -1.226544
  H     -5.024258    3.819998    0.888624
  H     -3.549111    4.614798    1.493470
  H     -4.390097    5.261055    0.071205
  H     -4.009137   -0.950097    1.110607
  H     -2.948396   -1.696081   -0.114935
  H     -2.403318   -1.674582    2.912709
  H     -2.999910   -3.061560    1.979988
  H     -1.369181   -2.430128    1.673158

----------------------------
CARTESIAN COORDINATES (A.U.)
----------------------------
  NO LB      ZA    FRAG     MASS         X           Y           Z
   0 C     6.0000    0    12.011    2.906693    1.313117    5.853443
   1 C     6.0000    0    12.011    2.391029   -0.870262    4.102214
   2 O     8.0000    0    15.999    4.150039   -0.647388    1.966965
   3 P    15.0000    0    30.974    4.175497   -2.779213   -0.208063
   4 S    16.0000    0    32.060    4.373363   -6.284205    0.894406
   5 O     8.0000    0    15.999    6.390965   -1.712601   -1.980465
   6 C     6.0000    0    12.011    9.055544   -2.411454   -1.557984
   7 C     6.0000    0    12.011   10.155213   -1.127016    0.736994
   8 S    16.0000    0    32.060    0.901393   -2.259927   -2.407382
   9 C     6.0000    0    12.011    0.983730    1.153061   -3.121295
  10 S    16.0000    0    32.060   -0.356961    3.281728   -0.731445
  11 P    15.0000    0    30.974   -4.142702    1.968649   -0.638037
  12 S    16.0000    0    32.060   -5.544226    0.847160   -3.848977
  13 O     8.0000    0    15.999   -5.530351    4.284191    0.768730
  14 C     6.0000    0    12.011   -6.194687    6.596854   -0.619511
  15 C     6.0000    0    12.011   -7.766673    8.206471    1.125408
  16 O     8.0000    0    15.999   -4.078198   -0.042117    1.627072
  17 C     6.0000    0    12.011   -5.631139   -2.344101    1.660109
  18 C     6.0000    0    12.011   -4.527638   -4.063768    3.643406
  19 H     1.0000    0     1.008    4.845711    1.247618    6.566148
  20 H     1.0000    0     1.008    2.597742    3.119370    4.897600
  21 H     1.0000    0     1.008    1.613647    1.195992    7.462859
  22 H     1.0000    0     1.008    0.461100   -0.815324    3.359859
  23 H     1.0000    0     1.008    2.722035   -2.691350    5.026307
  24 H     1.0000    0     1.008    9.165083   -4.472018   -1.422678
  25 H     1.0000    0     1.008    9.987050   -1.800130   -3.293401
  26 H     1.0000    0     1.008    9.935436    0.924071    0.617162
  27 H     1.0000    0     1.008    9.281371   -1.799785    2.484274
  28 H     1.0000    0     1.008   12.175792   -1.563252    0.822418
  29 H     1.0000    0     1.008   -0.071209    1.368760   -4.884482
  30 H     1.0000    0     1.008    2.930011    1.778067   -3.417724
  31 H     1.0000    0     1.008   -4.442268    7.548444   -1.170903
  32 H     1.0000    0     1.008   -7.243265    6.057351   -2.317832
  33 H     1.0000    0     1.008   -9.494473    7.218750    1.679257
  34 H     1.0000    0     1.008   -6.706847    8.720704    2.822249
  35 H     1.0000    0     1.008   -8.296081    9.941954    0.134558
  36 H     1.0000    0     1.008   -7.576171   -1.795422    2.098744
  37 H     1.0000    0     1.008   -5.571660   -3.205128   -0.217195
  38 H     1.0000    0     1.008   -4.541612   -3.164501    5.504222
  39 H     1.0000    0     1.008   -5.669008   -5.785509    3.741635
  40 H     1.0000    0     1.008   -2.587377   -4.592276    3.161810

------------------------------------------------------------------------------
                   ___                                                        
                  /   \      - P O W E R E D   B Y -                         
                 /     \                                                     
                 |  |  |   _    _      __       _____    __    __             
                 |  |  |  | |  | |    /  \     |  _  \  |  |  /  |          
                  \  \/   | |  | |   /    \    | | | |  |  | /  /          
                 / \  \   | |__| |  /  /\  \   | |_| |  |  |/  /          
                |  |  |   |  __  | /  /__\  \  |    /   |      \           
                |  |  |   | |  | | |   __   |  |    \   |  |\   \          
                \     /   | |  | | |  |  |  |  | |\  \  |  | \   \       
                 \___/    |_|  |_| |__|  |__|  |_| \__\ |__|  \__/        
                                                                              
                      - O R C A' S   B I G   F R I E N D -                    
                                      &                                       
                       - I N T E G R A L  F E E D E R -                       
                                                                              
 v1 FN, 2020, v2 2021, v3 2022-2024                                           
------------------------------------------------------------------------------


----------------------
SHARK INTEGRAL PACKAGE
----------------------

Number of atoms                             ...     41
Number of basis functions                   ...    539
Number of shells                            ...    253
Maximum angular momentum                    ...      2
Integral batch strategy                     ... SHARK/LIBINT Hybrid
RI-J (if used) integral strategy            ... SPLIT-RIJ (Revised 2003 algorithm where possible)
Printlevel                                  ...      1
Contraction scheme used                     ... SEGMENTED contraction
Prescreening option                         ... SCHWARTZ
   Thresh                                   ... 3.000e-11
   Tcut                                     ... 1.000e-12
   Tpresel                                  ... 1.000e-12 
Coulomb Range Separation                    ... NOT USED
Exchange Range Separation                   ... NOT USED
Multipole approximations                    ... NOT USED
Finite Nucleus Model                        ... NOT USED
CABS basis                                  ... NOT available
Auxiliary Coulomb fitting basis             ... AVAILABLE
   # of basis functions in Aux-J            ...   1185
   # of shells in Aux-J                     ...    407
   Maximum angular momentum in Aux-J        ...      4
Auxiliary J/K fitting basis                 ... NOT available
Auxiliary Correlation fitting basis         ... NOT available
Auxiliary 'external' fitting basis          ... NOT available

Checking pre-screening integrals            ... done (  0.0 sec) Dimension = 253
Check shell pair data                       ... done (  0.0 sec)
Shell pair information
Shell pair cut-off parameter TPreSel        ...   1.0e-12
Total number of shell pairs                 ...     32131
Shell pairs after pre-screening             ...     21523
Total number of primitive shell pairs       ...    124843
Primitive shell pairs kept                  ...     50545
          la=0 lb=0:   6120 shell pairs
          la=1 lb=0:   7824 shell pairs
          la=1 lb=1:   2557 shell pairs
          la=2 lb=0:   2849 shell pairs
          la=2 lb=1:   1819 shell pairs
          la=2 lb=2:    354 shell pairs

Calculating one electron integrals          ... done (  0.1 sec)
Calculating RI/J V-Matrix + Cholesky decomp.... done (  0.1 sec)
Calculating Nuclear repulsion               ... done (  0.0 sec) ENN=   2697.012502894013 Eh

Diagonalization of the overlap matrix:
Smallest eigenvalue                        ... 3.382e-04
Time for diagonalization                   ...    0.031 sec
Threshold for overlap eigenvalues          ... 1.000e-07
Number of eigenvalues below threshold      ... 0
Time for construction of square roots      ...    0.056 sec
Total time needed                          ...    0.096 sec

-------------------
DFT GRID GENERATION
-------------------

General Integration Accuracy     IntAcc      ... 4.388
Radial Grid Type                 RadialGrid  ... OptM3 with GC (2021)
Angular Grid (max. ang.)         AngularGrid ... 4 (Lebedev-302)
Angular grid pruning method      GridPruning ... 4 (adaptive)
Weight generation scheme         WeightScheme... mBecke (2022)
Basis function cutoff            BFCut       ... 1.0000e-11
Integration weight cutoff        WCut        ... 1.0000e-14
Partially contracted basis set               ... off
Rotationally invariant grid construction     ... off
Angular grids for H and He will be reduced by one unit
Diffuse basis detected: some atoms will have their outermost
                        angular grid increased by 1.

Total number of grid points                  ...   192914
Total number of batches                      ...     3035
Average number of points per batch           ...       63
Average number of grid points per atom       ...     4705
Initializing property integral containers    ... done (  0.0 sec)

SHARK setup successfully completed in   3.1 seconds

Maximum memory used throughout the entire STARTUP-calculation: 102.4 MB
Occupation numbers will be reassigned to an Aufbau configuration
             **** ENERGY FILE WAS UPDATED (xtb_opt.en.tmp) ****
Finished Guess after   0.6 sec
Maximum memory used throughout the entire GUESS-calculation: 55.6 MB
--------------------
CPCM SOLVATION MODEL
--------------------
CPCM parameters:
  Epsilon                                         ...      78.3550
  Refrac                                          ...       1.3328
  Rsolv                                           ...       1.3000
  Surface type                                    ... GAUSSIAN VDW
  Discretization scheme                           ... Constant charge density
    Threshold for H atoms                         ...       5.0000 (charges/Ang^2)
    Threshold for non-H atoms                     ...       5.0000 (charges/Ang^2)
  Epsilon function type                           ...         CPCM
Solvent:                                          ... WATER
SMD-CDS solvent descriptors:
  Soln                                            ...       1.3328
  Soln25                                          ...       1.3323
  Sola                                            ...       0.0000
  Solb                                            ...       0.0000
  Solg                                            ...       0.0000
  Solc                                            ...       0.0000
  Solh                                            ...       0.0000
Radii:
  Scheme                                          ... Element-dependent radii
  Radius for C  used is    3.4960 Bohr (=   1.8500 Ang.)
  Radius for O  used is    2.8724 Bohr (=   1.5200 Ang.)
  Radius for P  used is    4.0062 Bohr (=   2.1200 Ang.)
  Radius for S  used is    4.7054 Bohr (=   2.4900 Ang.)
  Radius for H  used is    2.2677 Bohr (=   1.2000 Ang.)
Calculating surface                               ...        done! (  0.0s)
Cavity surface points                             ...         3520
Cavity Volume                                     ...    2836.9097
Cavity Surface-area                               ...    1453.0111
Calculating surface distance matrix               ...        done! (  0.1s)
Performing Cholesky decomposition & store         ...        done! (  0.5s)
Overall time for CPCM initialization              ...                 0.6s

----------------------------------------D-I-I-S--------------------------------------------
Iteration    Energy (Eh)           Delta-E    RMSDP     MaxDP     DIISErr   Damp  Time(sec)
-------------------------------------------------------------------------------------------
               ***  Starting incremental Fock matrix formation  ***
                              *** Initializing SOSCF ***
---------------------------------------S-O-S-C-F--------------------------------------
Iteration    Energy (Eh)           Delta-E    RMSDP     MaxDP     MaxGrad    Time(sec)
--------------------------------------------------------------------------------------
    1    -2932.5219690551266467     0.00e+00  2.33e-06  1.98e-04  1.32e-05    13.7
               *** Restarting incremental Fock matrix formation ***
    2    -2932.5219689737859881     8.13e-08  4.16e-06  3.37e-04  5.01e-05    13.5
    3    -2932.5219681749858864     7.99e-07  3.08e-06  2.21e-04  9.98e-05     8.9
    4    -2932.5219692114560530    -1.04e-06  2.78e-07  1.01e-05  2.32e-06     8.8
                  *** Gradient check signals convergence ***

               *****************************************************
               *                     SUCCESS                       *
               *           SCF CONVERGED AFTER   4 CYCLES          *
               *****************************************************


SMD CDS free energy correction energy :                 7.29646     Kcal/mol
Total Energy after SMD CDS correction =             -2932.510341569 Eh
             **** ENERGY FILE WAS UPDATED (xtb_opt.en.tmp) ****

----------------
TOTAL SCF ENERGY
----------------

Total Energy       :      -2932.51034156857668 Eh          -79797.66323 eV

Components:
Nuclear Repulsion  :       2697.01250289401287 Eh           73389.44125 eV
Electronic Energy  :      -5629.50873839807537 Eh         -153186.72063 eV
One Electron Energy:      -9415.87931267521344 Eh         -256219.10203 eV
Two Electron Energy:       3786.37057427713762 Eh          103032.38139 eV
CPCM Dielectric    :         -0.02573370739341 Eh              -0.70025 eV
SMD CDS (Gcds)     :          0.01162764287936 Eh               0.31640 eV

Virial components:
Potential Energy   :      -5855.62903266027479 Eh         -159339.76666 eV
Kinetic Energy     :       2923.11869109169811 Eh           79542.10343 eV
Virial Ratio       :          2.00321288714875

DFT components:
N(Alpha)           :      101.000034591799 electrons
N(Beta)            :      101.000034591799 electrons
N(Total)           :      202.000069183598 electrons
E(X)               :     -233.401718704895 Eh       
E(C)               :       -7.102898025602 Eh       
E(XC)              :     -240.504616730498 Eh       

CPCM Solvation Model Properties:
Surface-charge          :         -0.04583701729161
Corrected charge        :          0.00000000000000
Outlying charge corr.   :          0.00010575899365 Eh               0.00288 eV
Free-energy (cav+disp)  :          0.01162764287936 Eh               0.31640 eV

---------------
SCF CONVERGENCE
---------------

  Last Energy change         ...    1.0365e-06  Tolerance :   1.0000e-07
  Last MAX-Density change    ...    1.0104e-05  Tolerance :   1.0000e-07
  Last RMS-Density change    ...    2.7819e-07  Tolerance :   5.0000e-09
  Last DIIS Error            ...    2.9659e-04  Tolerance :   1.0000e-07
  Last Orbital Gradient      ...    2.3195e-06  Tolerance :   1.0000e-04
  Last Orbital Rotation      ...    5.0794e-06  Tolerance :   1.0000e-04


----------------
ORBITAL ENERGIES
----------------

  NO   OCC          E(Eh)            E(eV) 
   0   2.0000     -88.584103     -2410.4960 
   1   2.0000     -88.582042     -2410.4399 
   2   2.0000     -88.533217     -2409.1113 
   3   2.0000     -88.530505     -2409.0375 
   4   2.0000     -76.921857     -2093.1502 
   5   2.0000     -76.920903     -2093.1242 
   6   2.0000     -18.995784      -516.9016 
   7   2.0000     -18.993697      -516.8448 
   8   2.0000     -18.993632      -516.8430 
   9   2.0000     -18.993010      -516.8261 
  10   2.0000     -10.110963      -275.1333 
  11   2.0000     -10.093195      -274.6498 
  12   2.0000     -10.092505      -274.6310 
  13   2.0000     -10.091825      -274.6125 
  14   2.0000     -10.089034      -274.5366 
  15   2.0000     -10.022467      -272.7252 
  16   2.0000     -10.022007      -272.7127 
  17   2.0000     -10.021884      -272.7093 
  18   2.0000     -10.021583      -272.7011 
  19   2.0000      -7.877412      -214.3553 
  20   2.0000      -7.875646      -214.3072 
  21   2.0000      -7.828483      -213.0239 
  22   2.0000      -7.825804      -212.9509 
  23   2.0000      -6.599657      -179.5858 
  24   2.0000      -6.598728      -179.5605 
  25   2.0000      -5.824704      -158.4983 
  26   2.0000      -5.822603      -158.4411 
  27   2.0000      -5.820792      -158.3918 
  28   2.0000      -5.819397      -158.3539 
  29   2.0000      -5.814803      -158.2288 
  30   2.0000      -5.812944      -158.1783 
  31   2.0000      -5.775875      -157.1695 
  32   2.0000      -5.773185      -157.0964 
  33   2.0000      -5.768843      -156.9782 
  34   2.0000      -5.768563      -156.9706 
  35   2.0000      -5.766094      -156.9034 
  36   2.0000      -5.765953      -156.8996 
  37   2.0000      -4.744901      -129.1153 
  38   2.0000      -4.744603      -129.1072 
  39   2.0000      -4.744024      -129.0915 
  40   2.0000      -4.743820      -129.0859 
  41   2.0000      -4.743740      -129.0837 
  42   2.0000      -4.742645      -129.0539 
  43   2.0000      -1.040976       -28.3264 
  44   2.0000      -1.040297       -28.3079 
  45   2.0000      -1.001758       -27.2592 
  46   2.0000      -1.000366       -27.2213 
  47   2.0000      -0.794562       -21.6211 
  48   2.0000      -0.757669       -20.6172 
  49   2.0000      -0.744194       -20.2506 
  50   2.0000      -0.724845       -19.7240 
  51   2.0000      -0.724439       -19.7130 
  52   2.0000      -0.711806       -19.3692 
  53   2.0000      -0.694758       -18.9053 
  54   2.0000      -0.676256       -18.4019 
  55   2.0000      -0.623236       -16.9591 
  56   2.0000      -0.615484       -16.7482 
  57   2.0000      -0.595423       -16.2023 
  58   2.0000      -0.587286       -15.9809 
  59   2.0000      -0.586171       -15.9505 
  60   2.0000      -0.532966       -14.5027 
  61   2.0000      -0.523030       -14.2324 
  62   2.0000      -0.492969       -13.4144 
  63   2.0000      -0.488839       -13.3020 
  64   2.0000      -0.473177       -12.8758 
  65   2.0000      -0.453941       -12.3524 
  66   2.0000      -0.448355       -12.2004 
  67   2.0000      -0.443690       -12.0734 
  68   2.0000      -0.439364       -11.9557 
  69   2.0000      -0.431663       -11.7462 
  70   2.0000      -0.420081       -11.4310 
  71   2.0000      -0.413486       -11.2515 
  72   2.0000      -0.407979       -11.1017 
  73   2.0000      -0.393024       -10.6947 
  74   2.0000      -0.388959       -10.5841 
  75   2.0000      -0.383903       -10.4465 
  76   2.0000      -0.379718       -10.3327 
  77   2.0000      -0.363827        -9.9002 
  78   2.0000      -0.358029        -9.7425 
  79   2.0000      -0.357182        -9.7194 
  80   2.0000      -0.353890        -9.6298 
  81   2.0000      -0.351227        -9.5574 
  82   2.0000      -0.347845        -9.4653 
  83   2.0000      -0.342404        -9.3173 
  84   2.0000      -0.340756        -9.2724 
  85   2.0000      -0.329253        -8.9594 
  86   2.0000      -0.325268        -8.8510 
  87   2.0000      -0.319326        -8.6893 
  88   2.0000      -0.313654        -8.5350 
  89   2.0000      -0.308033        -8.3820 
  90   2.0000      -0.302729        -8.2377 
  91   2.0000      -0.291793        -7.9401 
  92   2.0000      -0.284133        -7.7317 
  93   2.0000      -0.279484        -7.6051 
  94   2.0000      -0.273342        -7.4380 
  95   2.0000      -0.253960        -6.9106 
  96   2.0000      -0.244156        -6.6438 
  97   2.0000      -0.235356        -6.4044 
  98   2.0000      -0.232037        -6.3140 
  99   2.0000      -0.227097        -6.1796 
 100   2.0000      -0.224919        -6.1204 
 101   0.0000      -0.049625        -1.3504 
 102   0.0000      -0.024047        -0.6544 
 103   0.0000      -0.018529        -0.5042 
 104   0.0000      -0.002719        -0.0740 
 105   0.0000       0.000973         0.0265 
 106   0.0000       0.011858         0.3227 
 107   0.0000       0.025639         0.6977 
 108   0.0000       0.028009         0.7622 
 109   0.0000       0.047086         1.2813 
 110   0.0000       0.057077         1.5531 
 111   0.0000       0.075253         2.0477 
*Only the first 10 virtual orbitals were printed.
Total SCF time: 0 days 0 hours 0 min 46 sec 
Finished LeanSCF after  46.7 sec

Maximum memory used throughout the entire LEANSCF-calculation: 141.8 MB


-------------------------------------------------------------------------------
                          DFT DISPERSION CORRECTION                            
                                                                               
                                DFTD4 V3.4.0                                   
-------------------------------------------------------------------------------
-------------------------   ----------------
Dispersion correction           -0.020482544
-------------------------   ----------------

------------------   -----------------
gCP correction             0.044767417
------------------   -----------------

-------------------------   --------------------
FINAL SINGLE POINT ENERGY     -2932.486056696318
-------------------------   --------------------

------------------------------------------------------------------------------
                         ORCA SCF GRADIENT CALCULATION
------------------------------------------------------------------------------

Nuc. rep. gradient        (SHARK) ... done (  0.0 sec)
HCore & Overlap gradient  (SHARK) ... done (  2.0 sec)
Split-RIJ-J gradient      (SHARK) ... done (  9.3 sec)
XC gradient                       ... done ( 22.2 sec)
CPCM gradient                     ... done (  8.0 sec)
SMD gradient                      ... done (  0.0 sec)
Dispersion correction             ... done (  0.0 sec)

-------------------
DISPERSION GRADIENT
-------------------

   1   C   :    0.000044415    0.000081354    0.000190768
   2   C   :    0.000056631    0.000000521    0.000174820
   3   O   :    0.000060491    0.000005609    0.000083296
   4   P   :    0.000165125   -0.000198560   -0.000073274
   5   S   :    0.000066080   -0.000325014    0.000010138
   6   O   :    0.000096614   -0.000025782   -0.000075903
   7   C   :    0.000129781   -0.000018601   -0.000040848
   8   C   :    0.000152785    0.000024493    0.000007487
   9   S   :    0.000062156   -0.000128887   -0.000276653
  10   C   :    0.000037486    0.000068288   -0.000159933
  11   S   :    0.000047124    0.000264955   -0.000137876
  12   P   :   -0.000193283    0.000090509   -0.000116551
  13   S   :   -0.000184953   -0.000027400   -0.000238759
  14   O   :   -0.000068667    0.000089771    0.000018828
  15   C   :   -0.000055563    0.000104856   -0.000008818
  16   C   :   -0.000066481    0.000103624    0.000038467
  17   O   :   -0.000133086   -0.000034829    0.000055784
  18   C   :   -0.000144823   -0.000092493    0.000048842
  19   C   :   -0.000121435   -0.000127596    0.000110430
  20   H   :    0.000002542    0.000028974    0.000059709
  21   H   :    0.000026787    0.000041648    0.000071367
  22   H   :    0.000017090    0.000021729    0.000062840
  23   H   :    0.000029253    0.000009730    0.000073431
  24   H   :    0.000025903   -0.000013049    0.000073651
  25   H   :    0.000041842   -0.000015684   -0.000015497
  26   H   :    0.000048846    0.000006797   -0.000028051
  27   H   :    0.000067901    0.000023989   -0.000001711
  28   H   :    0.000072385    0.000004747    0.000008399
  29   H   :    0.000047252    0.000008933    0.000004926
  30   H   :    0.000010195    0.000016246   -0.000062257
  31   H   :    0.000016986    0.000038765   -0.000056255
  32   H   :   -0.000013564    0.000056281    0.000003436
  33   H   :   -0.000033267    0.000035247   -0.000010004
  34   H   :   -0.000029710    0.000033166    0.000017417
  35   H   :   -0.000021026    0.000037856    0.000020487
  36   H   :   -0.000016082    0.000029761    0.000006266
  37   H   :   -0.000041598   -0.000034766    0.000030373
  38   H   :   -0.000059877   -0.000043737    0.000006948
  39   H   :   -0.000045563   -0.000037988    0.000046675
  40   H   :   -0.000028044   -0.000035617    0.000025372
  41   H   :   -0.000068648   -0.000067843    0.000052233

Difference to translation invariance:
           :    0.0000000000    0.0000000000    0.0000000000

Difference to rotation invariance:
           :   -0.0000000000   -0.0000000000    0.0000000000

Norm of the Dispersion gradient    ...    0.0009698805
RMS gradient                       ...    0.0000874512
MAX gradient                       ...    0.0003250144
gCP correction                   ... done

------------------
CARTESIAN GRADIENT
------------------

   1   C   :   -0.000018347   -0.000073449    0.000025001
   2   C   :    0.000155906    0.000054833   -0.000134038
   3   O   :   -0.000142221   -0.000118191   -0.000066310
   4   P   :    0.000318972    0.000181813   -0.000072621
   5   S   :    0.000115882    0.000045955    0.000003503
   6   O   :    0.000077645   -0.000111260    0.000198012
   7   C   :   -0.000290931   -0.000029967   -0.000048633
   8   C   :    0.000212120    0.000064227    0.000134687
   9   S   :   -0.000386368    0.000305912    0.000156907
  10   C   :    0.000511787    0.000209073   -0.000083470
  11   S   :    0.000000280   -0.000663057    0.000107622
  12   P   :    0.000125910    0.000285916   -0.000417644
  13   S   :   -0.000159446   -0.000089506    0.000272509
  14   O   :   -0.000160264    0.000224116   -0.000109134
  15   C   :    0.000112704   -0.000469606    0.000117137
  16   C   :   -0.000212719    0.000338585    0.000254345
  17   O   :   -0.000174468    0.000129975    0.000012393
  18   C   :    0.000169036    0.000095884   -0.000128984
  19   C   :   -0.000032967   -0.000151063    0.000077713
  20   H   :   -0.000010992   -0.000014766   -0.000025989
  21   H   :    0.000030712    0.000011138   -0.000050370
  22   H   :    0.000028422    0.000005712   -0.000052613
  23   H   :    0.000025225    0.000000518   -0.000030354
  24   H   :    0.000018246   -0.000034323   -0.000043258
  25   H   :    0.000012420    0.000013498    0.000035283
  26   H   :    0.000046155   -0.000060229    0.000076105
  27   H   :    0.000068920   -0.000171817   -0.000000957
  28   H   :   -0.000022062    0.000080565   -0.000193780
  29   H   :   -0.000164992   -0.000012092    0.000111000
  30   H   :   -0.000132301   -0.000069419    0.000061333
  31   H   :   -0.000096018    0.000008467   -0.000080574
  32   H   :   -0.000058034    0.000021496    0.000082972
  33   H   :    0.000084870    0.000062273    0.000013521
  34   H   :    0.000259171    0.000079174   -0.000090596
  35   H   :   -0.000226905   -0.000051635   -0.000184533
  36   H   :   -0.000027417   -0.000122620    0.000082967
  37   H   :   -0.000052143   -0.000020104    0.000031622
  38   H   :   -0.000032902   -0.000003480    0.000007073
  39   H   :   -0.000031290   -0.000024088   -0.000037357
  40   H   :    0.000070843   -0.000001748    0.000002348
  41   H   :   -0.000012437    0.000073292   -0.000012834

Difference to translation invariance:
           :    0.0000000001    0.0000000000    0.0000000000

Difference to rotation invariance:
           :    0.0006929090    0.0001775663   -0.0006122643

Norm of the Cartesian gradient     ...    0.0017265460
RMS gradient                       ...    0.0001556774
MAX gradient                       ...    0.0006630571

-------
TIMINGS
-------

Total SCF gradient time     ....       47.516 sec

Densities                   ....       0.007 sec  (  0.0%)
One electron gradient       ....       1.984 sec  (  4.2%)
RI-J Coulomb gradient       ....       9.331 sec  ( 19.6%)
XC gradient                 ....      22.190 sec  ( 46.7%)
CPCM gradient               ....       8.015 sec  ( 16.9%)
   A-Matrix (El+Nuc)        ....       0.274 sec  (  0.6%)
   Potential                ....       7.741 sec  ( 16.3%)
SMD gradient                ....       0.014 sec  (  0.0%)

Maximum memory used throughout the entire SCFGRAD-calculation: 85.2 MB

------------------------------------------------------------------------------
                              ORCA PROPERTY CALCULATIONS
------------------------------------------------------------------------------

GBWName                                 ... xtb_opt.gbw
Number of atoms                         ...     41
Number of basis functions               ...    539
Max core memory                         ...   1024 MB

Electric properties:
Dipole moment                           ... YES
Quadrupole moment                       ...  NO
Static polarizability (Dipole/Dipole)   ...  NO
Static polarizability (Dipole/Quad.)    ...  NO
Static polarizability (Quad./Quad.)     ...  NO
Static polarizability (Velocity)        ...  NO

Atomic electric properties:
Dipole moment                           ...  NO
Quadrupole moment                       ...  NO
Static polarizability                   ...  NO

Choice of electric origin               ... Center of mass
Position of electric origin             ...     0.041289    -0.107855    -0.019558

General magnetic properties:
Magnetizability                         ...  NO

EPR properties:
g-Tensor (aka g-matrix)                 ...  NO
Zero-Field splitting spin-orbit         ...  NO
Zero-field splitting spin-spin          ...  NO
Hyperfine couplings                     ...  NO (   0 nuclei)
Quadrupole couplings                    ...  NO (   0 nuclei)
Contact density                         ...  NO (   0 nuclei)

NMR properties:
Chemical shifts                         ...  NO (   0 nuclei)
Spin-rotation constants                 ...  NO (   0 nuclei)
Spin-spin couplings                     ...  NO (   0 nuclei,    0 pairs)

Choice of magnetic origin               ... GIAO
Position of magnetic origin             ...     0.000000     0.000000     0.000000

Properties with geometric perturbations:
SCF Hessian                             ...  NO
IR spectrum                             ...  NO
VCD spectrum                            ...  NO
X-ray spectroscopy properties:
SCF XES/XAS/RIXS spectra                ...  NO


-------------
DIPOLE MOMENT
-------------

Method             : SCF
Type of density    : Electron Density
Multiplicity       :   1
Irrep              :   0
Energy             : -2932.5103415685766777 Eh
Relativity type    : 
Basis              : AO
                                X                 Y                 Z
Electronic contribution:     -1.045310704      -8.205910910     -16.495014341
Nuclear contribution   :      1.335772810      10.194899017      17.414938580
                        -----------------------------------------
Total Dipole Moment    :      0.290462107       1.988988106       0.919924240
                        -----------------------------------------
Magnitude (a.u.)       :      2.210588729
Magnitude (Debye)      :      5.618870011



--------------------
Rotational spectrum 
--------------------
 
Rotational constants in cm-1:             0.012760             0.004341             0.004205 
Rotational constants in MHz :           382.535433           130.139545           126.062012 

Dipole components along the rotational axes: 
x,y,z [a.u.] :    -0.657681     1.720459    -1.222366 
x,y,z [Debye]:    -1.671693     4.373060    -3.107007 

 

Dipole moment calculation done in   0.0 sec 

Maximum memory used throughout the entire PROP-calculation: 51.9 MB

--------------------------------
SUGGESTED CITATIONS FOR THIS RUN
--------------------------------

Below you find a list of papers that are relevant to this ORCA run
We neither can nor want to force you to cite these papers, but we appreciate if you do
You receive ORCA, which is the product of decades of hard work by many enthusiastic individuals, for free
The only thing we kindly ask in return is that you cite our papers,
We deeply appreciate it, if you show your appreciation for ORCA by not just citing the generic ORCA reference.

Please note that relegating all ORCA citations to the supporting information does *not* help us.
SI sections are not indexed - citations you put there will not count into any citation statistics
But we need these citations in order to attract the funding resources that allow us to do what we are doing

Therefore, if you are a happy ORCA user, please consider citing a few of the papers listed below in the main body of your paper

In addition to the list printed below, the program has created the file xtb_opt.bibtex that contains the list in bibtex format
You can import this file easily into all common literature databanks and citation aid programs


List of essential papers. We consider these as the minimum necessary citations

  1. Neese,F.
     Software update: the ORCA program system, version 5.0
     WIRES Comput. Molec. Sci., 2022 12(1)e1606
     doi.org/10.1002/wcms.1606
  2. Grimme,S.; Hansen,A.; Ehlert,S.; Mewes,J.
     r2SCAN-3c: A 'Swiss army knife' composite electronic-structure method
     J. Chem. Phys., 2021 154 064103
     doi.org/10.1063/5.0040021

List of papers to cite with high priority. The work reported in these papers was absolutely
necessary for this run to complete.
Our perspective: the developers of density functionals and basis sets usually get cited in chemistry papers
Good! But without the algorithms to do something with them, the functionals or basis sets would not do anything.
Hence, in our opinion, the algorithm design and method developments papers are equally worthy of getting cited

  1. Neese,F.
     An improvement of the resolution of the identity approximation for the formation of the Coulomb matrix
     J. Comp. Chem., 2003 24(14)1740-1747
     doi.org/10.1002/jcc.10318
  2. Garcia-Rates,M.; Neese,F.
     Effect of the Solute Cavity on the Solvation Energy and its Derivatives within the Framework of the Gaussian Charge Scheme
     J. Comput. Chem., 2020 41 922-939
     doi.org/10.1002/jcc.26139
  3. Neese,F.
     The SHARK Integral Generation and Digestion System
     J. Comp. Chem., 2022  1-16
     doi.org/10.1002/jcc.26942
  4. Lehtola,S.; Steigemann,C.; Oliveira,M.; Marques,M.
     Recent developments in Libxc - A comprehensive library of functionals for density functional theory
     Software X, 2018 7 
     doi.org/10.1016/j.softx.2017.11.002
  5. Caldeweyher,E.; Bannwarth,C.; Grimme,S.
     Extension of the D3 dispersion coefficient model
     J. Chem. Phys., 2017 147 034112-XXXX
     doi.org/10.1063/1.4993215
  6. Caldeweyher,E.; Ehlert,S.; Hansen,A.; Neugebauer,H.; Spicher,S.; Bannwarth,C.; Grimme,S.
     A generally applicable atomic-charge dependent London dispersion correction
     J. Chem. Phys., 2019 150 154122-XXXX
     doi.org/10.1063/1.5090222
  7. Caldeweyher,E.; Mewes,J.; Ehlert,S.; Grimme,S.
     Extension and evaluation of the D4 London-dispersion model for periodic systems
     Phys. Chem. Chem. Phys., 2020 22(16)8499-8512
     doi.org/10.1039/D0CP00502A

List of suggested additional citations. These are papers that are important in the 'surrounding' of 
of this run, or papers that preceded the highly important papers. If you like your results we are grateful for a citation.

  1. Neese,F.
     The ORCA program system
     WIRES Comput. Molec. Sci., 2012 2(1)73-78
     doi.org/10.1002/wcms.81
  2. Neese,F.
     Software update: the ORCA program system, version 4.0
     WIRES Comput. Molec. Sci., 2018 8(1)1-6
     doi.org/10.1002/wcms.1327
  3. Neese,F.; Wennmohs,F.; Becker,U.; Riplinger,C.
     The ORCA quantum chemistry program package
     J. Chem. Phys., 2020 152 Art. No. L224108
     doi.org/10.1063/5.0004608

List of optional additional citations

  1. Neese,F.
     Approximate second-order SCF convergence for spin unrestricted wavefunctions
     Chem. Phys. Lett., 2000 325(1-3)93-98
     doi.org/10.1016/s0009-2614(00)00662-x

Timings for individual modules:

Sum of individual times          ...       98.348 sec (=   1.639 min)
Startup calculation              ...        3.170 sec (=   0.053 min)   3.2 %
SCF iterations                   ...       47.342 sec (=   0.789 min)  48.1 %
Property calculations            ...        0.151 sec (=   0.003 min)   0.2 %
SCF Gradient evaluation          ...       47.685 sec (=   0.795 min)  48.5 %
                             ****ORCA TERMINATED NORMALLY****
TOTAL RUN TIME: 0 days 0 hours 1 minutes 39 seconds 245 msec
  ------------------------------------------------------------------------
          * successful ORCA run, taking over control again...

         :::::::::::::::::::::::::::::::::::::::::::::::::::::
         ::                  ORCA SUMMARY                   ::
         :::::::::::::::::::::::::::::::::::::::::::::::::::::
         :: total energy           -2932.486056696318 Eh    ::
         :: gradient norm              0.001726546003 Eh/a0 ::
         :: HOMO-LUMO gap              0.000000000000 eV    ::
         :::::::::::::::::::::::::::::::::::::::::::::::::::::

      ----------------------------------------------------------- 
     |                       L-ANC optimizer                     |
      ----------------------------------------------------------- 
          low memory version by Sebastian Ehlert

          ...................................................
          :                      SETUP                      :
          :.................................................:
          :   energy convergence        0.5000000E-05 Eh    :
          :   grad. convergence         0.1000000E-02 Eh/a0 :
          :   optimization log               true           :
          :   writing optlog all                1     steps :
          :   Hessian reset                     8     steps :
          :   maximium step len.        1.0000000     a0    :
          :   LBFGS images                      8           :
          ...................................................
 * calculating model hessian...
Using Lindh-Hessian (1995)
 Shifting diagonal of input Hessian by   1.001214483836520E-002
 Lowest  eigenvalues of input Hessian
    0.010000    0.000000    0.000000    0.000000    0.000000    0.000000
    0.000000    0.010064    0.010332    0.010751    0.010896    0.011245
    0.011428    0.011920    0.012116    0.012357    0.012440    0.013013
 Highest eigenvalues
    1.291389    1.296448    1.731407    1.745516    1.865154    1.874353
 

........................................................................
.............................. CYCLE    1 ..............................
........................................................................
                         * ORCA takes the control...
  ------------------------------------------------------------------------

                                 *****************
                                 * O   R   C   A *
                                 *****************

                                            #,                                       
                                            ###                                      
                                            ####                                     
                                            #####                                    
                                            ######                                   
                                           ########,                                 
                                     ,,################,,,,,                         
                               ,,#################################,,                 
                          ,,##########################################,,             
                       ,#########################################, ''#####,          
                    ,#############################################,,   '####,        
                  ,##################################################,,,,####,       
                ,###########''''           ''''###############################       
              ,#####''   ,,,,##########,,,,          '''####'''          '####       
            ,##' ,,,,###########################,,,                        '##       
           ' ,,###''''                  '''############,,,                           
         ,,##''                                '''############,,,,        ,,,,,,###''
      ,#''                                            '''#######################'''  
     '                                                          ''''####''''         
             ,#######,   #######,   ,#######,      ##                                
            ,#'     '#,  ##    ##  ,#'     '#,    #''#        ,####,   ,####,        
            ##       ##  ##   ,#'  ##            #'  '#       #'       #'  '#        
            ##       ##  #######   ##           ,######,      #####,   #    #        
            '#,     ,#'  ##    ##  '#,     ,#' ,#      #,     #,   #   #,  ,#        
             '#######'   ##     ##  '#######'  #'      '#     '####' # '####'        



                #########################################################
                #                        -***-                          #
                #          Department of theory and spectroscopy        #
                #                                                       #
                #                      Frank Neese                      #
                #                                                       #
                #     Directorship, Architecture, Infrastructure        #
                #                    SHARK, DRIVERS                     #
                #        Core code/Algorithms in most modules           #
                #                                                       #
                #        Max Planck Institute fuer Kohlenforschung      #
                #                Kaiser Wilhelm Platz 1                 #
                #                 D-45470 Muelheim/Ruhr                 #
                #                      Germany                          #
                #                                                       #
                #                  All rights reserved                  #
                #                        -***-                          #
                #########################################################


                         Program Version 6.0.0  -   RELEASE  -


 With contributions from (in alphabetic order):
   Daniel Aravena         : Magnetic Suceptibility
   Michael Atanasov       : Ab Initio Ligand Field Theory (pilot matlab implementation)
   Alexander A. Auer      : GIAO ZORA, VPT2 properties, NMR spectrum
   Ute Becker             : All parallelization in ORCA, NUMFREQ, NUMCALC
   Giovanni Bistoni       : ED, misc. LED, open-shell LED, HFLD
   Martin Brehm           : Molecular dynamics
   Dmytro Bykov           : pre 5.0 version of the SCF Hessian
   Marcos Casanova-Páez   : Triplet and SCS-CIS(D). UHF-(DLPNO)-IP/EA/STEOM-CCSD. UHF-CVS-IP/STEOM-CCSD
   Vijay G. Chilkuri      : MRCI spin determinant printing, contributions to CSF-ICE
   Pauline Colinet        : FMM embedding
   Dipayan Datta          : RHF DLPNO-CCSD density
   Achintya Kumar Dutta   : EOM-CC, STEOM-CC
   Nicolas Foglia         : Exact transition moments, OPA infrastructure, MCD improvements
   Dmitry Ganyushin       : Spin-Orbit,Spin-Spin,Magnetic field MRCI
   Miquel Garcia          : C-PCM and meta-GGA Hessian, CCSD/C-PCM, Gaussian charge scheme
   Tiago L. C. Gouveia    : GS-ROHF, GS-ROCIS
   Yang Guo               : DLPNO-NEVPT2, F12-NEVPT2, CIM, IAO-localization
   Andreas Hansen         : Spin unrestricted coupled pair/coupled cluster methods
   Ingolf Harden          : AUTO-CI MPn and infrastructure 
   Benjamin Helmich-Paris : MC-RPA, TRAH-(SCF,CASSCF), AVAS, COSX integrals, SCF dyn. polar.
   Lee Huntington         : MR-EOM, pCC
   Robert Izsak           : Overlap fitted RIJCOSX, COSX-SCS-MP3, EOM
   Riya Kayal             : Wick's Theorem for AUTO-CI, AUTO-CI UHF-CCSDT
   Emily Kempfer          : AUTO-CI, RHF CISDT and CCSDT
   Christian Kollmar      : KDIIS, OOCD, Brueckner-CCSD(T), CCSD density, CASPT2, CASPT2-K, improved NEVPT2
   Axel Koslowski         : Symmetry handling
   Simone Kossmann        : Meta GGA functionals, TD-DFT gradient, OOMP2, (MP2 Hessian; deprecated post 5.0)
   Lucas Lang             : DCDCAS
   Marvin Lechner         : AUTO-CI (C++ implementation), FIC-MRCC
   Spencer Leger          : CASSCF response
   Dagmar Lenk            : GEPOL surface, SMD, ORCA-2-JSON
   Dimitrios Liakos       : Extrapolation schemes; Compound Job, initial MDCI parallelization
   Dimitrios Manganas     : Further ROCIS development; embedding schemes. LFT, Crystal Embedding
   Dimitrios Pantazis     : SARC Basis sets
   Anastasios Papadopoulos: AUTO-CI, single reference methods and gradients
   Taras Petrenko         : pre 6.0 DFT Hessian and TD-DFT gradient, (ASA, deprecated), ECA, 1-Electron XAS/XES, NRVS
   Peter Pinski           : DLPNO-MP2, DLPNO-MP2 Gradient
   Christoph Reimann      : Effective Core Potentials
   Marius Retegan         : Local ZFS, SOC
   Christoph Riplinger    : Optimizer, TS searches, QM/MM, DLPNO-CCSD(T), (RO)-DLPNO pert. Triples
   Michael Roemelt        : Original ROCIS implementation
   Masaaki Saitow         : Open-shell DLPNO-CCSD energy and density
   Barbara Sandhoefer     : DKH picture change effects
   Kantharuban Sivalingam : CASSCF convergence/infrastructure, NEVPT2 and variants, FIC-MRCI
   Bernardo de Souza      : ESD, SOC TD-DFT
   Georgi Stoychev        : AutoAux, RI-MP2 NMR, DLPNO-MP2 response, X2C
   Van Anh Tran           : RI-MP2 g-tensors
   Willem Van den Heuvel  : Paramagnetic NMR
   Zikuan Wang            : NOTCH, Electric field optimization 
   Frank Wennmohs         : Technical directorship and infrastructure
   Hang Xu                : AUTO-CI-Response properties 


 We gratefully acknowledge several colleagues who have allowed us to
 interface, adapt or use parts of their codes:
   Stefan Grimme, W. Hujo, H. Kruse, P. Pracht,  : VdW corrections, initial TS optimization,
                  C. Bannwarth, S. Ehlert,         DFT functionals, gCP, sTDA/sTD-DF
                  L. Wittmann, M. Mueller
   Ed Valeev, F. Pavosevic, A. Kumar             : LibInt (2-el integral package), F12 methods
   Garnet Chan, S. Sharma, J. Yang, R. Olivares  : DMRG
   Ulf Ekstrom                                   : XCFun DFT Library
   Mihaly Kallay                                 : mrcc  (arbitrary order and MRCC methods)
   Frank Weinhold                                : gennbo (NPA and NBO analysis)
   Simon Mueller                                 : openCOSMO-RS
   Christopher J. Cramer and Donald G. Truhlar   : smd solvation model
   Lars Goerigk                                  : TD-DFT with DH, B97 family of functionals
   V. Asgeirsson, H. Jonsson                     : NEB implementation
   FAccTs GmbH                                   : IRC, NEB, NEB-TS, DLPNO-Multilevel, CI-OPT
                                                   MM, QMMM, 2- and 3-layer-ONIOM, Crystal-QMMM,
                                                   LR-CPCM, SF, NACMEs, symmetry and pop. for TD-DFT,
                                                   nearIR, NL-DFT gradient (VV10), updates on ESD,
                                                   ML-optimized integration grids, MBIS, APM,
                                                   GOAT, DOCKER, SOLVATOR, interface openCOSMO-RS
   S Lehtola, MJT Oliveira, MAL Marques          : LibXC Library
   Liviu Ungur et al                             : ANISO software


 Your calculation uses the libint2 library for the computation of 2-el integrals
 For citations please refer to: http://libint.valeyev.net

 Your ORCA version has been built with support for libXC version: 6.2.2
 For citations please refer to: https://libxc.gitlab.io

 This ORCA versions uses:
   CBLAS   interface :  Fast vector & matrix operations
   LAPACKE interface :  Fast linear algebra routines
   SCALAPACK package :  Parallel linear algebra routines
   Shared memory     :  Shared parallel matrices
   BLAS/LAPACK       :  OpenBLAS 0.3.27  USE64BITINT DYNAMIC_ARCH NO_AFFINITY SapphireRapids SINGLE_THREADED
        Core in use  :  SapphireRapids
   Copyright (c) 2011-2014, The OpenBLAS Project




***************************************
The coordinates will be read from file: xtb_opt.xyz
***************************************


Your calculation utilizes the geometrical counterpoise correction gCP
Please cite in your paper:
H.Kruse, S. Grimme J.Chem.Phys., 136, (2012), 154101 
   

Your calculation utilizes the atom-pairwise dispersion correction
based on EEQ partial charges (D4)


Your calculation utilizes the SMD solvation module
Please cite in your paper:
A.V. Marenich, C.J. Cramer, D.G. Truhlar J. Phys. Chem. B, 113, (2009), 6378 

================================================================================

----- Orbital basis set information -----
Your calculation utilizes the basis: def2-mTZVPP
   Stefan Grimme, Andreas Hansen, Sebastian Ehlert, and Jan-Michael Mewes 
   J. Chem. Phys. 154, 064103 (2021). DOI: 10.1063/5.0040021

----- AuxJ basis set information -----
Your calculation utilizes the auxiliary basis: def2/J
   F. Weigend, Phys. Chem. Chem. Phys. 8, 1057 (2006).

================================================================================
                                        WARNINGS
                       Please study these warnings very carefully!
================================================================================

WARNING: Old DensityContainer found on disk!
         Will remove this file - 
         If you want to keep old densities, please start your calculation with a different basename. 

Using LibXC functional ID 497 : Re-regularized SCAN exchange by Furness et al
[ 1]  J. W. Furness, A. D. Kaplan, J. Ning, J. P. Perdew, and J. Sun.,  J. Phys. Chem. Lett. 11, 8208-8215 (2020)
[ 2]  J. W. Furness, A. D. Kaplan, J. Ning, J. P. Perdew, and J. Sun.,  J. Phys. Chem. Lett. 11, 9248-9248 (2020)
Using LibXC functional ID 498 : Re-regularized SCAN correlation by Furness et al
[ 1]  J. W. Furness, A. D. Kaplan, J. Ning, J. P. Perdew, and J. Sun.,  J. Phys. Chem. Lett. 11, 8208-8215 (2020)
[ 2]  J. W. Furness, A. D. Kaplan, J. Ning, J. P. Perdew, and J. Sun.,  J. Phys. Chem. Lett. 11, 9248-9248 (2020)
Using LibXC functional ID 497 : Re-regularized SCAN exchange by Furness et al
[ 1]  J. W. Furness, A. D. Kaplan, J. Ning, J. P. Perdew, and J. Sun.,  J. Phys. Chem. Lett. 11, 8208-8215 (2020)
[ 2]  J. W. Furness, A. D. Kaplan, J. Ning, J. P. Perdew, and J. Sun.,  J. Phys. Chem. Lett. 11, 9248-9248 (2020)
Using LibXC functional ID 498 : Re-regularized SCAN correlation by Furness et al
[ 1]  J. W. Furness, A. D. Kaplan, J. Ning, J. P. Perdew, and J. Sun.,  J. Phys. Chem. Lett. 11, 8208-8215 (2020)
[ 2]  J. W. Furness, A. D. Kaplan, J. Ning, J. P. Perdew, and J. Sun.,  J. Phys. Chem. Lett. 11, 9248-9248 (2020)

================================================================================
                                       INPUT FILE
================================================================================
NAME = xtb_opt.inp
|  1> ! r2scan-3c def2/J RI DEFGRID2 scfconv7 ENGRAD tightSCF miniprint
|  2> %cpcm
|  3>     smd true
|  4>     smdsolvent "water"
|  5> end
|  6> * xyzfile 0 1 xtb_opt.xyz
|  7> 
|  8>                          ****END OF INPUT****
================================================================================

                     *******************************
                     * Energy+Gradient Calculation *
                     *******************************

---------------------------------
CARTESIAN COORDINATES (ANGSTROEM)
---------------------------------
  C      1.537036    0.695347    3.099260
  C      1.263759   -0.460359    2.172955
  O      2.195060   -0.343024    1.043035
  P      2.207993   -1.471193   -0.108157
  S      2.308960   -3.326856    0.473106
  O      3.379517   -0.906292   -1.047268
  C      4.790544   -1.274799   -0.825631
  C      5.372920   -0.595533    0.388767
  S      0.480164   -1.198017   -1.277660
  C      0.517321    0.610000   -1.650090
  S     -0.190727    1.747380   -0.393356
  P     -2.189916    1.039925   -0.336847
  S     -2.923635    0.451455   -2.041829
  O     -2.924537    2.265605    0.406702
  C     -3.277298    3.489251   -0.328907
  C     -4.107166    4.341088    0.595701
  O     -2.155629   -0.024631    0.861324
  C     -2.979573   -1.241287    0.879024
  C     -2.396189   -2.151141    1.928679
  H      2.563317    0.660884    3.476027
  H      1.373043    1.651080    2.593545
  H      0.853132    0.633243    3.951274
  H      0.242522   -0.431190    1.779995
  H      1.438753   -1.423784    2.662444
  H      4.849799   -2.365274   -0.755292
  H      5.281574   -0.949615   -1.744516
  H      5.253992    0.489985    0.327089
  H      4.914091   -0.954124    1.314616
  H      6.443169   -0.823960    0.430408
  H     -0.035506    0.724543   -2.586279
  H      1.548137    0.939906   -1.804176
  H     -2.350344    3.992408   -0.623014
  H     -3.834427    3.202950   -1.226105
  H     -5.022443    3.819812    0.890339
  H     -3.544081    4.613060    1.492899
  H     -4.386775    5.260058    0.071467
  H     -4.008269   -0.949095    1.110978
  H     -2.948545   -1.696947   -0.114426
  H     -2.402143   -1.674544    2.913122
  H     -3.002073   -3.061020    1.981410
  H     -1.370094   -2.433095    1.673477

----------------------------
CARTESIAN COORDINATES (A.U.)
----------------------------
  NO LB      ZA    FRAG     MASS         X           Y           Z
   0 C     6.0000    0    12.011    2.904578    1.314015    5.856752
   1 C     6.0000    0    12.011    2.388158   -0.869952    4.106290
   2 O     8.0000    0    15.999    4.148062   -0.648222    1.971051
   3 P    15.0000    0    30.974    4.172503   -2.780152   -0.204388
   4 S    16.0000    0    32.060    4.363302   -6.286847    0.894041
   5 O     8.0000    0    15.999    6.386362   -1.712643   -1.979051
   6 C     6.0000    0    12.011    9.052817   -2.409021   -1.560216
   7 C     6.0000    0    12.011   10.153347   -1.125395    0.734662
   8 S    16.0000    0    32.060    0.907378   -2.263924   -2.414427
   9 C     6.0000    0    12.011    0.977595    1.152734   -3.118218
  10 S    16.0000    0    32.060   -0.360423    3.302069   -0.743335
  11 P    15.0000    0    30.974   -4.138342    1.965173   -0.636548
  12 S    16.0000    0    32.060   -5.524869    0.853126   -3.858497
  13 O     8.0000    0    15.999   -5.526574    4.281373    0.768555
  14 C     6.0000    0    12.011   -6.193196    6.593730   -0.621545
  15 C     6.0000    0    12.011   -7.761419    8.203468    1.125713
  16 O     8.0000    0    15.999   -4.073549   -0.046546    1.627666
  17 C     6.0000    0    12.011   -5.630578   -2.345692    1.661115
  18 C     6.0000    0    12.011   -4.528142   -4.065067    3.644675
  19 H     1.0000    0     1.008    4.843967    1.248890    6.568738
  20 H     1.0000    0     1.008    2.594675    3.120089    4.901090
  21 H     1.0000    0     1.008    1.612186    1.196656    7.466827
  22 H     1.0000    0     1.008    0.458301   -0.814830    3.363704
  23 H     1.0000    0     1.008    2.718849   -2.690561    5.031290
  24 H     1.0000    0     1.008    9.164791   -4.469719   -1.427295
  25 H     1.0000    0     1.008    9.980729   -1.794512   -3.296657
  26 H     1.0000    0     1.008    9.928605    0.925937    0.618109
  27 H     1.0000    0     1.008    9.286287   -1.803033    2.484265
  28 H     1.0000    0     1.008   12.175826   -1.557058    0.813354
  29 H     1.0000    0     1.008   -0.067097    1.369188   -4.887358
  30 H     1.0000    0     1.008    2.925555    1.776166   -3.409399
  31 H     1.0000    0     1.008   -4.441507    7.544558   -1.177326
  32 H     1.0000    0     1.008   -7.246018    6.052697   -2.317003
  33 H     1.0000    0     1.008   -9.491042    7.218399    1.682498
  34 H     1.0000    0     1.008   -6.697342    8.717420    2.821170
  35 H     1.0000    0     1.008   -8.289804    9.940068    0.135053
  36 H     1.0000    0     1.008   -7.574531   -1.793530    2.099444
  37 H     1.0000    0     1.008   -5.571942   -3.206764   -0.216235
  38 H     1.0000    0     1.008   -4.539392   -3.164430    5.505003
  39 H     1.0000    0     1.008   -5.673096   -5.784490    3.744323
  40 H     1.0000    0     1.008   -2.589103   -4.597883    3.162413

------------------------------------------------------------------------------
                   ___                                                        
                  /   \      - P O W E R E D   B Y -                         
                 /     \                                                     
                 |  |  |   _    _      __       _____    __    __             
                 |  |  |  | |  | |    /  \     |  _  \  |  |  /  |          
                  \  \/   | |  | |   /    \    | | | |  |  | /  /          
                 / \  \   | |__| |  /  /\  \   | |_| |  |  |/  /          
                |  |  |   |  __  | /  /__\  \  |    /   |      \           
                |  |  |   | |  | | |   __   |  |    \   |  |\   \          
                \     /   | |  | | |  |  |  |  | |\  \  |  | \   \       
                 \___/    |_|  |_| |__|  |__|  |_| \__\ |__|  \__/        
                                                                              
                      - O R C A' S   B I G   F R I E N D -                    
                                      &                                       
                       - I N T E G R A L  F E E D E R -                       
                                                                              
 v1 FN, 2020, v2 2021, v3 2022-2024                                           
------------------------------------------------------------------------------


----------------------
SHARK INTEGRAL PACKAGE
----------------------

Number of atoms                             ...     41
Number of basis functions                   ...    539
Number of shells                            ...    253
Maximum angular momentum                    ...      2
Integral batch strategy                     ... SHARK/LIBINT Hybrid
RI-J (if used) integral strategy            ... SPLIT-RIJ (Revised 2003 algorithm where possible)
Printlevel                                  ...      1
Contraction scheme used                     ... SEGMENTED contraction
Prescreening option                         ... SCHWARTZ
   Thresh                                   ... 3.000e-11
   Tcut                                     ... 1.000e-12
   Tpresel                                  ... 1.000e-12 
Coulomb Range Separation                    ... NOT USED
Exchange Range Separation                   ... NOT USED
Multipole approximations                    ... NOT USED
Finite Nucleus Model                        ... NOT USED
CABS basis                                  ... NOT available
Auxiliary Coulomb fitting basis             ... AVAILABLE
   # of basis functions in Aux-J            ...   1185
   # of shells in Aux-J                     ...    407
   Maximum angular momentum in Aux-J        ...      4
Auxiliary J/K fitting basis                 ... NOT available
Auxiliary Correlation fitting basis         ... NOT available
Auxiliary 'external' fitting basis          ... NOT available

Checking pre-screening integrals            ... done (  0.0 sec) Dimension = 253
Check shell pair data                       ... done (  0.0 sec)
Shell pair information
Shell pair cut-off parameter TPreSel        ...   1.0e-12
Total number of shell pairs                 ...     32131
Shell pairs after pre-screening             ...     21522
Total number of primitive shell pairs       ...    124843
Primitive shell pairs kept                  ...     50541
          la=0 lb=0:   6121 shell pairs
          la=1 lb=0:   7821 shell pairs
          la=1 lb=1:   2556 shell pairs
          la=2 lb=0:   2850 shell pairs
          la=2 lb=1:   1820 shell pairs
          la=2 lb=2:    354 shell pairs

[...]
CPCM gradient                     ... done (  8.0 sec)
SMD gradient                      ... done (  0.0 sec)
Dispersion correction             ... done (  0.0 sec)

-------------------
DISPERSION GRADIENT
-------------------

   1   C   :    0.000044465    0.000081041    0.000191089
   2   C   :    0.000056837    0.000000039    0.000175443
   3   O   :    0.000060882    0.000005008    0.000084393
   4   P   :    0.000166449   -0.000199489   -0.000072290
   5   S   :    0.000066517   -0.000325888    0.000010360
   6   O   :    0.000096735   -0.000025855   -0.000075808
   7   C   :    0.000129888   -0.000018317   -0.000041036
   8   C   :    0.000152996    0.000024698    0.000007440
   9   S   :    0.000061337   -0.000128900   -0.000276205
  10   C   :    0.000037623    0.000068459   -0.000159563
  11   S   :    0.000047628    0.000265999   -0.000139057
  12   P   :   -0.000193137    0.000090743   -0.000118250
  13   S   :   -0.000184285   -0.000027072   -0.000239602
  14   O   :   -0.000069519    0.000089828    0.000018460
  15   C   :   -0.000056340    0.000104604   -0.000008936
  16   C   :   -0.000066197    0.000103909    0.000038766
  17   O   :   -0.000133362   -0.000034886    0.000055084
  18   C   :   -0.000145409   -0.000092541    0.000048940
  19   C   :   -0.000121971   -0.000127305    0.000110454
  20   H   :    0.000002571    0.000028840    0.000059634
  21   H   :    0.000026872    0.000041541    0.000071725
  22   H   :    0.000016976    0.000021667    0.000062606
  23   H   :    0.000028896    0.000009383    0.000073919
  24   H   :    0.000025996   -0.000012942    0.000073711
  25   H   :    0.000042095   -0.000015473   -0.000015651
  26   H   :    0.000049050    0.000006822   -0.000028053
  27   H   :    0.000068406    0.000024111   -0.000001652
  28   H   :    0.000072350    0.000004843    0.000008413
  29   H   :    0.000046869    0.000009167    0.000004663
  30   H   :    0.000010182    0.000016509   -0.000062256
  31   H   :    0.000016995    0.000038795   -0.000056081
  32   H   :   -0.000013928    0.000056062    0.000003082
  33   H   :   -0.000033648    0.000035046   -0.000009894
  34   H   :   -0.000029358    0.000033000    0.000017532
  35   H   :   -0.000021110    0.000038318    0.000020697
  36   H   :   -0.000015961    0.000029816    0.000006399
  37   H   :   -0.000041877   -0.000034750    0.000030534
  38   H   :   -0.000059766   -0.000043793    0.000006940
  39   H   :   -0.000046152   -0.000038079    0.000046930
  40   H   :   -0.000028022   -0.000035324    0.000025330
  41   H   :   -0.000068577   -0.000067635    0.000051794

Difference to translation invariance:
           :   -0.0000000000   -0.0000000000   -0.0000000000

Difference to rotation invariance:
           :    0.0000000000    0.0000000000   -0.0000000000

Norm of the Dispersion gradient    ...    0.0009717129
RMS gradient                       ...    0.0000876164
MAX gradient                       ...    0.0003258881
gCP correction                   ... done

------------------
CARTESIAN GRADIENT
------------------

   1   C   :    0.000006648   -0.000004653    0.000000502
   2   C   :   -0.000004387   -0.000000692    0.000030494
   3   O   :    0.000045959   -0.000012974    0.000077761
   4   P   :   -0.000022432    0.000166503   -0.000035672
   5   S   :   -0.000068095    0.000085427   -0.000034629
   6   O   :    0.000073742   -0.000030765    0.000016621
   7   C   :   -0.000002677   -0.000009827   -0.000004085
   8   C   :   -0.000026069   -0.000032208   -0.000015767
   9   S   :   -0.000166120   -0.000300339   -0.000203952
  10   C   :    0.000030798   -0.000084450    0.000280168
  11   S   :    0.000127290    0.000301763   -0.000117042
  12   P   :    0.000032624   -0.000110565    0.000010185
  13   S   :   -0.000000107    0.000057787    0.000032978
  14   O   :    0.000054439   -0.000073619    0.000025561
  15   C   :   -0.000009766    0.000053356   -0.000035223
  16   C   :   -0.000050483    0.000011318   -0.000017057
  17   O   :   -0.000042397   -0.000060558    0.000043548
  18   C   :   -0.000073702   -0.000032947   -0.000007622
  19   C   :    0.000031155    0.000038543   -0.000015238
  20   H   :    0.000005106    0.000002233   -0.000002838
  21   H   :    0.000005482    0.000007212    0.000001097
  22   H   :    0.000007654    0.000016164    0.000010121
  23   H   :    0.000002038    0.000017408    0.000003183
  24   H   :   -0.000016792    0.000005918    0.000020592
  25   H   :    0.000005102   -0.000004703   -0.000011547
  26   H   :   -0.000019044   -0.000005886   -0.000001822
  27   H   :   -0.000005145    0.000012628   -0.000005594
  28   H   :    0.000000804   -0.000023125    0.000009448
  29   H   :    0.000019121   -0.000018674   -0.000021530
  30   H   :   -0.000004255   -0.000000825   -0.000008065
  31   H   :   -0.000006231    0.000054841    0.000003952
  32   H   :    0.000059729    0.000031782    0.000033842
  33   H   :    0.000013114    0.000009123   -0.000052337
  34   H   :   -0.000055474   -0.000026917   -0.000025514
  35   H   :   -0.000009596   -0.000005810    0.000050737
  36   H   :    0.000003046    0.000003086    0.000005104
  37   H   :   -0.000002511   -0.000005819   -0.000006083
  38   H   :    0.000028060    0.000001447   -0.000013488
  39   H   :    0.000000870   -0.000005699    0.000010356
  40   H   :   -0.000001671   -0.000017095   -0.000028631
  41   H   :    0.000034173   -0.000008390   -0.000002515

Difference to translation invariance:
           :   -0.0000000000    0.0000000000    0.0000000000

Difference to rotation invariance:
           :    0.0006139882   -0.0001060705   -0.0005817472

Norm of the Cartesian gradient     ...    0.0007107049
RMS gradient                       ...    0.0000640821
MAX gradient                       ...    0.0003017633

-------
TIMINGS
-------

Total SCF gradient time     ....       48.563 sec

Densities                   ....       0.007 sec  (  0.0%)
One electron gradient       ....       2.013 sec  (  4.1%)
RI-J Coulomb gradient       ....       9.705 sec  ( 20.0%)
XC gradient                 ....      22.399 sec  ( 46.1%)
CPCM gradient               ....       8.003 sec  ( 16.5%)
   A-Matrix (El+Nuc)        ....       0.275 sec  (  0.6%)
   Potential                ....       7.728 sec  ( 15.9%)
SMD gradient                ....       0.019 sec  (  0.0%)

Maximum memory used throughout the entire SCFGRAD-calculation: 84.8 MB

------------------------------------------------------------------------------
                              ORCA PROPERTY CALCULATIONS
------------------------------------------------------------------------------

GBWName                                 ... xtb_opt.gbw
Number of atoms                         ...     41
Number of basis functions               ...    539
Max core memory                         ...   1024 MB

Electric properties:
Dipole moment                           ... YES
Quadrupole moment                       ...  NO
Static polarizability (Dipole/Dipole)   ...  NO
Static polarizability (Dipole/Quad.)    ...  NO
Static polarizability (Quad./Quad.)     ...  NO
Static polarizability (Velocity)        ...  NO

Atomic electric properties:
Dipole moment                           ...  NO
Quadrupole moment                       ...  NO
Static polarizability                   ...  NO

Choice of electric origin               ... Center of mass
Position of electric origin             ...     0.042078    -0.109364    -0.022242

General magnetic properties:
Magnetizability                         ...  NO

EPR properties:
g-Tensor (aka g-matrix)                 ...  NO
Zero-Field splitting spin-orbit         ...  NO
Zero-field splitting spin-spin          ...  NO
Hyperfine couplings                     ...  NO (   0 nuclei)
Quadrupole couplings                    ...  NO (   0 nuclei)
Contact density                         ...  NO (   0 nuclei)

NMR properties:
Chemical shifts                         ...  NO (   0 nuclei)
Spin-rotation constants                 ...  NO (   0 nuclei)
Spin-spin couplings                     ...  NO (   0 nuclei,    0 pairs)

Choice of magnetic origin               ... GIAO
Position of magnetic origin             ...     0.000000     0.000000     0.000000

Properties with geometric perturbations:
SCF Hessian                             ...  NO
IR spectrum                             ...  NO
VCD spectrum                            ...  NO
X-ray spectroscopy properties:
SCF XES/XAS/RIXS spectra                ...  NO


-------------
DIPOLE MOMENT
-------------

Method             : SCF
Type of density    : Electron Density
Multiplicity       :   1
Irrep              :   0
Energy             : -2932.5103533514338778 Eh
Relativity type    : 
Basis              : AO
                                X                 Y                 Z
Electronic contribution:     -1.041967396      -8.237255365     -16.520717262
Nuclear contribution   :      1.323665481      10.232757216      17.457293617
                        -----------------------------------------
Total Dipole Moment    :      0.281698085       1.995501851       0.936576355
                        -----------------------------------------
Magnitude (a.u.)       :      2.222286372
Magnitude (Debye)      :      5.648603055



--------------------
Rotational spectrum 
--------------------
 
Rotational constants in cm-1:             0.012721             0.004358             0.004222 
Rotational constants in MHz :           381.357740           130.651272           126.571588 

Dipole components along the rotational axes: 
x,y,z [a.u.] :    -0.668089     1.706372    -1.257183 
x,y,z [Debye]:    -1.698147     4.337253    -3.195505 

 

Dipole moment calculation done in   0.1 sec 

Maximum memory used throughout the entire PROP-calculation: 51.9 MB

--------------------------------
SUGGESTED CITATIONS FOR THIS RUN
--------------------------------

Below you find a list of papers that are relevant to this ORCA run
We neither can nor want to force you to cite these papers, but we appreciate if you do
You receive ORCA, which is the product of decades of hard work by many enthusiastic individuals, for free
The only thing we kindly ask in return is that you cite our papers,
We deeply appreciate it, if you show your appreciation for ORCA by not just citing the generic ORCA reference.

Please note that relegating all ORCA citations to the supporting information does *not* help us.
SI sections are not indexed - citations you put there will not count into any citation statistics
But we need these citations in order to attract the funding resources that allow us to do what we are doing

Therefore, if you are a happy ORCA user, please consider citing a few of the papers listed below in the main body of your paper

In addition to the list printed below, the program has created the file xtb_opt.bibtex that contains the list in bibtex format
You can import this file easily into all common literature databanks and citation aid programs


List of essential papers. We consider these as the minimum necessary citations

  1. Neese,F.
     Software update: the ORCA program system, version 5.0
     WIRES Comput. Molec. Sci., 2022 12(1)e1606
     doi.org/10.1002/wcms.1606
  2. Grimme,S.; Hansen,A.; Ehlert,S.; Mewes,J.
     r2SCAN-3c: A 'Swiss army knife' composite electronic-structure method
     J. Chem. Phys., 2021 154 064103
     doi.org/10.1063/5.0040021

List of papers to cite with high priority. The work reported in these papers was absolutely
necessary for this run to complete.
Our perspective: the developers of density functionals and basis sets usually get cited in chemistry papers
Good! But without the algorithms to do something with them, the functionals or basis sets would not do anything.
Hence, in our opinion, the algorithm design and method developments papers are equally worthy of getting cited

  1. Neese,F.
     An improvement of the resolution of the identity approximation for the formation of the Coulomb matrix
     J. Comp. Chem., 2003 24(14)1740-1747
     doi.org/10.1002/jcc.10318
  2. Garcia-Rates,M.; Neese,F.
     Effect of the Solute Cavity on the Solvation Energy and its Derivatives within the Framework of the Gaussian Charge Scheme
     J. Comput. Chem., 2020 41 922-939
     doi.org/10.1002/jcc.26139
  3. Neese,F.
     The SHARK Integral Generation and Digestion System
     J. Comp. Chem., 2022  1-16
     doi.org/10.1002/jcc.26942
  4. Lehtola,S.; Steigemann,C.; Oliveira,M.; Marques,M.
     Recent developments in Libxc - A comprehensive library of functionals for density functional theory
     Software X, 2018 7 
     doi.org/10.1016/j.softx.2017.11.002
  5. Caldeweyher,E.; Bannwarth,C.; Grimme,S.
     Extension of the D3 dispersion coefficient model
     J. Chem. Phys., 2017 147 034112-XXXX
     doi.org/10.1063/1.4993215
  6. Caldeweyher,E.; Ehlert,S.; Hansen,A.; Neugebauer,H.; Spicher,S.; Bannwarth,C.; Grimme,S.
     A generally applicable atomic-charge dependent London dispersion correction
     J. Chem. Phys., 2019 150 154122-XXXX
     doi.org/10.1063/1.5090222
  7. Caldeweyher,E.; Mewes,J.; Ehlert,S.; Grimme,S.
     Extension and evaluation of the D4 London-dispersion model for periodic systems
     Phys. Chem. Chem. Phys., 2020 22(16)8499-8512
     doi.org/10.1039/D0CP00502A

List of suggested additional citations. These are papers that are important in the 'surrounding' of 
of this run, or papers that preceded the highly important papers. If you like your results we are grateful for a citation.

  1. Neese,F.
     The ORCA program system
     WIRES Comput. Molec. Sci., 2012 2(1)73-78
     doi.org/10.1002/wcms.81
  2. Neese,F.
     Software update: the ORCA program system, version 4.0
     WIRES Comput. Molec. Sci., 2018 8(1)1-6
     doi.org/10.1002/wcms.1327
  3. Neese,F.; Wennmohs,F.; Becker,U.; Riplinger,C.
     The ORCA quantum chemistry program package
     J. Chem. Phys., 2020 152 Art. No. L224108
     doi.org/10.1063/5.0004608

List of optional additional citations

  1. Neese,F.
     Approximate second-order SCF convergence for spin unrestricted wavefunctions
     Chem. Phys. Lett., 2000 325(1-3)93-98
     doi.org/10.1016/s0009-2614(00)00662-x

Timings for individual modules:

Sum of individual times          ...       82.285 sec (=   1.371 min)
Startup calculation              ...        3.117 sec (=   0.052 min)   3.8 %
SCF iterations                   ...       30.226 sec (=   0.504 min)  36.7 %
Property calculations            ...        0.215 sec (=   0.004 min)   0.3 %
SCF Gradient evaluation          ...       48.726 sec (=   0.812 min)  59.2 %
                             ****ORCA TERMINATED NORMALLY****
TOTAL RUN TIME: 0 days 0 hours 1 minutes 23 seconds 167 msec
  ------------------------------------------------------------------------
          * successful ORCA run, taking over control again...

         :::::::::::::::::::::::::::::::::::::::::::::::::::::
         ::                  ORCA SUMMARY                   ::
         :::::::::::::::::::::::::::::::::::::::::::::::::::::
         :: total energy           -2932.486100641545 Eh    ::
         :: gradient norm              0.000710704900 Eh/a0 ::
         :: HOMO-LUMO gap              0.000000000000 eV    ::
         :::::::::::::::::::::::::::::::::::::::::::::::::::::

           -------------------------------------------------
          |                Property Printout                |
           -------------------------------------------------
           -------------------------------------------------
          |                Geometry Summary                 |
           -------------------------------------------------

      molecular mass/u    :      384.4756129
   center of mass at/Å    :        0.0222613      -0.0579019      -0.0118154
  moments of inertia/u·Å² :        0.1325248E+04   0.3868252E+04   0.3992928E+04
rotational constants/cm⁻¹ :        0.1272036E-01   0.4357946E-02   0.4221872E-02

 * 34 selected distances

     #   Z          #   Z                                           value/Å
     1   6 C        2   6 C                                       1.5062371
     3   8 O        4  15 P                                       1.6121179
     4  15 P        5  16 S                                       1.9470746
     4  15 P        6   8 O                                       1.6041632
     7   6 C        8   6 C                                       1.5082527
     4  15 P        9  16 S                                       2.1047556
    11  16 S       12  15 P                                       2.1207662 (max)
    12  15 P       13  16 S                                       1.9471113
    12  15 P       14   8 O                                       1.6106323
    15   6 C       16   6 C                                       1.5061960
    12  15 P       17   8 O                                       1.6028118
    18   6 C       19   6 C                                       1.5066167
     1   6 C       20   1 H                                       1.0937867
     1   6 C       21   1 H                                       1.0936528
     1   6 C       22   1 H                                       1.0943600
     2   6 C       23   1 H                                       1.0945474
     2   6 C       24   1 H                                       1.0947191
     7   6 C       25   1 H                                       1.0943513
     7   6 C       26   1 H                                       1.0914148 (min)
     8   6 C       27   1 H                                       1.0937534
     8   6 C       28   1 H                                       1.0936833
     8   6 C       29   1 H                                       1.0951064
    10   6 C       30   1 H                                       1.0931835
    10   6 C       31   1 H                                       1.0932089
    15   6 C       32   1 H                                       1.0950026
    15   6 C       33   1 H                                       1.0941958
    16   6 C       34   1 H                                       1.0936575
    16   6 C       35   1 H                                       1.0935964
    16   6 C       36   1 H                                       1.0942361
    18   6 C       37   1 H                                       1.0942445
    18   6 C       38   1 H                                       1.0934478
    19   6 C       39   1 H                                       1.0937622
    19   6 C       40   1 H                                       1.0944594
    19   6 C       41   1 H                                       1.0943235

 * 4 distinct bonds (by element types)

   Z      Z             #   av. dist./Å        max./Å        min./Å
   1 H    6 C          22     1.0939406     1.0951064     1.0914148
   6 C    6 C           4     1.5068256     1.5082527     1.5061960
   8 O   15 P           4     1.6074313     1.6121179     1.6028118
  15 P   16 S           4     2.0299269     2.1207662     1.9470746


optimized geometry written to: xtbopt.coord


           -------------------------------------------------
          | TOTAL ENERGY            -2932.486100641545 Eh   |
          | GRADIENT NORM               0.000710704900 Eh/α |
           -------------------------------------------------

------------------------------------------------------------------------
 * finished run on 2025/04/10 at 13:57:13.186     
------------------------------------------------------------------------
 total:
 * wall-time:     0 d,  0 h, 14 min,  4.632 sec
 *  cpu-time:     0 d,  0 h,  0 min,  5.531 sec
 * ratio c/w:     0.007 speedup
 SCF:
 * wall-time:     0 d,  0 h,  1 min, 39.332 sec
 *  cpu-time:     0 d,  0 h,  0 min,  1.513 sec
 * ratio c/w:     0.015 speedup
 ANC optimizer:
 * wall-time:     0 d,  0 h, 12 min, 25.182 sec
 *  cpu-time:     0 d,  0 h,  0 min,  3.612 sec
 * ratio c/w:     0.005 speedup

