      -----------------------------------------------------------      
     |                   =====================                   |     
     |                           x T B                           |     
     |                   =====================                   |     
     |                         S. Grimme                         |     
     |          Mulliken Center for Theoretical Chemistry        |     
     |                    University of Bonn                     |     
      -----------------------------------------------------------      

   * xtb version 6.7.1 (edcfbbe) compiled by 'albert@albert-system' on 2024-07-22

   xtb is free software: you can redistribute it and/or modify it under
   the terms of the GNU Lesser General Public License as published by
   the Free Software Foundation, either version 3 of the License, or
   (at your option) any later version.
   
   xtb is distributed in the hope that it will be useful,
   but WITHOUT ANY WARRANTY; without even the implied warranty of
   MERCHANTABILITY or FITNESS FOR A PARTICULAR PURPOSE.  See the
   GNU Lesser General Public License for more details.
   
   Cite this work as:
   * C. Bannwarth, E. Caldeweyher, S. Ehlert, A. Hansen, P. Pracht,
     J. Seibert, S. Spicher, S. Grimme, WIREs Comput. Mol. Sci., 2020, 11,
     e01493. DOI: 10.1002/wcms.1493
   
   for GFN2-xTB:
   * C. Bannwarth, S. Ehlert and S. Grimme., J. Chem. Theory Comput., 2019,
     15, 1652-1671. DOI: 10.1021/acs.jctc.8b01176
   for GFN1-xTB:
   * S. Grimme, C. Bannwarth, P. Shushkov, J. Chem. Theory Comput., 2017,
     13, 1989-2009. DOI: 10.1021/acs.jctc.7b00118
   for GFN0-xTB:
   * P. Pracht, E. Caldeweyher, S. Ehlert, S. Grimme, ChemRxiv, 2019, preprint.
     DOI: 10.26434/chemrxiv.8326202.v1
   for GFN-FF:
   * S. Spicher and S. Grimme, Angew. Chem. Int. Ed., 2020, 59, 15665-15673.
     DOI: 10.1002/anie.202004239
   
   for ALPB and GBSA implicit solvation:
   * S. Ehlert, M. Stahn, S. Spicher, S. Grimme, J. Chem. Theory Comput.,
     2021, 17, 4250-4261. DOI: 10.1021/acs.jctc.1c00471
   
   for ddCOSMO and CPCM-X implicit solvation:
   * M. Stahn, S. Ehlert, S. Grimme, J. Phys. Chem. A,
     2023, XX, XXXX-XXXX. DOI: 10.1021/acs.jpca.3c04382
   
   for DFT-D4:
   * E. Caldeweyher, C. Bannwarth and S. Grimme, J. Chem. Phys., 2017,
     147, 034112. DOI: 10.1063/1.4993215
   * E. Caldeweyher, S. Ehlert, A. Hansen, H. Neugebauer, S. Spicher,
     C. Bannwarth and S. Grimme, J. Chem. Phys., 2019, 150, 154122.
     DOI: 10.1063/1.5090222
   * E. Caldeweyher, J.-M. Mewes, S. Ehlert and S. Grimme, Phys. Chem. Chem. Phys.
     2020, 22, 8499-8512. DOI: 10.1039/D0CP00502A
   
   for sTDA-xTB:
   * S. Grimme and C. Bannwarth, J. Chem. Phys., 2016, 145, 054103.
     DOI: 10.1063/1.4959605
   
   in the mass-spec context:
   * V. Asgeirsson, C. Bauer and S. Grimme, Chem. Sci., 2017, 8, 4879.
     DOI: 10.1039/c7sc00601b
   * J. Koopman and S. Grimme, ACS Omega 2019, 4, 12, 15120-15133.
     DOI: 10.1021/acsomega.9b02011
   
   for metadynamics refer to:
   * S. Grimme, J. Chem. Theory Comput., 2019, 155, 2847-2862
     DOI: 10.1021/acs.jctc.9b00143
   
   for SPH calculations refer to:
   * S. Spicher and S. Grimme, J. Chem. Theory Comput., 2021, 17, 1701-1714
     DOI: 10.1021/acs.jctc.0c01306
   
   for ONIOM refer to:
   * C. Plett, A. Katbashev, S. Ehlert, S. Grimme, M. Bursch,
     Phys. Chem. Chem. Phys., 2023, 25, 17860-17868. DOI: 10.1039/D3CP02178E
   
   for DIPRO refer to:
   * J. Kohn, N. Gildemeister, S. Grimme, D. Fazzi, A. Hansen,
     J. Chem. Phys., 2023, just accepted.
   
   for PTB refer to:
   * S. Grimme, M. Mueller, A. Hansen, J. Chem. Phys., 2023, 158, 124111.
     DOI: 10.1063/5.0137838
   
   with help from (in alphabetical order)
   P. Atkinson, C. Bannwarth, F. Bohle, G. Brandenburg, E. Caldeweyher
   M. Checinski, S. Dohm, S. Ehlert, S. Ehrlich, I. Gerasimov, C. Hölzer
   A. Katbashev, J. Kohn, J. Koopman, C. Lavigne, S. Lehtola, F. März, M. Müller,
   F. Musil, H. Neugebauer, J. Pisarek, C. Plett, P. Pracht, F. Pultar,
   J. Seibert, P. Shushkov, S. Spicher, M. Stahn, M. Steiner, T. Strunk,
   J. Stückrath, T. Rose, and J. Unsleber
   
 * started run on 2025/04/09 at 05:21:27.509     
   ID    Z sym.   atoms
    1    6 C      1, 2, 7, 8, 10, 15, 16, 18, 19
    2    8 O      3, 6, 14, 17
    3   15 P      4, 12
    4   16 S      5, 9, 11, 13
    5    1 H      20-41

           -------------------------------------------------
          |                Calculation Setup                |
           -------------------------------------------------

          program call               : /srv/scratch/z5358697/.xtb/bin/xtb gas.coord --gfn2 --sp --chrg 0 --norestart --parallel 1
          hostname                   : k163
          coordinate file            : gas.coord
          omp threads                :                     1


           -------------------------------------------------
          |                 G F N 2 - x T B                 |
           -------------------------------------------------

        Reference                      10.1021/acs.jctc.8b01176
      * Hamiltonian:
        H0-scaling (s, p, d)           1.850000    2.230000    2.230000
        zeta-weighting                 0.500000
      * Dispersion:
        s8                             2.700000
        a1                             0.520000
        a2                             5.000000
        s9                             5.000000
      * Repulsion:
        kExp                           1.500000    1.000000
        rExp                           1.000000
      * Coulomb:
        alpha                          2.000000
        third order                    shell-resolved
        anisotropic                    true
        a3                             3.000000
        a5                             4.000000
        cn-shift                       1.200000
        cn-exp                         4.000000
        max-rad                        5.000000


          ...................................................
          :                      SETUP                      :
          :.................................................:
          :  # basis functions                 134          :
          :  # atomic orbitals                 128          :
          :  # shells                           66          :
          :  # electrons                       116          :
          :  max. iterations                   250          :
          :  Hamiltonian                  GFN2-xTB          :
          :  restarted?                      false          :
          :  GBSA solvation                  false          :
          :  PC potential                    false          :
          :  electronic temp.          300.0000000     K    :
          :  accuracy                    1.0000000          :
          :  -> integral cutoff          0.2500000E+02      :
          :  -> integral neglect         0.1000000E-07      :
          :  -> SCF convergence          0.1000000E-05 Eh   :
          :  -> wf. convergence          0.1000000E-03 e    :
          :  Broyden damping             0.4000000          :
          :  net charge                          0          :
          :  unpaired electrons                  0          :
          ...................................................

 iter      E             dE          RMSdq      gap      omega  full diag
   1    -65.3831958 -0.653832E+02  0.646E+00    4.33       0.0  T
   2    -65.5479289 -0.164733E+00  0.399E+00    3.28       1.0  T
   3    -65.5663917 -0.184628E-01  0.130E+00    3.07       1.0  T
   4    -65.5686807 -0.228899E-02  0.572E-01    2.87       1.0  T
   5    -65.5693229 -0.642164E-03  0.258E-01    2.97       1.0  T
   6    -65.5695058 -0.182937E-03  0.129E-01    2.94       1.0  T
   7    -65.5695745 -0.686389E-04  0.469E-02    2.96       1.0  T
   8    -65.5695819 -0.745598E-05  0.210E-02    2.96       1.0  T
   9    -65.5695831 -0.119154E-05  0.577E-03    2.96       2.7  T
  10    -65.5695832 -0.103795E-06  0.268E-03    2.96       5.8  T
  11    -65.5695832 -0.362407E-08  0.585E-04    2.96      26.7  T
  12    -65.5695832 -0.188486E-08  0.261E-04    2.96      59.8  T

   *** convergence criteria satisfied after 12 iterations ***

         #    Occupation            Energy/Eh            Energy/eV
      -------------------------------------------------------------
         1        2.0000           -0.7593022             -20.6617
       ...           ...                  ...                  ...
        52        2.0000           -0.4371410             -11.8952
        53        2.0000           -0.4109128             -11.1815
        54        2.0000           -0.4047827             -11.0147
        55        2.0000           -0.3788147             -10.3081
        56        2.0000           -0.3756429             -10.2218
        57        2.0000           -0.3733779             -10.1601
        58        2.0000           -0.3715600             -10.1107 (HOMO)
        59                         -0.2627522              -7.1499 (LUMO)
        60                         -0.2511463              -6.8340
        61                         -0.2136597              -5.8140
        62                         -0.1783194              -4.8523
        63                         -0.1631597              -4.4398
       ...                                ...                  ...
       128                          1.2897496              35.0959
      -------------------------------------------------------------
                  HL-Gap            0.1088078 Eh            2.9608 eV
             Fermi-level           -0.3171561 Eh           -8.6303 eV

 SCC (total)                   0 d,  0 h,  0 min,  0.062 sec
 SCC setup                      ...        0 min,  0.000 sec (  0.433%)
 Dispersion                     ...        0 min,  0.000 sec (  0.497%)
 classical contributions        ...        0 min,  0.000 sec (  0.097%)
 integral evaluation            ...        0 min,  0.014 sec ( 23.092%)
 iterations                     ...        0 min,  0.025 sec ( 40.453%)
 molecular gradient             ...        0 min,  0.022 sec ( 35.089%)
 printout                       ...        0 min,  0.000 sec (  0.318%)

         :::::::::::::::::::::::::::::::::::::::::::::::::::::
         ::                     SUMMARY                     ::
         :::::::::::::::::::::::::::::::::::::::::::::::::::::
         :: total energy             -65.009170071404 Eh    ::
         :: gradient norm              0.031485761448 Eh/a0 ::
         :: HOMO-LUMO gap              2.960812126676 eV    ::
         ::.................................................::
         :: SCC energy               -65.568562356286 Eh    ::
         :: -> isotropic ES            0.102442470555 Eh    ::
         :: -> anisotropic ES         -0.008106155191 Eh    ::
         :: -> anisotropic XC          0.031278572431 Eh    ::
         :: -> dispersion             -0.052297908272 Eh    ::
         :: repulsion energy           0.559392284883 Eh    ::
         :: add. restraining           0.000000000000 Eh    ::
         :: total charge              -0.000000000000 e     ::
         :::::::::::::::::::::::::::::::::::::::::::::::::::::

           -------------------------------------------------
          |                Property Printout                |
           -------------------------------------------------

    * Orbital Energies and Occupations

         #    Occupation            Energy/Eh            Energy/eV
      -------------------------------------------------------------
         1        2.0000           -0.7593022             -20.6617
       ...           ...                  ...                  ...
        46        2.0000           -0.4694064             -12.7732
        47        2.0000           -0.4664933             -12.6939
        48        2.0000           -0.4656443             -12.6708
        49        2.0000           -0.4631249             -12.6023
        50        2.0000           -0.4586500             -12.4805
        51        2.0000           -0.4428617             -12.0509
        52        2.0000           -0.4371410             -11.8952
        53        2.0000           -0.4109128             -11.1815
        54        2.0000           -0.4047827             -11.0147
        55        2.0000           -0.3788147             -10.3081
        56        2.0000           -0.3756429             -10.2218
        57        2.0000           -0.3733779             -10.1601
        58        2.0000           -0.3715600             -10.1107 (HOMO)
        59                         -0.2627522              -7.1499 (LUMO)
        60                         -0.2511463              -6.8340
        61                         -0.2136597              -5.8140
        62                         -0.1783194              -4.8523
        63                         -0.1631597              -4.4398
        64                         -0.1615564              -4.3962
        65                         -0.1588644              -4.3229
        66                         -0.1486196              -4.0441
        67                         -0.1288222              -3.5054
        68                         -0.1171298              -3.1873
        69                         -0.0462249              -1.2578
       ...                                ...                  ...
       128                          1.2897496              35.0959
      -------------------------------------------------------------
                  HL-Gap            0.1088078 Eh            2.9608 eV
             Fermi-level           -0.3171561 Eh           -8.6303 eV

     #   Z          covCN         q      C6AA      α(0)
     1   6 C        3.751    -0.114    22.746     6.801
     2   6 C        3.836     0.080    19.224     6.238
     3   8 O        1.655    -0.234    17.889     5.710
     4  15 P        3.833     0.364   145.070    21.636
     5  16 S        0.926    -0.409   157.028    21.195
     6   8 O        1.655    -0.230    17.827     5.700
     7   6 C        3.871     0.082    19.183     6.228
     8   6 C        3.751    -0.117    22.794     6.809
     9  16 S        2.005    -0.153   147.490    20.440
    10   6 C        3.805     0.042    19.873     6.346
    11  16 S        2.005    -0.176   148.504    20.510
    12  15 P        3.794     0.366   144.987    21.630
    13  16 S        0.926    -0.365   154.991    21.057
    14   8 O        1.654    -0.235    17.908     5.713
    15   6 C        3.844     0.081    19.212     6.235
    16   6 C        3.751    -0.118    22.816     6.812
    17   8 O        1.655    -0.249    18.136     5.749
    18   6 C        3.821     0.082    19.200     6.236
    19   6 C        3.751    -0.117    22.797     6.809
    20   1 H        0.925     0.069     2.100     2.266
    21   1 H        0.925     0.060     2.203     2.321
    22   1 H        0.925     0.057     2.236     2.338
    23   1 H        0.924     0.071     2.076     2.253
    24   1 H        0.924     0.058     2.220     2.330
    25   1 H        0.924     0.067     2.123     2.279
    26   1 H        0.924     0.064     2.154     2.295
    27   1 H        0.925     0.060     2.204     2.322
    28   1 H        0.925     0.057     2.231     2.336
    29   1 H        0.925     0.062     2.179     2.308
    30   1 H        0.925     0.082     1.955     2.187
    31   1 H        0.925     0.092     1.856     2.130
    32   1 H        0.924     0.067     2.124     2.279
    33   1 H        0.924     0.054     2.267     2.355
    34   1 H        0.925     0.066     2.134     2.285
    35   1 H        0.925     0.060     2.203     2.321
    36   1 H        0.925     0.063     2.165     2.301
    37   1 H        0.924     0.053     2.280     2.361
    38   1 H        0.924     0.067     2.122     2.278
    39   1 H        0.925     0.067     2.118     2.276
    40   1 H        0.925     0.055     2.260     2.351
    41   1 H        0.925     0.069     2.101     2.267

 Mol. C6AA /au·bohr⁶  :      26538.923858
 Mol. C8AA /au·bohr⁸  :     863459.056908
 Mol. α(0) /au        :        258.292092


Wiberg/Mayer (AO) data.
largest (>0.10) Wiberg bond orders for each atom

 ---------------------------------------------------------------------------
     #   Z sym  total        # sym  WBO       # sym  WBO       # sym  WBO
 ---------------------------------------------------------------------------
     1   6 C    3.990 --     2 C    1.021    20 H    0.982    21 H    0.980
                            22 H    0.975
     2   6 C    3.909 --     1 C    1.021    24 H    0.969    23 H    0.968
                             3 O    0.907
     3   8 O    2.422 --     4 P    1.319     2 C    0.907
     4  15 P    5.249 --     5 S    1.523     6 O    1.321     3 O    1.319
                             9 S    0.949
     5  16 S    1.890 --     4 P    1.523     9 S    0.154
     6   8 O    2.429 --     4 P    1.321     7 C    0.909
     7   6 C    3.908 --     8 C    1.020    25 H    0.969    26 H    0.965
                             6 O    0.909
     8   6 C    3.991 --     7 C    1.020    27 H    0.983    28 H    0.981
                            29 H    0.973
     9  16 S    2.289 --    10 C    0.991     4 P    0.949     5 S    0.154
    10   6 C    3.955 --     9 S    0.991    11 S    0.988    30 H    0.959
                            31 H    0.940
    11  16 S    2.272 --    10 C    0.988    12 P    0.934    13 S    0.147
    12  15 P    5.279 --    13 S    1.579    14 O    1.342    17 O    1.302
                            11 S    0.934
    13  16 S    1.918 --    12 P    1.579    11 S    0.147
    14   8 O    2.418 --    12 P    1.342    15 C    0.891
    15   6 C    3.914 --    16 C    1.021    32 H    0.971    33 H    0.970
                            14 O    0.891
    16   6 C    3.989 --    15 C    1.021    34 H    0.984    36 H    0.982
                            35 H    0.980
    17   8 O    2.411 --    12 P    1.302    18 C    0.906
    18   6 C    3.912 --    19 C    1.021    37 H    0.969    38 H    0.969
                            17 O    0.906
    19   6 C    3.988 --    18 C    1.021    41 H    0.982    40 H    0.981
                            39 H    0.972
    20   1 H    0.995 --     1 C    0.982
    21   1 H    0.996 --     1 C    0.980
    22   1 H    0.997 --     1 C    0.975
    23   1 H    0.995 --     2 C    0.968
    24   1 H    0.996 --     2 C    0.969
    25   1 H    0.995 --     7 C    0.969
    26   1 H    0.996 --     7 C    0.965
    27   1 H    0.996 --     8 C    0.983
    28   1 H    0.996 --     8 C    0.981
    29   1 H    0.996 --     8 C    0.973
    30   1 H    0.993 --    10 C    0.959
    31   1 H    0.991 --    10 C    0.940
    32   1 H    0.996 --    15 C    0.971
    33   1 H    0.997 --    15 C    0.970
    34   1 H    0.996 --    16 C    0.984
    35   1 H    0.995 --    16 C    0.980
    36   1 H    0.996 --    16 C    0.982
    37   1 H    0.997 --    18 C    0.969
    38   1 H    0.995 --    18 C    0.969
    39   1 H    0.995 --    19 C    0.972
    40   1 H    0.996 --    19 C    0.981
    41   1 H    0.995 --    19 C    0.982
 ---------------------------------------------------------------------------

Topologies differ in total number of bonds
Writing topology from bond orders to xtbtopo.mol

molecular dipole:
                 x           y           z       tot (Debye)
 q only:       -0.511      -0.422       1.220
   full:       -0.585      -0.607       1.288       3.911
molecular quadrupole (traceless):
                xx          xy          yy          xz          yz          zz
 q only:       -3.668      -9.148       6.362     -28.790      -8.825      -2.694
  q+dip:        4.359     -11.299       4.614     -28.631     -12.278      -8.974
   full:        4.268     -11.808       3.716     -29.277     -12.044      -7.984


           -------------------------------------------------
          | TOTAL ENERGY              -65.009170071404 Eh   |
          | GRADIENT NORM               0.031485761448 Eh/α |
          | HOMO-LUMO GAP               2.960812126676 eV   |
           -------------------------------------------------

------------------------------------------------------------------------
 * finished run on 2025/04/09 at 05:21:27.642     
------------------------------------------------------------------------
 total:
 * wall-time:     0 d,  0 h,  0 min,  0.132 sec
 *  cpu-time:     0 d,  0 h,  0 min,  0.068 sec
 * ratio c/w:     0.518 speedup
 SCF:
 * wall-time:     0 d,  0 h,  0 min,  0.062 sec
 *  cpu-time:     0 d,  0 h,  0 min,  0.055 sec
 * ratio c/w:     0.887 speedup

