 Entering Gaussian System
 *********************************************
 Gaussian 98:
 frequency output generated by the xtb code
 *********************************************
                         Standard orientation:
 --------------------------------------------------------------------
  Center     Atomic     Atomic              Coordinates (Angstroms)
  Number     Number      Type              X           Y           Z
 --------------------------------------------------------------------
    1          6             0        3.997473   -2.014838   -2.433742
    2          6             0        4.520213   -1.733080   -1.040402
    3          8             0        3.466614   -1.428379   -0.106814
    4         15             0        2.642506   -0.068070   -0.118192
    5         16             0        3.613918    1.543986   -0.638478
    6          8             0        2.124323    0.007934    1.369406
    7          6             0        1.478925   -1.109810    2.029007
    8          6             0        0.647375   -0.562978    3.170005
    9         16             0        0.919644   -0.540762   -1.293937
   10          6             0        0.289364    1.149821   -1.436851
   11         16             0       -0.447217    1.774225    0.100511
   12         15             0       -2.212668    0.608567    0.038265
   13         16             0       -3.038132    0.390620   -1.729731
   14          8             0       -2.975493    1.437858    1.153400
   15          6             0       -4.102021    0.925341    1.900755
   16          6             0       -5.411394    1.114172    1.159795
   17          8             0       -1.862358   -0.762815    0.770559
   18          6             0       -2.013776   -2.064096    0.174470
   19          6             0       -3.329968   -2.684853    0.599074
   20          1             0        4.820189   -2.348778   -3.058528
   21          1             0        3.231314   -2.784978   -2.404965
   22          1             0        3.572395   -1.110275   -2.865276
   23          1             0        5.222641   -0.894223   -1.053869
   24          1             0        5.000177   -2.612188   -0.607270
   25          1             0        0.859481   -1.633183    1.294730
   26          1             0        2.261264   -1.783496    2.383488
   27          1             0        0.162666   -1.386412    3.684576
   28          1             0        1.281423   -0.022472    3.866710
   29          1             0       -0.109833    0.118535    2.788753
   30          1             0       -0.464138    1.140970   -2.225272
   31          1             0        1.113647    1.820081   -1.683106
   32          1             0       -3.925977   -0.129349    2.125968
   33          1             0       -4.086205    1.505451    2.825194
   34          1             0       -5.557408    2.162706    0.914244
   35          1             0       -5.417518    0.540199    0.235095
   36          1             0       -6.228141    0.778888    1.792058
   37          1             0       -1.960444   -1.970620   -0.914252
   38          1             0       -1.163477   -2.645595    0.533417
   39          1             0       -3.395571   -3.689869    0.195185
   40          1             0       -3.395415   -2.730742    1.682907
   41          1             0       -4.160300   -2.096272    0.213354
 --------------------------------------------------------------------
     1 basis functions        1 primitive gaussians
     1 alpha electrons        1 beta electrons
 
 Harmonic frequencies (cm**-1), IR intensities (km*mol⁻¹),
 Raman scattering activities (A**4/amu), Raman depolarization ratios,
 reduced masses (AMU), force constants (mDyne/A) and normal coordinates:
                      1                      2                      3
                        a                      a                      a 
 Frequencies --    49.2636                54.4769                52.5447
 Red. masses --    22.6637                23.4434                17.1690
 Frc consts  --     0.0000                 0.0000                 0.0000
 IR Inten    --     3.9062                 1.2656                 0.1538
 Raman Activ --     0.0000                 0.0000                 0.0000
 Depolar     --     0.0000                 0.0000                 0.0000
 Atom AN      X      Y      Z        X      Y      Z        X      Y      Z
   1   6    -0.03  -0.07  -0.06     0.13   0.02   0.07     0.05  -0.12   0.17
   2   6    -0.03  -0.10  -0.05     0.16   0.04   0.05    -0.09  -0.11   0.22
   3   8    -0.04  -0.07  -0.08     0.21   0.05   0.08    -0.21  -0.06   0.11
   4  15     0.14   0.01  -0.08     0.15  -0.01   0.01    -0.12   0.02  -0.05
   5  16     0.38  -0.17  -0.21    -0.04   0.02  -0.27     0.15  -0.18  -0.17
   6   8     0.16   0.09  -0.04     0.15   0.06   0.02    -0.18   0.17  -0.07
   7   6     0.06   0.12  -0.03     0.10   0.08   0.04    -0.13   0.17  -0.00
   8   6     0.06   0.17  -0.05     0.05   0.12  -0.01    -0.09   0.20   0.02
   9  16    -0.01   0.22   0.05     0.10  -0.29   0.19    -0.07   0.14  -0.17
  10   6    -0.00   0.15   0.20    -0.02  -0.21   0.05    -0.02   0.10  -0.03
  11  16    -0.12  -0.03   0.39     0.02  -0.22   0.05     0.01   0.09   0.01
  12  15    -0.11  -0.03   0.07    -0.16   0.06   0.01     0.10  -0.05   0.07
  13  16     0.23  -0.04  -0.09    -0.29   0.42   0.02    -0.13   0.17   0.15
  14   8    -0.23  -0.02  -0.05    -0.02   0.00   0.10     0.14  -0.18   0.20
  15   6    -0.20  -0.04  -0.08    -0.04  -0.01   0.05     0.06  -0.19   0.06
  16   6    -0.18  -0.08  -0.12    -0.02  -0.01   0.01     0.11  -0.11  -0.00
  17   8    -0.17  -0.01   0.10    -0.21  -0.04  -0.11     0.22  -0.09  -0.13
  18   6    -0.05  -0.02   0.07    -0.13   0.00  -0.18     0.11  -0.04  -0.18
  19   6    -0.05  -0.07   0.01    -0.07  -0.09  -0.16     0.11  -0.03  -0.15
  20   1    -0.01  -0.02  -0.02     0.03   0.01   0.01     0.03  -0.04   0.07
  21   1    -0.01  -0.02  -0.02     0.04   0.00   0.03     0.01  -0.03   0.03
  22   1    -0.01  -0.02  -0.01     0.03   0.00   0.02     0.03  -0.03   0.04
  23   1    -0.00  -0.03  -0.01     0.04   0.01   0.01    -0.02  -0.04   0.08
  24   1    -0.02  -0.03  -0.02     0.05   0.01   0.02    -0.05  -0.03   0.08
  25   1     0.01   0.04  -0.01     0.04   0.02   0.01    -0.05   0.04   0.01
  26   1     0.00   0.03   0.00     0.03   0.03   0.03    -0.04   0.05  -0.00
  27   1     0.01   0.05  -0.01     0.01   0.04  -0.00    -0.02   0.06   0.01
  28   1     0.02   0.05  -0.01     0.01   0.04  -0.00    -0.02   0.06  -0.00
  29   1     0.02   0.05  -0.02     0.02   0.03  -0.02    -0.03   0.06   0.01
  30   1     0.01   0.07   0.05    -0.01  -0.08   0.02    -0.01   0.04  -0.01
  31   1     0.00   0.05   0.08    -0.01  -0.06  -0.01    -0.00   0.03  -0.00
  32   1    -0.05  -0.01  -0.02    -0.01  -0.00   0.01     0.01  -0.06  -0.00
  33   1    -0.07  -0.01  -0.02    -0.02  -0.00   0.01     0.00  -0.07   0.03
  34   1    -0.06  -0.03  -0.04    -0.00  -0.00  -0.00     0.04  -0.03   0.01
  35   1    -0.04  -0.03  -0.03     0.00  -0.01   0.00     0.04  -0.02  -0.01
  36   1    -0.06  -0.03  -0.04    -0.01  -0.00  -0.00     0.02  -0.03  -0.02
  37   1    -0.00  -0.00   0.02    -0.05   0.02  -0.05     0.02   0.00  -0.05
  38   1    -0.01   0.00   0.03    -0.02   0.01  -0.08     0.03  -0.03  -0.07
  39   1     0.00  -0.02  -0.00    -0.01  -0.02  -0.06     0.02  -0.00  -0.05
  40   1    -0.03  -0.02   0.00    -0.01  -0.04  -0.05     0.04  -0.02  -0.04
  41   1    -0.02  -0.03  -0.01    -0.04  -0.04  -0.03     0.03   0.00  -0.03
                      4                      5                      6
                        a                      a                      a 
 Frequencies --    62.2818                74.0778                64.4608
 Red. masses --    22.3452                28.6125                16.5216
 Frc consts  --     0.0000                 0.0000                 0.0000
 IR Inten    --     2.3712                 1.7426                 5.5617
 Raman Activ --     0.0000                 0.0000                 0.0000
 Depolar     --     0.0000                 0.0000                 0.0000
 Atom AN      X      Y      Z        X      Y      Z        X      Y      Z
   1   6    -0.06   0.03  -0.06    -0.02  -0.08   0.01     0.08   0.14  -0.07
   2   6    -0.05  -0.04  -0.05     0.02  -0.07  -0.01     0.04   0.02  -0.04
   3   8    -0.05  -0.11  -0.03     0.06  -0.01   0.01     0.02  -0.03  -0.05
   4  15     0.01  -0.10   0.11     0.21   0.07   0.04     0.04  -0.03   0.01
   5  16     0.06  -0.19  -0.04     0.46   0.01   0.31     0.02  -0.06  -0.09
   6   8     0.16  -0.06   0.13     0.06   0.01  -0.00     0.11  -0.03   0.04
   7   6     0.15  -0.05   0.13    -0.02   0.01  -0.07     0.08  -0.02   0.02
   8   6     0.10  -0.05   0.09    -0.01   0.00  -0.06     0.02  -0.03  -0.02
   9  16    -0.20  -0.01   0.38     0.29   0.16  -0.12    -0.09  -0.02   0.19
  10   6     0.01   0.02   0.02     0.02   0.04  -0.08    -0.02  -0.01   0.03
  11  16    -0.20   0.36  -0.20    -0.21   0.01  -0.21    -0.12   0.12  -0.04
  12  15    -0.06   0.15  -0.15    -0.18  -0.05  -0.10     0.02  -0.08   0.12
  13  16    -0.10   0.07  -0.13    -0.46  -0.15   0.05    -0.23  -0.27   0.27
  14   8    -0.10   0.02  -0.08    -0.03  -0.02  -0.01     0.06  -0.08   0.14
  15   6     0.03  -0.11   0.01     0.02   0.01   0.08    -0.16   0.04  -0.13
  16   6    -0.04  -0.25   0.10    -0.03   0.07   0.20    -0.02   0.39  -0.29
  17   8     0.11   0.14  -0.13    -0.03  -0.01  -0.07     0.16  -0.04   0.06
  18   6     0.16   0.10  -0.08    -0.08  -0.02  -0.02     0.14  -0.01   0.00
  19   6     0.23   0.00  -0.00    -0.08   0.02   0.07     0.01   0.09  -0.28
  20   1    -0.02   0.02  -0.03    -0.01  -0.04  -0.00     0.03   0.05  -0.02
  21   1    -0.01   0.01  -0.03    -0.02  -0.01   0.01     0.02   0.04  -0.04
  22   1    -0.02   0.02  -0.00     0.00  -0.02  -0.00     0.03   0.05  -0.00
  23   1    -0.02  -0.01  -0.00     0.01  -0.03  -0.01     0.01   0.00   0.01
  24   1    -0.01  -0.02  -0.03    -0.00  -0.02  -0.00     0.00  -0.00  -0.02
  25   1     0.06  -0.03   0.04    -0.01   0.02  -0.03     0.03  -0.01  -0.00
  26   1     0.05  -0.00   0.05    -0.02  -0.01  -0.02     0.02  -0.00   0.02
  27   1     0.03  -0.01   0.03    -0.01   0.00  -0.03    -0.00  -0.01  -0.01
  28   1     0.02  -0.00   0.03     0.00  -0.01  -0.01    -0.01  -0.01   0.00
  29   1     0.03  -0.02   0.01     0.00   0.01  -0.01     0.01  -0.01  -0.02
  30   1     0.03  -0.00  -0.02     0.02  -0.01  -0.03     0.00  -0.01  -0.00
  31   1     0.02  -0.01   0.01    -0.01   0.03  -0.01    -0.00  -0.01   0.01
  32   1     0.05  -0.03  -0.00     0.00   0.00   0.02    -0.11  -0.01  -0.07
  33   1     0.01  -0.03   0.00     0.03   0.00   0.03    -0.05  -0.03  -0.01
  34   1    -0.05  -0.08   0.03    -0.00   0.02   0.06     0.07   0.13  -0.06
  35   1    -0.01  -0.07   0.03    -0.04   0.02   0.05    -0.00   0.14  -0.10
  36   1     0.01  -0.09   0.04     0.00   0.03   0.08    -0.05   0.14  -0.13
  37   1     0.03   0.02  -0.03    -0.04  -0.02  -0.01     0.10  -0.00   0.00
  38   1     0.06   0.05  -0.04    -0.02  -0.01  -0.01     0.01  -0.02   0.05
  39   1     0.08  -0.00   0.00    -0.03   0.00   0.03    -0.00   0.03  -0.10
  40   1     0.08   0.00   0.00    -0.01   0.01   0.02    -0.06   0.01  -0.08
  41   1     0.05  -0.02   0.01    -0.02   0.01   0.03     0.04   0.05  -0.12
                      7                      8                      9
                        a                      a                      a 
 Frequencies --    66.4633                66.0573                72.8149
 Red. masses --    13.9933                12.3627                13.0156
 Frc consts  --     0.0000                 0.0000                 0.0000
 IR Inten    --     2.7873                 4.1220                 4.3023
 Raman Activ --     0.0000                 0.0000                 0.0000
 Depolar     --     0.0000                 0.0000                 0.0000
 Atom AN      X      Y      Z        X      Y      Z        X      Y      Z
   1   6     0.52   0.22   0.03     0.04   0.49  -0.13    -0.08   0.12  -0.19
   2   6     0.18   0.08   0.18    -0.01   0.06  -0.03    -0.02   0.04  -0.19
   3   8    -0.09  -0.12  -0.06    -0.04  -0.09  -0.00     0.02  -0.07  -0.13
   4  15    -0.07  -0.12  -0.11    -0.02  -0.10   0.04     0.02  -0.10   0.01
   5  16     0.09  -0.21  -0.04     0.09  -0.18  -0.01     0.03  -0.03   0.27
   6   8    -0.13  -0.06  -0.10     0.01   0.01   0.03     0.07  -0.12   0.02
   7   6    -0.02  -0.09  -0.06    -0.16   0.13   0.07    -0.17   0.06   0.04
   8   6    -0.01  -0.14  -0.03    -0.10   0.30   0.04    -0.20   0.29  -0.08
   9  16    -0.06   0.00  -0.19    -0.04  -0.10   0.08     0.02  -0.07   0.00
  10   6    -0.03   0.02  -0.03     0.03  -0.05  -0.00     0.00  -0.05  -0.01
  11  16    -0.01   0.02  -0.02     0.02  -0.06  -0.04     0.08  -0.04  -0.00
  12  15    -0.10   0.12   0.05     0.05  -0.09  -0.06     0.04   0.03   0.05
  13  16    -0.11   0.01   0.07     0.15  -0.14  -0.11    -0.13   0.18   0.11
  14   8    -0.08   0.15  -0.02     0.03  -0.03  -0.07     0.07  -0.02   0.09
  15   6    -0.04   0.10   0.02     0.12  -0.01   0.10    -0.07  -0.01  -0.11
  16   6    -0.05  -0.07  -0.01     0.03   0.02   0.27     0.05  -0.07  -0.33
  17   8    -0.13   0.13   0.14     0.02  -0.06  -0.04     0.04  -0.01  -0.02
  18   6     0.05   0.09   0.13    -0.11  -0.04  -0.02     0.02  -0.01   0.00
  19   6     0.12  -0.06   0.12    -0.21   0.12  -0.09     0.19  -0.14   0.33
  20   1     0.20   0.11   0.05     0.01   0.17  -0.05    -0.03   0.05  -0.07
  21   1     0.17   0.04  -0.07    -0.01   0.16  -0.11    -0.02   0.03  -0.06
  22   1     0.16   0.07   0.02     0.05   0.19   0.03    -0.03   0.04  -0.03
  23   1     0.04   0.04   0.13     0.02  -0.00   0.07    -0.01   0.02  -0.05
  24   1     0.04   0.02   0.06    -0.04  -0.03  -0.07     0.01   0.01  -0.08
  25   1    -0.01  -0.04  -0.01    -0.06   0.05   0.03    -0.05   0.02   0.01
  26   1     0.01  -0.01  -0.03    -0.07   0.01   0.03    -0.09  -0.01   0.05
  27   1     0.01  -0.05  -0.01    -0.06   0.11   0.02    -0.09   0.12  -0.00
  28   1    -0.00  -0.03  -0.01    -0.01   0.08   0.00    -0.05   0.09  -0.03
  29   1    -0.01  -0.05   0.00    -0.00   0.11  -0.00    -0.03   0.09  -0.06
  30   1    -0.01   0.01  -0.01     0.02  -0.01  -0.01    -0.01  -0.02   0.00
  31   1    -0.01   0.01  -0.01     0.02  -0.02   0.00    -0.00  -0.01  -0.02
  32   1     0.01   0.04   0.03     0.04  -0.00   0.02    -0.02   0.00  -0.01
  33   1    -0.03   0.05  -0.01     0.07  -0.00   0.03    -0.07   0.01  -0.04
  34   1    -0.04  -0.03  -0.02     0.00   0.01   0.09     0.02  -0.03  -0.12
  35   1     0.00  -0.04   0.01    -0.02   0.01   0.07     0.06  -0.04  -0.08
  36   1    -0.01  -0.03   0.00     0.03  -0.00   0.10    -0.01  -0.01  -0.12
  37   1     0.01   0.02   0.04    -0.01  -0.02  -0.00    -0.08   0.00  -0.00
  38   1     0.03   0.05   0.04    -0.06  -0.04   0.01     0.05   0.02  -0.06
  39   1     0.07  -0.02   0.04    -0.09   0.04  -0.03     0.06  -0.05   0.11
  40   1     0.03  -0.02   0.04    -0.08   0.04  -0.03     0.13  -0.03   0.10
  41   1     0.02  -0.04   0.03    -0.03   0.07  -0.04     0.01  -0.07   0.14
                     10                     11                     12
                        a                      a                      a 
 Frequencies --    71.2249                73.9137                81.5457
 Red. masses --    10.8828                10.7666                12.5582
 Frc consts  --     0.0000                 0.0000                 0.0000
 IR Inten    --     0.3779                 0.4098                 0.7149
 Raman Activ --     0.0000                 0.0000                 0.0000
 Depolar     --     0.0000                 0.0000                 0.0000
 Atom AN      X      Y      Z        X      Y      Z        X      Y      Z
   1   6     0.10  -0.09   0.01     0.11   0.09  -0.00    -0.18   0.09  -0.05
   2   6     0.09   0.03  -0.02     0.01   0.03   0.05    -0.11  -0.06  -0.04
   3   8     0.08   0.02  -0.04    -0.06  -0.02  -0.02    -0.06  -0.03   0.02
   4  15     0.07  -0.00  -0.02    -0.05  -0.00  -0.01    -0.03  -0.01  -0.01
   5  16    -0.00   0.03  -0.05    -0.02  -0.02  -0.00     0.06  -0.00   0.19
   6   8     0.07  -0.05  -0.00    -0.03   0.01  -0.01    -0.07   0.03  -0.03
   7   6    -0.02  -0.04  -0.07     0.11  -0.02   0.07     0.04   0.05   0.09
   8   6    -0.12  -0.04  -0.14     0.41  -0.06   0.31     0.35   0.09   0.31
   9  16     0.01  -0.02   0.08    -0.05   0.07  -0.05     0.10  -0.05  -0.19
  10   6     0.00  -0.01   0.00     0.00   0.06   0.02    -0.02  -0.06  -0.09
  11  16     0.01   0.13  -0.05    -0.05  -0.02   0.05     0.10  -0.11  -0.08
  12  15     0.06   0.05   0.07     0.03  -0.08  -0.10    -0.04   0.06   0.07
  13  16    -0.05  -0.01   0.14    -0.06   0.10  -0.09    -0.11  -0.03   0.11
  14   8     0.01  -0.01   0.07     0.03  -0.15   0.00    -0.01   0.13  -0.00
  15   6    -0.00  -0.12  -0.01    -0.06  -0.09  -0.11    -0.01   0.08  -0.02
  16   6     0.04  -0.42  -0.17    -0.01   0.12  -0.15     0.03  -0.27  -0.18
  17   8     0.19   0.05   0.02     0.16  -0.09  -0.20    -0.13   0.07   0.15
  18   6    -0.16   0.04   0.11    -0.22  -0.09  -0.07     0.07   0.07   0.06
  19   6    -0.36   0.41   0.03    -0.18   0.10   0.34    -0.02   0.02  -0.29
  20   1     0.04  -0.02   0.01     0.04   0.04   0.01    -0.06   0.01  -0.03
  21   1     0.05  -0.04   0.02     0.03   0.03  -0.02    -0.07   0.05  -0.02
  22   1     0.01  -0.04  -0.01     0.04   0.03   0.01    -0.03   0.05   0.00
  23   1     0.01   0.02  -0.02     0.00   0.01   0.04    -0.01  -0.04  -0.00
  24   1     0.04   0.03   0.01    -0.01   0.00   0.01    -0.05  -0.04  -0.03
  25   1     0.01  -0.01  -0.04    -0.03   0.02   0.05    -0.05   0.03   0.07
  26   1    -0.02  -0.01  -0.00     0.05  -0.02  -0.05     0.02  -0.01  -0.03
  27   1    -0.05  -0.01  -0.05     0.14  -0.02   0.11     0.12   0.04   0.12
  28   1    -0.05  -0.01  -0.02     0.17  -0.03   0.05     0.16   0.01   0.05
  29   1    -0.03  -0.01  -0.06     0.10  -0.00   0.15     0.09   0.04   0.14
  30   1     0.00  -0.01   0.00     0.01   0.03  -0.00    -0.02  -0.03  -0.01
  31   1     0.00  -0.01  -0.01     0.01   0.02   0.02    -0.02  -0.01  -0.04
  32   1     0.04  -0.02   0.03    -0.05  -0.04  -0.06     0.04   0.04   0.06
  33   1    -0.06  -0.00  -0.02    -0.01  -0.05  -0.01    -0.05   0.07  -0.04
  34   1    -0.03  -0.14  -0.09     0.03   0.05  -0.02    -0.04  -0.10  -0.11
  35   1     0.06  -0.15  -0.03    -0.01   0.06  -0.06     0.06  -0.13  -0.02
  36   1     0.01  -0.14  -0.06    -0.02   0.05  -0.06     0.01  -0.08  -0.06
  37   1    -0.01  -0.02   0.03    -0.15  -0.04  -0.03     0.10   0.03   0.02
  38   1    -0.10  -0.04   0.07    -0.05  -0.05  -0.08    -0.00   0.02   0.07
  39   1    -0.17   0.12   0.02    -0.11   0.02   0.13     0.03   0.01  -0.10
  40   1    -0.14   0.14   0.01     0.03   0.06   0.10    -0.08  -0.01  -0.09
  41   1    -0.05   0.17  -0.03    -0.06   0.05   0.15     0.02   0.01  -0.13
                     13                     14                     15
                        a                      a                      a 
 Frequencies --    85.4829               120.9494               117.7547
 Red. masses --    12.8224                13.8831                11.8390
 Frc consts  --     0.0000                 0.0000                 0.0000
 IR Inten    --     0.3038                 0.8724                 7.9684
 Raman Activ --     0.0000                 0.0000                 0.0000
 Depolar     --     0.0000                 0.0000                 0.0000
 Atom AN      X      Y      Z        X      Y      Z        X      Y      Z
   1   6    -0.31   0.37   0.07    -0.08   0.04   0.03    -0.11  -0.04   0.05
   2   6    -0.15  -0.09   0.10     0.04  -0.10   0.01     0.07   0.39  -0.10
   3   8    -0.00   0.07   0.26     0.16  -0.00   0.10     0.14   0.11   0.06
   4  15     0.04   0.11   0.07     0.07  -0.09  -0.05    -0.01   0.03   0.09
   5  16     0.19  -0.08  -0.26    -0.10   0.03  -0.01     0.24  -0.21  -0.18
   6   8    -0.10   0.16   0.01    -0.07  -0.05  -0.08    -0.14  -0.02   0.03
   7   6     0.11  -0.05  -0.09    -0.15   0.00  -0.08    -0.37  -0.02  -0.20
   8   6    -0.11  -0.32  -0.12     0.03   0.06   0.02     0.05  -0.11   0.15
   9  16     0.11  -0.04   0.01     0.17  -0.15  -0.16    -0.03  -0.06   0.12
  10   6     0.02  -0.05  -0.03     0.01  -0.10   0.04    -0.00  -0.03   0.00
  11  16     0.06  -0.04  -0.04     0.10  -0.06   0.09    -0.02   0.07  -0.05
  12  15     0.03   0.01   0.01    -0.03   0.14   0.02     0.01   0.01   0.03
  13  16    -0.03   0.04   0.04    -0.03   0.06   0.03     0.06  -0.04   0.02
  14   8     0.04   0.02   0.02    -0.28  -0.04  -0.06     0.02   0.02   0.02
  15   6    -0.01   0.01  -0.05    -0.19  -0.26  -0.09     0.00   0.03   0.01
  16   6     0.03  -0.06  -0.14    -0.28   0.06   0.14     0.02   0.01  -0.03
  17   8    -0.01   0.01   0.02     0.28   0.17  -0.01    -0.02  -0.00   0.02
  18   6    -0.03  -0.00   0.04     0.19   0.12   0.06    -0.01   0.02  -0.03
  19   6     0.02  -0.02   0.17     0.14   0.22   0.04     0.03  -0.04  -0.01
  20   1    -0.13   0.08  -0.01    -0.05  -0.01  -0.01    -0.04   0.03  -0.01
  21   1    -0.16   0.17  -0.02    -0.05   0.04   0.01     0.04  -0.08   0.10
  22   1    -0.02   0.17   0.08     0.01   0.04   0.03    -0.14  -0.08  -0.01
  23   1     0.03  -0.09   0.07     0.04  -0.05   0.00    -0.08   0.19  -0.11
  24   1    -0.11  -0.09  -0.03    -0.01  -0.05  -0.02     0.15   0.19  -0.02
  25   1     0.08  -0.04  -0.05    -0.08   0.04  -0.02    -0.20   0.12  -0.07
  26   1     0.06   0.03  -0.02    -0.06  -0.04  -0.05    -0.15  -0.12  -0.17
  27   1     0.00  -0.14  -0.07    -0.01   0.03   0.01    -0.03  -0.04  -0.00
  28   1    -0.08  -0.08  -0.00     0.05  -0.02  -0.00     0.11  -0.15   0.05
  29   1    -0.06  -0.13  -0.03     0.02   0.05   0.04     0.05   0.07   0.15
  30   1    -0.00  -0.03  -0.00    -0.01  -0.03   0.02     0.00  -0.02  -0.00
  31   1    -0.00  -0.01  -0.02    -0.01  -0.02   0.00     0.00  -0.01  -0.01
  32   1     0.00   0.01  -0.00    -0.06  -0.10  -0.14    -0.00   0.01   0.01
  33   1    -0.03   0.01  -0.02    -0.02  -0.17   0.03    -0.01   0.01  -0.00
  34   1     0.00  -0.02  -0.05    -0.07   0.04   0.15     0.00   0.00  -0.01
  35   1     0.03  -0.02  -0.04    -0.13   0.10  -0.01     0.01  -0.00  -0.01
  36   1     0.00  -0.02  -0.05    -0.06  -0.03   0.04     0.00   0.00  -0.01
  37   1    -0.04  -0.00   0.01     0.07   0.02   0.02    -0.02   0.02  -0.01
  38   1     0.00   0.00  -0.01     0.04   0.03   0.04     0.01   0.00  -0.03
  39   1     0.00  -0.01   0.05     0.03   0.06   0.02     0.02  -0.01  -0.01
  40   1     0.03  -0.00   0.05     0.03   0.07   0.01     0.02  -0.03  -0.00
  41   1    -0.01  -0.01   0.07     0.05   0.07  -0.01    -0.00  -0.02   0.01
                     16                     17                     18
                        a                      a                      a 
 Frequencies --   133.7630               143.6421               173.3062
 Red. masses --    16.5176                19.2022                22.4408
 Frc consts  --     0.0000                 0.0000                 0.0000
 IR Inten    --     9.5644                 5.8095                10.6800
 Raman Activ --     0.0000                 0.0000                 0.0000
 Depolar     --     0.0000                 0.0000                 0.0000
 Atom AN      X      Y      Z        X      Y      Z        X      Y      Z
   1   6    -0.02  -0.04  -0.03     0.09   0.01  -0.01    -0.06   0.04   0.02
   2   6    -0.05   0.25  -0.07     0.00  -0.28   0.08     0.07   0.03  -0.03
   3   8    -0.13   0.03  -0.08    -0.00  -0.00  -0.02     0.16  -0.05   0.10
   4  15    -0.12   0.08  -0.02     0.09   0.06  -0.10     0.08  -0.16   0.16
   5  16     0.31  -0.12   0.18     0.02   0.19   0.13    -0.24  -0.12  -0.25
   6   8    -0.09   0.12  -0.02     0.06   0.02  -0.07     0.06  -0.19   0.12
   7   6     0.24   0.03   0.16    -0.15   0.04  -0.24    -0.01  -0.09   0.19
   8   6    -0.04  -0.02  -0.02     0.12  -0.01  -0.03    -0.05   0.06   0.09
   9  16    -0.04  -0.16  -0.06    -0.07  -0.10   0.18     0.25   0.27  -0.26
  10   6    -0.14  -0.15  -0.16    -0.10  -0.10  -0.11     0.12   0.17  -0.09
  11  16     0.03  -0.05  -0.22    -0.18   0.22  -0.32    -0.13   0.18  -0.25
  12  15    -0.00  -0.02   0.10    -0.02  -0.03   0.16    -0.02  -0.04   0.05
  13  16     0.21   0.24  -0.02     0.33   0.15  -0.01     0.06   0.16   0.00
  14   8    -0.07  -0.09   0.08     0.01  -0.07   0.17     0.03  -0.06   0.09
  15   6    -0.09  -0.18  -0.03    -0.05  -0.10   0.04     0.00  -0.15  -0.02
  16   6    -0.09   0.09   0.04     0.00   0.03  -0.02     0.02   0.02  -0.02
  17   8    -0.01  -0.01   0.08    -0.13  -0.05   0.12    -0.19  -0.03   0.14
  18   6     0.01  -0.03   0.12    -0.06  -0.03   0.04    -0.04  -0.07   0.17
  19   6    -0.06   0.04  -0.01    -0.04  -0.11   0.01    -0.08  -0.11   0.00
  20   1     0.01   0.03  -0.00     0.02  -0.04   0.01    -0.03   0.02  -0.02
  21   1     0.05  -0.07   0.03    -0.04   0.06  -0.05    -0.01   0.01   0.03
  22   1    -0.08  -0.06  -0.04     0.11   0.05   0.01    -0.04   0.01   0.02
  23   1    -0.09   0.13  -0.05     0.08  -0.15   0.07     0.00   0.02  -0.02
  24   1     0.07   0.13  -0.00    -0.10  -0.14   0.02     0.05   0.02  -0.03
  25   1     0.14  -0.10   0.06    -0.10   0.10  -0.08     0.00  -0.04   0.06
  26   1     0.13   0.10   0.10    -0.08  -0.07  -0.14    -0.01  -0.02   0.08
  27   1     0.05  -0.02   0.03    -0.01   0.00  -0.05    -0.03   0.04   0.05
  28   1    -0.08   0.09  -0.02     0.09  -0.09   0.01    -0.02   0.03   0.02
  29   1    -0.07  -0.10  -0.06     0.07   0.08   0.06    -0.00   0.01  -0.01
  30   1    -0.07  -0.08  -0.02    -0.03  -0.07  -0.03     0.06   0.05  -0.05
  31   1    -0.06  -0.04  -0.09    -0.04  -0.03  -0.06     0.04   0.06   0.02
  32   1    -0.05  -0.07  -0.08    -0.03  -0.04  -0.01    -0.01  -0.06  -0.06
  33   1    -0.01  -0.11   0.03    -0.02  -0.05   0.03    -0.00  -0.09   0.02
  34   1    -0.01   0.04   0.08     0.02   0.02   0.02     0.02   0.02   0.05
  35   1    -0.05   0.08  -0.03     0.01   0.03  -0.02     0.01   0.06  -0.04
  36   1    -0.03   0.00  -0.00    -0.02  -0.00  -0.03    -0.00  -0.02  -0.03
  37   1     0.04  -0.02   0.04    -0.02   0.01   0.01     0.03  -0.04   0.05
  38   1    -0.01  -0.01   0.07    -0.01  -0.01   0.00    -0.02  -0.01   0.10
  39   1    -0.02   0.01   0.01     0.00  -0.03  -0.01     0.01  -0.04   0.01
  40   1    -0.06   0.02  -0.00    -0.01  -0.05   0.00    -0.07  -0.02  -0.00
  41   1     0.00   0.02  -0.04    -0.02  -0.04   0.01    -0.02  -0.05  -0.04
                     19                     20                     21
                        a                      a                      a 
 Frequencies --   163.6209               169.9496               191.0335
 Red. masses --    15.7231                15.3875                17.9177
 Frc consts  --     0.0000                 0.0000                 0.0000
 IR Inten    --     6.8535                14.9270                28.3131
 Raman Activ --     0.0000                 0.0000                 0.0000
 Depolar     --     0.0000                 0.0000                 0.0000
 Atom AN      X      Y      Z        X      Y      Z        X      Y      Z
   1   6     0.04  -0.00  -0.04    -0.07   0.05   0.05     0.13  -0.05  -0.13
   2   6    -0.05  -0.02  -0.00     0.08   0.02  -0.00    -0.14  -0.03  -0.02
   3   8    -0.11   0.00  -0.07     0.18   0.01   0.10    -0.31  -0.06  -0.17
   4  15    -0.02   0.08   0.04     0.04  -0.12  -0.07    -0.04   0.17   0.26
   5  16     0.02   0.04  -0.03    -0.02  -0.05   0.04    -0.04   0.02  -0.23
   6   8     0.06   0.02   0.06    -0.10  -0.06  -0.10     0.21  -0.02   0.30
   7   6    -0.10   0.02  -0.10     0.03  -0.05   0.03    -0.07  -0.00   0.08
   8   6    -0.00  -0.05   0.00     0.01   0.02  -0.03    -0.09  -0.08   0.10
   9  16    -0.06   0.03   0.14     0.03  -0.04  -0.13     0.32   0.09  -0.04
  10   6     0.02   0.02   0.02    -0.07  -0.03   0.06    -0.13  -0.08  -0.14
  11  16    -0.01  -0.16   0.07    -0.33   0.03  -0.01     0.07  -0.17  -0.10
  12  15     0.02  -0.17  -0.18    -0.15  -0.14   0.06    -0.04  -0.02   0.09
  13  16    -0.22   0.37  -0.15     0.19   0.17  -0.13     0.11   0.01   0.02
  14   8     0.06  -0.07  -0.15    -0.03  -0.13   0.12    -0.09  -0.02   0.02
  15   6     0.09   0.01  -0.05    -0.13   0.34   0.23    -0.12   0.12   0.07
  16   6     0.06   0.02  -0.00    -0.05   0.00  -0.01    -0.12  -0.01   0.03
  17   8     0.06  -0.02   0.03     0.27  -0.07  -0.09     0.15  -0.01  -0.02
  18   6     0.23  -0.21   0.40     0.14  -0.07  -0.02     0.03   0.04  -0.11
  19   6     0.00   0.01   0.02     0.07   0.11  -0.00     0.05   0.07   0.01
  20   1     0.02  -0.00   0.01    -0.04   0.01  -0.01     0.08  -0.01   0.02
  21   1     0.01   0.00  -0.03    -0.03   0.02   0.04     0.04  -0.02  -0.08
  22   1     0.02   0.00  -0.02    -0.03   0.02   0.03     0.06  -0.02  -0.07
  23   1    -0.01  -0.01   0.01     0.02   0.01  -0.02    -0.04  -0.00   0.02
  24   1    -0.03  -0.01   0.01     0.03   0.00  -0.02    -0.05  -0.01   0.01
  25   1    -0.05   0.06  -0.05     0.02  -0.05   0.03    -0.03   0.06  -0.01
  26   1    -0.05  -0.04  -0.06     0.03   0.02   0.03    -0.06  -0.05   0.01
  27   1    -0.04  -0.02  -0.04     0.03   0.01   0.03    -0.10  -0.03  -0.05
  28   1     0.03  -0.08   0.03    -0.01   0.06  -0.04    -0.02  -0.12   0.10
  29   1     0.03   0.04   0.04    -0.02  -0.03  -0.03     0.03   0.05   0.05
  30   1     0.01   0.02   0.00    -0.01  -0.01   0.00    -0.07  -0.09  -0.00
  31   1     0.01   0.00   0.02    -0.03   0.00   0.03    -0.08   0.01  -0.10
  32   1     0.02   0.01  -0.00    -0.06   0.13   0.23    -0.04   0.05   0.08
  33   1     0.04   0.02  -0.02    -0.06   0.24  -0.02    -0.04   0.08  -0.01
  34   1     0.03   0.00  -0.02     0.02  -0.04  -0.20    -0.03  -0.02  -0.06
  35   1    -0.00  -0.02   0.01    -0.01  -0.16   0.10    -0.04  -0.06   0.04
  36   1     0.02   0.03   0.02    -0.04   0.14   0.04    -0.04   0.04   0.03
  37   1     0.22  -0.17   0.12     0.05  -0.04  -0.01    -0.03   0.04  -0.03
  38   1     0.01  -0.04   0.29     0.02  -0.03   0.02     0.01  -0.00  -0.07
  39   1     0.03  -0.03   0.09    -0.02   0.03   0.02    -0.02   0.03  -0.02
  40   1    -0.14   0.11   0.00     0.01   0.06   0.00     0.06  -0.00   0.00
  41   1     0.06  -0.02  -0.16     0.04   0.06  -0.01     0.01   0.05   0.05
                     22                     23                     24
                        a                      a                      a 
 Frequencies --   224.4565               214.9548               240.0577
 Red. masses --    18.9785                 8.4119                12.9591
 Frc consts  --     0.0000                 0.0000                 0.0000
 IR Inten    --    13.2445                10.2032                16.0963
 Raman Activ --     0.0000                 0.0000                 0.0000
 Depolar     --     0.0000                 0.0000                 0.0000
 Atom AN      X      Y      Z        X      Y      Z        X      Y      Z
   1   6     0.02  -0.02  -0.04    -0.12   0.08   0.20     0.00   0.01   0.07
   2   6    -0.03  -0.01  -0.02    -0.01   0.11   0.14     0.12  -0.02   0.03
   3   8    -0.05  -0.01  -0.03    -0.05  -0.09   0.14     0.23   0.26   0.01
   4  15    -0.01   0.02   0.03    -0.03  -0.11  -0.08    -0.08   0.10   0.00
   5  16    -0.00   0.00  -0.03    -0.08  -0.05   0.13     0.19  -0.06  -0.06
   6   8    -0.02   0.02   0.02     0.30  -0.00   0.03     0.10  -0.29   0.09
   7   6    -0.02   0.01   0.02     0.20   0.00  -0.08    -0.03  -0.17   0.14
   8   6    -0.03  -0.02   0.03     0.11   0.06  -0.19    -0.02   0.05   0.05
   9  16     0.13  -0.05  -0.04    -0.16   0.05  -0.15    -0.30   0.14  -0.07
  10   6    -0.11  -0.08   0.10    -0.08   0.04  -0.08    -0.35   0.01  -0.15
  11  16    -0.24  -0.17   0.14     0.02  -0.10  -0.01     0.07  -0.09   0.07
  12  15    -0.32   0.21  -0.08    -0.04   0.00   0.00     0.03   0.01  -0.02
  13  16     0.10  -0.19  -0.29     0.01  -0.02  -0.03    -0.00  -0.02  -0.01
  14   8     0.18  -0.00   0.34     0.01   0.00   0.03     0.01   0.03  -0.05
  15   6     0.13  -0.14   0.12     0.00  -0.01   0.01     0.03   0.01  -0.02
  16   6     0.30   0.04  -0.11     0.01   0.00  -0.01     0.02  -0.00  -0.00
  17   8    -0.07   0.19  -0.10     0.01   0.02  -0.01     0.02  -0.00  -0.04
  18   6     0.08   0.12   0.05     0.01   0.02  -0.01     0.01  -0.01  -0.02
  19   6     0.07   0.14   0.04     0.01   0.03   0.01     0.01   0.01  -0.01
  20   1     0.01  -0.01  -0.00    -0.03   0.16  -0.01    -0.08  -0.27   0.07
  21   1     0.00  -0.00  -0.02     0.06  -0.07   0.07    -0.20   0.20   0.08
  22   1     0.01  -0.01  -0.02    -0.17  -0.01   0.13     0.24   0.07  -0.07
  23   1    -0.01  -0.00  -0.00    -0.05   0.07   0.03     0.09  -0.05  -0.00
  24   1    -0.01  -0.00  -0.00     0.05   0.05   0.03    -0.02  -0.03   0.02
  25   1    -0.01   0.00   0.00     0.07   0.02  -0.04    -0.01  -0.05   0.05
  26   1    -0.01   0.00   0.00     0.04  -0.02  -0.01    -0.03  -0.05   0.07
  27   1    -0.00  -0.01   0.00    -0.29   0.07  -0.28    -0.05   0.05   0.03
  28   1    -0.01  -0.01   0.01     0.06  -0.28   0.15     0.00   0.01   0.01
  29   1    -0.01  -0.01   0.01     0.29   0.30  -0.07     0.03   0.04  -0.02
  30   1    -0.04  -0.04   0.03    -0.04   0.01  -0.01    -0.17  -0.05   0.02
  31   1    -0.05  -0.00   0.02    -0.03   0.01  -0.03    -0.14   0.02  -0.14
  32   1     0.03  -0.05  -0.02     0.00  -0.00   0.00     0.02   0.00  -0.01
  33   1     0.01  -0.09   0.07    -0.00  -0.00   0.01     0.01  -0.00  -0.00
  34   1     0.08   0.04   0.08    -0.00   0.00   0.02    -0.02   0.00   0.04
  35   1     0.18   0.12  -0.10     0.02   0.02  -0.01     0.02   0.03  -0.02
  36   1     0.04  -0.09  -0.14     0.00  -0.02  -0.02     0.01  -0.04  -0.01
  37   1     0.05  -0.00   0.01    -0.00   0.01  -0.00     0.00  -0.01  -0.01
  38   1     0.02   0.06   0.06     0.00   0.01  -0.01     0.00  -0.00  -0.00
  39   1     0.04   0.01   0.08    -0.01   0.01  -0.00     0.01  -0.01   0.02
  40   1    -0.01   0.11   0.01     0.01   0.00   0.00    -0.00   0.03  -0.00
  41   1     0.02   0.00  -0.05     0.00   0.02   0.01     0.00  -0.01  -0.02
                     25                     26                     27
                        a                      a                      a 
 Frequencies --   219.7328               231.3051               232.7843
 Red. masses --     5.6575                 6.4312                 5.1698
 Frc consts  --     0.0000                 0.0000                 0.0000
 IR Inten    --     4.7946                 5.4688                 2.2814
 Raman Activ --     0.0000                 0.0000                 0.0000
 Depolar     --     0.0000                 0.0000                 0.0000
 Atom AN      X      Y      Z        X      Y      Z        X      Y      Z
   1   6     0.00  -0.01  -0.01    -0.08   0.06   0.14    -0.01   0.01   0.03
   2   6    -0.00  -0.01  -0.01    -0.03   0.01   0.12     0.00   0.01   0.02
   3   8     0.00  -0.02  -0.00    -0.08  -0.11   0.08    -0.00   0.02   0.01
   4  15     0.02  -0.01   0.00     0.08  -0.02   0.04    -0.01   0.01   0.01
   5  16    -0.01   0.00  -0.00    -0.05   0.03  -0.01     0.01  -0.00  -0.00
   6   8    -0.03   0.02  -0.02     0.24  -0.14   0.07     0.06  -0.04   0.03
   7   6    -0.00   0.01   0.01    -0.08  -0.09  -0.19    -0.02  -0.02  -0.03
   8   6    -0.01   0.00   0.01     0.11   0.07  -0.14     0.01   0.02  -0.03
   9  16     0.03  -0.00   0.00    -0.02   0.16   0.04    -0.06   0.04   0.02
  10   6    -0.02  -0.01   0.04    -0.24  -0.01  -0.11    -0.00   0.03  -0.02
  11  16    -0.20  -0.05  -0.00     0.08  -0.06   0.02    -0.10  -0.17  -0.01
  12  15     0.02  -0.18   0.05     0.02   0.03  -0.00    -0.06  -0.07  -0.05
  13  16     0.00   0.13   0.03     0.01  -0.02   0.00    -0.03   0.06  -0.10
  14   8     0.01   0.12  -0.15     0.01   0.02  -0.01     0.02  -0.02  -0.04
  15   6     0.04   0.21  -0.02     0.01   0.02  -0.01     0.09  -0.15  -0.04
  16   6     0.00  -0.02  -0.02    -0.00   0.01   0.00     0.12   0.02  -0.03
  17   8     0.15  -0.08   0.08     0.02  -0.00  -0.05    -0.03   0.08   0.21
  18   6     0.04  -0.05  -0.00     0.01  -0.02  -0.02     0.06   0.12   0.10
  19   6     0.02   0.01  -0.00     0.00  -0.00  -0.01     0.05   0.09   0.00
  20   1     0.01   0.01  -0.01     0.01   0.24  -0.04    -0.01  -0.00   0.01
  21   1     0.01  -0.02  -0.01     0.13  -0.13   0.01    -0.01   0.00   0.01
  22   1    -0.01  -0.01   0.00    -0.22  -0.02   0.15    -0.00   0.00   0.01
  23   1    -0.00  -0.00  -0.00    -0.03   0.02   0.04     0.00   0.00   0.01
  24   1     0.00  -0.00  -0.00     0.02   0.01   0.02     0.00   0.00   0.01
  25   1     0.00  -0.00   0.00    -0.06   0.05  -0.08    -0.01   0.01  -0.02
  26   1     0.00   0.01   0.00    -0.07  -0.09  -0.08    -0.02  -0.02  -0.01
  27   1     0.00  -0.00   0.00     0.29   0.03   0.21     0.06   0.01   0.05
  28   1    -0.01   0.00   0.00     0.04   0.29  -0.26     0.01   0.07  -0.06
  29   1    -0.01  -0.01   0.00    -0.17  -0.21  -0.05    -0.04  -0.04  -0.01
  30   1     0.00  -0.00  -0.00    -0.13  -0.07   0.02     0.01   0.02  -0.02
  31   1    -0.01   0.00   0.03    -0.12   0.02  -0.12     0.01   0.01   0.02
  32   1     0.03   0.07   0.03     0.00   0.01  -0.00     0.03  -0.05  -0.05
  33   1     0.01   0.09  -0.02     0.00   0.01  -0.00     0.03  -0.08   0.01
  34   1    -0.28   0.04   0.36    -0.02   0.01   0.03     0.17  -0.01  -0.15
  35   1     0.21   0.32  -0.21     0.01   0.03  -0.02    -0.06  -0.12   0.07
  36   1     0.06  -0.46  -0.17     0.01  -0.04  -0.01     0.00   0.20   0.05
  37   1    -0.00   0.01   0.00     0.01  -0.01  -0.01     0.01   0.07   0.03
  38   1     0.01  -0.03  -0.02    -0.00  -0.00   0.01     0.02   0.02   0.01
  39   1    -0.09   0.07  -0.16     0.03  -0.03   0.06    -0.18   0.20  -0.40
  40   1     0.08  -0.17  -0.00    -0.02   0.06  -0.00     0.17  -0.39  -0.01
  41   1     0.02   0.12   0.15    -0.00  -0.04  -0.06     0.03   0.29   0.35
                     28                     29                     30
                        a                      a                      a 
 Frequencies --   263.5644               278.7804               306.0671
 Red. masses --    10.7457                14.0577                15.7733
 Frc consts  --     0.0000                 0.0000                 0.0000
 IR Inten    --     6.8739                 0.3053                 3.7605
 Raman Activ --     0.0000                 0.0000                 0.0000
 Depolar     --     0.0000                 0.0000                 0.0000
 Atom AN      X      Y      Z        X      Y      Z        X      Y      Z
   1   6    -0.03   0.02   0.09     0.03  -0.03  -0.06    -0.01   0.01   0.04
   2   6    -0.03   0.16   0.06     0.04  -0.22  -0.03    -0.06  -0.00   0.05
   3   8    -0.12   0.00  -0.01     0.19   0.20   0.00    -0.08   0.10  -0.03
   4  15    -0.12   0.01   0.00    -0.00   0.12  -0.02    -0.08   0.14  -0.01
   5  16    -0.03  -0.05   0.05     0.14   0.09  -0.06     0.09   0.07  -0.06
   6   8     0.22  -0.01   0.09    -0.07  -0.08  -0.00    -0.03  -0.19   0.01
   7   6     0.01  -0.01  -0.15    -0.06  -0.02   0.15    -0.00  -0.17   0.02
   8   6     0.09   0.03  -0.13    -0.10  -0.04   0.14     0.05   0.08  -0.06
   9  16    -0.12  -0.02   0.02    -0.30   0.09   0.07     0.02  -0.08  -0.01
  10   6     0.39   0.12  -0.06     0.19   0.13  -0.15     0.12  -0.02   0.08
  11  16     0.13  -0.21  -0.18     0.19  -0.25  -0.15    -0.36  -0.20  -0.05
  12  15    -0.14   0.00   0.04    -0.11   0.01   0.01     0.02  -0.20   0.12
  13  16     0.02  -0.03  -0.04     0.01  -0.03  -0.06     0.06   0.11   0.14
  14   8    -0.02  -0.09   0.18    -0.01  -0.09   0.15    -0.03   0.17  -0.21
  15   6    -0.13   0.04   0.11    -0.11   0.02   0.09     0.15  -0.08  -0.12
  16   6    -0.09  -0.01   0.01    -0.07  -0.01   0.00     0.11   0.00  -0.01
  17   8    -0.01   0.02  -0.01    -0.02   0.02  -0.01     0.05  -0.03   0.25
  18   6     0.03   0.03  -0.02     0.03   0.03  -0.01    -0.02   0.17  -0.18
  19   6     0.03   0.05   0.01     0.03   0.06   0.02     0.07   0.14  -0.00
  20   1    -0.06  -0.25   0.09     0.07   0.29  -0.10     0.01   0.05   0.00
  21   1    -0.18   0.17   0.10     0.20  -0.20  -0.10     0.03  -0.03  -0.01
  22   1     0.20   0.04  -0.10    -0.23  -0.05   0.13    -0.04  -0.01   0.03
  23   1    -0.04   0.08   0.01     0.09  -0.13  -0.01    -0.00  -0.01   0.02
  24   1     0.03   0.07   0.03    -0.08  -0.11  -0.00    -0.04  -0.01   0.03
  25   1    -0.01   0.05  -0.07    -0.01  -0.03   0.06    -0.00  -0.06   0.02
  26   1    -0.03  -0.05  -0.06    -0.01   0.01   0.06    -0.00  -0.04   0.02
  27   1     0.12   0.02   0.06    -0.04  -0.02   0.01    -0.02   0.07   0.02
  28   1     0.03   0.11  -0.12    -0.04  -0.03   0.06     0.04   0.03  -0.04
  29   1    -0.04  -0.07  -0.04    -0.02   0.00   0.04     0.04   0.04  -0.05
  30   1     0.20   0.14  -0.10     0.09   0.10  -0.08     0.10   0.05  -0.04
  31   1     0.19   0.00   0.12     0.10   0.01   0.04     0.07  -0.01   0.12
  32   1    -0.05   0.02   0.06    -0.04   0.01   0.05     0.07  -0.03  -0.09
  33   1    -0.05   0.04   0.01    -0.04   0.03   0.01     0.05  -0.07  -0.00
  34   1    -0.07   0.00   0.06    -0.05   0.00   0.03     0.08  -0.00  -0.04
  35   1     0.03   0.05  -0.03     0.02   0.03  -0.02    -0.02  -0.03   0.02
  36   1    -0.03  -0.09  -0.04    -0.02  -0.05  -0.03     0.03   0.06   0.03
  37   1     0.01   0.01  -0.00     0.01   0.01  -0.00    -0.08   0.14  -0.05
  38   1     0.01   0.01  -0.01     0.01   0.01  -0.00     0.02   0.02  -0.16
  39   1     0.01   0.00   0.03    -0.00   0.02   0.01     0.10  -0.04   0.19
  40   1     0.01   0.05   0.01     0.02   0.03   0.01    -0.01   0.24   0.01
  41   1     0.01   0.00  -0.02     0.01   0.03   0.01    -0.01  -0.09  -0.14
                     31                     32                     33
                        a                      a                      a 
 Frequencies --   312.4196               333.2427               371.6687
 Red. masses --    16.7902                21.0937                17.4107
 Frc consts  --     0.0000                 0.0000                 0.0000
 IR Inten    --     8.2491                15.7472                11.9996
 Raman Activ --     0.0000                 0.0000                 0.0000
 Depolar     --     0.0000                 0.0000                 0.0000
 Atom AN      X      Y      Z        X      Y      Z        X      Y      Z
   1   6    -0.03   0.02   0.07    -0.01   0.01   0.00    -0.09   0.06   0.17
   2   6    -0.12   0.02   0.10     0.00   0.06  -0.01     0.06   0.06   0.09
   3   8    -0.19   0.13  -0.06    -0.08  -0.20  -0.00    -0.16  -0.17  -0.14
   4  15    -0.13   0.23  -0.03     0.20  -0.08   0.02     0.16  -0.02  -0.25
   5  16     0.15   0.13  -0.12    -0.07   0.05  -0.05     0.08   0.22  -0.06
   6   8    -0.11  -0.36  -0.03    -0.46  -0.05  -0.23     0.14  -0.14  -0.09
   7   6     0.01  -0.33   0.04     0.03  -0.16  -0.01    -0.07   0.06   0.14
   8   6     0.11   0.16  -0.12     0.10   0.10  -0.10    -0.15  -0.08   0.20
   9  16     0.18  -0.21  -0.00     0.13   0.33   0.45     0.00  -0.08  -0.03
  10   6     0.12  -0.09   0.14    -0.06   0.07  -0.14    -0.02  -0.03   0.04
  11  16     0.09   0.26   0.07     0.13  -0.21  -0.09     0.11   0.18   0.06
  12  15     0.01   0.11  -0.06    -0.03  -0.05  -0.00     0.10  -0.19  -0.10
  13  16    -0.04  -0.05  -0.05    -0.01  -0.00  -0.03    -0.11   0.01  -0.12
  14   8     0.01  -0.07   0.09     0.01  -0.05   0.03     0.04  -0.29  -0.02
  15   6    -0.06   0.04   0.05    -0.03  -0.00   0.02    -0.04   0.01   0.07
  16   6    -0.04  -0.00   0.01    -0.02  -0.00   0.00    -0.01   0.01   0.00
  17   8    -0.02   0.01  -0.13    -0.05   0.00   0.04    -0.27  -0.02   0.23
  18   6    -0.01  -0.10   0.10     0.03   0.05  -0.03     0.06   0.13  -0.07
  19   6    -0.05  -0.11  -0.01     0.03   0.08   0.01     0.08   0.19   0.03
  20   1     0.01   0.07   0.02    -0.02  -0.07   0.02    -0.08  -0.02   0.00
  21   1     0.03  -0.04  -0.00    -0.05   0.05   0.03    -0.05   0.04   0.11
  22   1    -0.06  -0.01   0.04     0.05   0.01  -0.04    -0.03   0.03   0.07
  23   1    -0.02  -0.01   0.04    -0.04   0.05   0.00    -0.02   0.05   0.04
  24   1    -0.06   0.00   0.05     0.05   0.04  -0.02     0.05   0.04   0.02
  25   1    -0.00  -0.13   0.04     0.02  -0.13   0.04    -0.03   0.01   0.05
  26   1     0.01  -0.07   0.05     0.07   0.03   0.01    -0.04   0.01   0.05
  27   1    -0.07   0.14   0.02    -0.07   0.09  -0.03    -0.00  -0.07   0.02
  28   1     0.08   0.03  -0.07     0.06  -0.02  -0.02    -0.07  -0.03   0.09
  29   1     0.12   0.10  -0.10     0.11   0.10  -0.07    -0.08  -0.05   0.09
  30   1     0.04  -0.00   0.03    -0.05  -0.06  -0.01    -0.03  -0.02   0.03
  31   1     0.05  -0.04   0.04    -0.05   0.05  -0.09    -0.01  -0.02  -0.03
  32   1    -0.03   0.01   0.04    -0.02  -0.00   0.02    -0.05   0.01   0.09
  33   1    -0.02   0.03   0.00    -0.01   0.01   0.00     0.00   0.06  -0.02
  34   1    -0.03  -0.00   0.02    -0.01   0.00   0.01    -0.02   0.01   0.03
  35   1     0.01   0.01  -0.01     0.00   0.01  -0.01     0.03   0.03  -0.02
  36   1    -0.01  -0.03  -0.01    -0.01  -0.01  -0.01    -0.01  -0.04  -0.03
  37   1     0.04  -0.08   0.03    -0.00   0.03  -0.01    -0.01   0.09  -0.02
  38   1    -0.02  -0.01   0.09     0.01   0.01  -0.02     0.03   0.03  -0.07
  39   1    -0.05   0.01  -0.11    -0.00   0.02   0.02    -0.01   0.04   0.06
  40   1    -0.00  -0.14  -0.01     0.02   0.04   0.00     0.05   0.11   0.01
  41   1    -0.00   0.03   0.07     0.01   0.02  -0.00     0.03   0.06  -0.00
                     34                     35                     36
                        a                      a                      a 
 Frequencies --   372.6639               412.0479               423.6744
 Red. masses --    17.8070                14.4227                20.5480
 Frc consts  --     0.0000                 0.0000                 0.0000
 IR Inten    --     3.8167                24.0527                74.4789
 Raman Activ --     0.0000                 0.0000                 0.0000
 Depolar     --     0.0000                 0.0000                 0.0000
 Atom AN      X      Y      Z        X      Y      Z        X      Y      Z
   1   6     0.09  -0.06  -0.17     0.01  -0.01  -0.02     0.04  -0.02  -0.09
   2   6    -0.07  -0.06  -0.09    -0.02   0.01  -0.01    -0.09   0.03  -0.03
   3   8     0.15   0.20   0.14    -0.01  -0.04   0.04    -0.04  -0.18   0.15
   4  15    -0.19   0.03   0.24     0.09   0.01   0.09     0.33   0.01   0.28
   5  16    -0.08  -0.24   0.06     0.02   0.05  -0.02     0.07   0.22  -0.08
   6   8    -0.07   0.13   0.11    -0.02   0.01   0.02    -0.09   0.02   0.05
   7   6     0.07  -0.04  -0.14     0.00  -0.02  -0.01    -0.00  -0.07  -0.00
   8   6     0.14   0.07  -0.19     0.01   0.01  -0.01     0.03   0.02  -0.04
   9  16     0.06  -0.03  -0.06    -0.08  -0.03  -0.07    -0.30  -0.11  -0.22
  10   6    -0.06  -0.01   0.03    -0.03  -0.03   0.02    -0.02  -0.04  -0.02
  11  16     0.13   0.20   0.07    -0.23  -0.11   0.01    -0.06  -0.04   0.04
  12  15     0.09  -0.20  -0.09     0.20   0.07  -0.07     0.15   0.05  -0.12
  13  16    -0.11   0.01  -0.12     0.05  -0.03   0.07    -0.06   0.01  -0.13
  14   8     0.02  -0.29  -0.02     0.47   0.05   0.26     0.04  -0.17   0.05
  15   6    -0.04   0.01   0.07    -0.01   0.10  -0.32    -0.04   0.02   0.05
  16   6     0.00   0.01  -0.00    -0.33  -0.08   0.08    -0.02   0.01   0.01
  17   8    -0.27  -0.02   0.23    -0.26  -0.03  -0.09     0.27   0.15   0.18
  18   6     0.06   0.13  -0.07     0.10  -0.05  -0.04    -0.18   0.22   0.12
  19   6     0.08   0.19   0.02     0.06   0.13   0.03    -0.08  -0.17  -0.06
  20   1     0.08   0.02  -0.00     0.01  -0.01   0.01     0.04  -0.03   0.03
  21   1     0.06  -0.05  -0.11     0.00   0.00  -0.01     0.00   0.00  -0.05
  22   1     0.02  -0.03  -0.07     0.01  -0.00  -0.02     0.04  -0.01  -0.07
  23   1     0.03  -0.06  -0.03    -0.02   0.01  -0.00    -0.07   0.04  -0.01
  24   1    -0.06  -0.04  -0.02     0.01   0.01  -0.01     0.03   0.03  -0.03
  25   1     0.02   0.00  -0.06     0.00  -0.00  -0.00     0.00  -0.02  -0.00
  26   1     0.03  -0.01  -0.06     0.00  -0.01  -0.00     0.00  -0.01  -0.00
  27   1     0.01   0.06  -0.01    -0.00   0.01   0.00    -0.01   0.03   0.01
  28   1     0.07   0.03  -0.09     0.01   0.00  -0.01     0.02   0.01  -0.02
  29   1     0.06   0.03  -0.08     0.01   0.01  -0.01     0.02   0.01  -0.03
  30   1    -0.05  -0.03   0.04     0.01   0.01  -0.01     0.00   0.05  -0.01
  31   1    -0.03  -0.00  -0.05     0.00  -0.00   0.04     0.02  -0.03   0.03
  32   1    -0.05   0.01   0.09    -0.02   0.02  -0.11    -0.03   0.01   0.06
  33   1     0.01   0.06  -0.02    -0.03  -0.01  -0.07    -0.01   0.04  -0.01
  34   1    -0.02   0.01   0.03    -0.21  -0.04   0.02    -0.02   0.00   0.01
  35   1     0.04   0.03  -0.02    -0.23  -0.06   0.05     0.01   0.01  -0.00
  36   1    -0.01  -0.04  -0.03     0.04  -0.05   0.18    -0.01  -0.02  -0.01
  37   1    -0.01   0.09  -0.02     0.06  -0.04  -0.01    -0.09   0.11   0.03
  38   1     0.03   0.03  -0.07     0.03   0.01   0.04    -0.04   0.02  -0.04
  39   1    -0.01   0.04   0.06    -0.07   0.04   0.02     0.14  -0.05  -0.05
  40   1     0.05   0.11   0.01     0.05   0.05   0.01    -0.08  -0.09  -0.02
  41   1     0.03   0.06  -0.00     0.05   0.10   0.04    -0.08  -0.15  -0.05
                     37                     38                     39
                        a                      a                      a 
 Frequencies --   425.7541               475.9925               481.1104
 Red. masses --    19.1759                19.8022                19.8799
 Frc consts  --     0.0000                 0.0000                 0.0000
 IR Inten    --   102.3345               181.2983                59.0187
 Raman Activ --     0.0000                 0.0000                 0.0000
 Depolar     --     0.0000                 0.0000                 0.0000
 Atom AN      X      Y      Z        X      Y      Z        X      Y      Z
   1   6     0.03  -0.01  -0.08     0.07  -0.03  -0.15     0.07  -0.03  -0.14
   2   6    -0.08   0.03  -0.03    -0.27   0.08   0.00    -0.29   0.08   0.01
   3   8    -0.03  -0.16   0.14     0.05  -0.02   0.40     0.06   0.04   0.41
   4  15     0.29   0.01   0.24    -0.02  -0.05  -0.21    -0.08  -0.05  -0.30
   5  16     0.07   0.20  -0.08     0.05   0.10  -0.01     0.02   0.03   0.02
   6   8    -0.08   0.01   0.05     0.11  -0.11  -0.07     0.15  -0.14  -0.10
   7   6    -0.01  -0.06   0.00    -0.02   0.00   0.04    -0.02   0.02   0.04
   8   6     0.02   0.02  -0.02    -0.04  -0.01   0.05    -0.04  -0.02   0.06
   9  16    -0.27  -0.10  -0.20     0.02   0.00   0.04     0.09   0.06   0.11
  10   6     0.02  -0.02  -0.02    -0.01   0.05   0.03    -0.01   0.01  -0.04
  11  16     0.07   0.09  -0.00     0.23   0.17   0.02    -0.21  -0.17  -0.03
  12  15    -0.13  -0.01   0.13    -0.36  -0.23   0.14     0.31   0.20  -0.14
  13  16     0.06  -0.01   0.15    -0.06   0.00  -0.24     0.06   0.00   0.22
  14   8    -0.23   0.12  -0.15     0.16   0.22   0.12    -0.13  -0.20  -0.10
  15   6     0.03  -0.05   0.09     0.05   0.02  -0.14    -0.04  -0.01   0.12
  16   6     0.14   0.02  -0.03    -0.06  -0.02   0.01     0.05   0.02  -0.01
  17   8    -0.26  -0.15  -0.21     0.16  -0.08   0.13    -0.13   0.07  -0.12
  18   6     0.17  -0.23  -0.12    -0.00  -0.03  -0.03     0.00   0.03   0.03
  19   6     0.08   0.16   0.05    -0.01  -0.01  -0.01     0.00   0.01   0.01
  20   1     0.04  -0.03   0.02     0.11  -0.01   0.08     0.12  -0.01   0.09
  21   1     0.00   0.00  -0.04     0.03  -0.03  -0.13     0.04  -0.03  -0.13
  22   1     0.04  -0.01  -0.06     0.07  -0.03  -0.13     0.07  -0.03  -0.14
  23   1    -0.06   0.04  -0.01    -0.10   0.05  -0.02    -0.10   0.04  -0.02
  24   1     0.03   0.03  -0.03    -0.01   0.04  -0.03    -0.03   0.04  -0.02
  25   1     0.00  -0.01  -0.00    -0.01   0.00   0.02    -0.01   0.00   0.02
  26   1     0.00  -0.01  -0.00    -0.02  -0.01   0.02    -0.02  -0.01   0.02
  27   1    -0.01   0.02   0.01     0.00  -0.02   0.00     0.00  -0.03  -0.00
  28   1     0.02   0.01  -0.02    -0.02  -0.00   0.02    -0.02  -0.01   0.03
  29   1     0.02   0.01  -0.02    -0.02  -0.01   0.02    -0.03  -0.01   0.03
  30   1     0.01   0.05  -0.01    -0.03  -0.02   0.03     0.01  -0.01  -0.03
  31   1     0.03  -0.03   0.02    -0.01   0.00  -0.05    -0.01   0.02   0.02
  32   1     0.03  -0.02  -0.00     0.03  -0.01  -0.10    -0.03   0.01   0.09
  33   1     0.02  -0.03   0.03    -0.01  -0.06   0.00     0.01   0.06  -0.00
  34   1     0.10   0.01  -0.02    -0.05  -0.01  -0.00     0.04   0.01   0.00
  35   1     0.08   0.01  -0.01    -0.08  -0.03   0.02     0.06   0.02  -0.01
  36   1    -0.01   0.03  -0.06     0.03  -0.00   0.07    -0.02   0.00  -0.06
  37   1     0.09  -0.12  -0.03    -0.02   0.03  -0.01     0.02  -0.02   0.01
  38   1     0.04  -0.02   0.05    -0.00  -0.03  -0.05    -0.00   0.03   0.04
  39   1    -0.13   0.05   0.05     0.00  -0.01   0.01     0.00   0.01  -0.01
  40   1     0.08   0.09   0.02    -0.00   0.01  -0.00     0.00  -0.01   0.00
  41   1     0.08   0.15   0.05    -0.00  -0.01  -0.01     0.00   0.01   0.01
                     40                     41                     42
                        a                      a                      a 
 Frequencies --   606.9173               636.9155               671.9460
 Red. masses --    24.2533                24.0665                18.4024
 Frc consts  --     0.0000                 0.0000                 0.0000
 IR Inten    --   147.6135               134.6194                 7.9318
 Raman Activ --     0.0000                 0.0000                 0.0000
 Depolar     --     0.0000                 0.0000                 0.0000
 Atom AN      X      Y      Z        X      Y      Z        X      Y      Z
   1   6    -0.00   0.00   0.00     0.01  -0.01  -0.05     0.00  -0.00  -0.00
   2   6    -0.02   0.01   0.01     0.23  -0.10  -0.09     0.01  -0.00  -0.01
   3   8    -0.01   0.04  -0.01     0.11  -0.36   0.13     0.01  -0.00   0.01
   4  15     0.04   0.02  -0.01    -0.54  -0.18  -0.02    -0.06  -0.06  -0.00
   5  16    -0.03  -0.05   0.02     0.26   0.41  -0.12     0.04   0.05  -0.02
   6   8     0.01  -0.02  -0.03    -0.04   0.13   0.23     0.01   0.02   0.02
   7   6     0.00   0.01  -0.00    -0.01  -0.07   0.01    -0.00  -0.01   0.00
   8   6    -0.00   0.00   0.00     0.02  -0.00  -0.04     0.00  -0.00  -0.00
   9  16    -0.00   0.03   0.01     0.09  -0.08   0.04    -0.10   0.32  -0.07
  10   6     0.05  -0.07  -0.08    -0.06   0.17  -0.03    -0.11  -0.30   0.69
  11  16    -0.11  -0.04   0.03    -0.02  -0.03  -0.01     0.16  -0.12  -0.41
  12  15     0.46   0.22   0.20     0.07   0.04   0.01     0.05   0.04   0.04
  13  16    -0.24  -0.06  -0.48    -0.02  -0.01  -0.04    -0.02  -0.01  -0.04
  14   8    -0.14   0.30   0.15    -0.02   0.03   0.01     0.00  -0.01  -0.02
  15   6    -0.11  -0.03   0.16    -0.02  -0.00   0.02    -0.02  -0.01   0.02
  16   6    -0.02  -0.00  -0.00    -0.00  -0.00  -0.00    -0.01   0.00  -0.00
  17   8     0.02  -0.21   0.22    -0.00  -0.02   0.03    -0.01  -0.00   0.01
  18   6     0.07  -0.20  -0.08     0.01  -0.02  -0.01     0.00  -0.01  -0.01
  19   6    -0.00  -0.00  -0.00    -0.00  -0.00  -0.00    -0.00  -0.00  -0.00
  20   1     0.01   0.00   0.01    -0.06  -0.01  -0.09    -0.00  -0.00  -0.00
  21   1     0.00  -0.00  -0.00    -0.02   0.02   0.02    -0.00   0.00   0.00
  22   1     0.00  -0.00  -0.00    -0.00   0.02   0.04     0.00   0.00   0.00
  23   1     0.00  -0.00   0.00     0.00   0.02  -0.02     0.00   0.00  -0.00
  24   1    -0.01   0.00   0.01     0.13  -0.01  -0.06     0.00  -0.00  -0.00
  25   1    -0.00  -0.00   0.00     0.00   0.01  -0.02     0.00   0.00  -0.01
  26   1    -0.00   0.00   0.00    -0.00  -0.03  -0.02    -0.00  -0.00  -0.00
  27   1     0.00  -0.00  -0.01    -0.02   0.04   0.03    -0.00   0.00   0.00
  28   1    -0.00  -0.00   0.01     0.03   0.01  -0.04     0.00   0.00  -0.00
  29   1    -0.00  -0.00   0.00     0.03   0.01  -0.04     0.00   0.00  -0.00
  30   1     0.02  -0.01  -0.03    -0.01   0.02  -0.01     0.00  -0.07   0.15
  31   1     0.01  -0.00   0.01    -0.01   0.04  -0.01    -0.04  -0.07   0.17
  32   1     0.01  -0.02  -0.02    -0.00  -0.00   0.00    -0.00  -0.00   0.01
  33   1    -0.06  -0.06   0.08    -0.01  -0.01   0.01    -0.00   0.00  -0.00
  34   1     0.04  -0.00  -0.02     0.00   0.00  -0.00     0.00   0.00   0.00
  35   1     0.05  -0.01   0.00     0.01  -0.00  -0.00     0.00   0.00  -0.00
  36   1    -0.06   0.02  -0.06    -0.01   0.00  -0.01    -0.01   0.00  -0.01
  37   1    -0.00   0.00  -0.02    -0.00   0.00  -0.00    -0.00  -0.00  -0.00
  38   1     0.02  -0.08  -0.06     0.00  -0.01  -0.01     0.00  -0.00  -0.00
  39   1    -0.09  -0.01   0.04    -0.01  -0.00   0.01    -0.00  -0.00   0.00
  40   1     0.02   0.05   0.00     0.00   0.01   0.00     0.00   0.00  -0.00
  41   1     0.04   0.05  -0.00     0.00   0.01   0.00     0.00   0.00  -0.00
                     43                     44                     45
                        a                      a                      a 
 Frequencies --   690.5421               724.2590               756.9528
 Red. masses --    16.7193                19.6219                22.7647
 Frc consts  --     0.0000                 0.0000                 0.0000
 IR Inten    --    30.9515               240.0844               286.0213
 Raman Activ --     0.0000                 0.0000                 0.0000
 Depolar     --     0.0000                 0.0000                 0.0000
 Atom AN      X      Y      Z        X      Y      Z        X      Y      Z
   1   6     0.01  -0.00  -0.01     0.00   0.00  -0.00     0.02  -0.03  -0.09
   2   6     0.05  -0.02  -0.02     0.00  -0.00  -0.00     0.20  -0.13  -0.05
   3   8     0.02  -0.05   0.04    -0.00  -0.00   0.00     0.05  -0.39   0.21
   4  15    -0.14  -0.05  -0.02     0.00   0.00  -0.00    -0.08   0.67   0.01
   5  16     0.05   0.07  -0.02    -0.00  -0.00  -0.00    -0.13  -0.22   0.06
   6   8     0.01   0.03   0.03    -0.01  -0.00   0.00     0.05  -0.15  -0.16
   7   6    -0.00  -0.01   0.00     0.01   0.00   0.01    -0.00   0.05  -0.02
   8   6     0.00  -0.00  -0.00     0.00   0.00  -0.00    -0.01   0.02   0.01
   9  16    -0.10   0.38  -0.03    -0.00   0.00   0.00    -0.02  -0.01  -0.01
  10   6     0.38  -0.66  -0.25     0.00  -0.01  -0.02     0.01  -0.02   0.03
  11  16    -0.09   0.11   0.24     0.00  -0.01   0.01     0.00  -0.01  -0.02
  12  15    -0.06  -0.05   0.00    -0.28   0.56  -0.10     0.01   0.03   0.18
  13  16     0.01   0.00   0.02     0.04   0.00   0.07    -0.03  -0.01  -0.07
  14   8     0.01  -0.03  -0.00     0.04  -0.30  -0.13    -0.01  -0.09  -0.05
  15   6     0.02   0.01  -0.03     0.10   0.02  -0.16     0.04   0.01  -0.07
  16   6     0.01   0.00   0.00     0.06   0.01  -0.00     0.03   0.00  -0.00
  17   8    -0.00   0.02  -0.03     0.11  -0.25   0.39    -0.02   0.02  -0.06
  18   6    -0.01   0.03   0.01     0.10  -0.25  -0.05    -0.01   0.03   0.01
  19   6     0.00   0.01  -0.00    -0.04  -0.06  -0.01     0.00   0.01   0.00
  20   1    -0.01  -0.00  -0.02    -0.00  -0.00  -0.00    -0.06  -0.01  -0.11
  21   1    -0.00   0.00   0.01    -0.00   0.00   0.00    -0.04   0.03  -0.02
  22   1    -0.00   0.00   0.01    -0.00  -0.00   0.00     0.01   0.04   0.06
  23   1     0.00   0.00  -0.00    -0.00   0.00   0.00    -0.05   0.06  -0.04
  24   1     0.02  -0.00  -0.01     0.00  -0.00  -0.00     0.20   0.03  -0.04
  25   1     0.00   0.00  -0.01    -0.02   0.01   0.01     0.02  -0.03   0.01
  26   1    -0.00  -0.00  -0.00    -0.00  -0.01  -0.01     0.01   0.04   0.03
  27   1    -0.00   0.01   0.01    -0.01  -0.00  -0.01     0.03  -0.04  -0.03
  28   1     0.00   0.00  -0.01    -0.01   0.00   0.01    -0.01  -0.02   0.03
  29   1     0.00   0.00  -0.00     0.00  -0.01  -0.02    -0.03  -0.00   0.05
  30   1     0.04  -0.18  -0.01     0.01   0.00  -0.01     0.01   0.02   0.01
  31   1     0.04  -0.12  -0.11     0.00  -0.00   0.01     0.00   0.00   0.02
  32   1     0.00   0.00  -0.00     0.00   0.02   0.05    -0.00   0.01   0.02
  33   1     0.01   0.01  -0.01     0.05   0.09  -0.10     0.01   0.03  -0.04
  34   1    -0.01  -0.00   0.00    -0.02   0.01   0.03    -0.01   0.00   0.01
  35   1    -0.01  -0.00   0.00    -0.06   0.01  -0.00    -0.02   0.00  -0.00
  36   1     0.01  -0.00   0.01     0.08  -0.02   0.07     0.03  -0.00   0.03
  37   1     0.00  -0.00   0.00    -0.06   0.06  -0.01     0.01  -0.01   0.00
  38   1    -0.00   0.01   0.01     0.05  -0.12  -0.16    -0.01   0.02   0.02
  39   1     0.01   0.00  -0.01    -0.15  -0.03   0.05     0.02   0.00  -0.01
  40   1    -0.00  -0.01  -0.00    -0.02   0.06   0.00     0.00  -0.01   0.00
  41   1    -0.00  -0.01   0.00     0.06   0.07  -0.03    -0.01  -0.01   0.00
                     46                     47                     48
                        a                      a                      a 
 Frequencies --   758.9856               778.8403               803.0825
 Red. masses --    22.5131                18.2597                 5.8007
 Frc consts  --     0.0000                 0.0000                 0.0000
 IR Inten    --   237.6952               146.2883                12.8341
 Raman Activ --     0.0000                 0.0000                 0.0000
 Depolar     --     0.0000                 0.0000                 0.0000
 Atom AN      X      Y      Z        X      Y      Z        X      Y      Z
   1   6     0.00  -0.01  -0.02     0.00  -0.01  -0.03     0.00  -0.00  -0.01
   2   6     0.05  -0.04  -0.01     0.05  -0.02  -0.02     0.02  -0.00  -0.01
   3   8     0.01  -0.10   0.06    -0.03  -0.04   0.06    -0.00  -0.00   0.03
   4  15    -0.02   0.18   0.01     0.24   0.16  -0.48    -0.01  -0.02  -0.01
   5  16    -0.03  -0.06   0.02    -0.10  -0.15   0.06    -0.00  -0.00  -0.00
   6   8     0.01  -0.05  -0.05    -0.06   0.39   0.42     0.00   0.00  -0.01
   7   6     0.01   0.02  -0.00    -0.08  -0.36   0.14    -0.00  -0.00  -0.00
   8   6     0.00   0.01  -0.00    -0.07  -0.06   0.08     0.00   0.00  -0.00
   9  16    -0.02   0.02  -0.01    -0.02  -0.00  -0.01     0.10   0.09   0.05
  10   6     0.01  -0.03   0.05     0.01  -0.01   0.01    -0.45  -0.24  -0.17
  11  16     0.03   0.02   0.01     0.00  -0.00  -0.00     0.11   0.08   0.07
  12  15    -0.04  -0.10  -0.66     0.00  -0.00  -0.01    -0.01  -0.04  -0.04
  13  16     0.12   0.04   0.25     0.00   0.00   0.00     0.00  -0.00   0.00
  14   8     0.03   0.33   0.17     0.00   0.01   0.00    -0.02   0.00   0.02
  15   6    -0.16  -0.04   0.25    -0.00  -0.00   0.00     0.01   0.02  -0.01
  16   6    -0.10  -0.01   0.00    -0.00  -0.00  -0.00     0.01   0.00   0.00
  17   8     0.05  -0.08   0.21     0.00  -0.00   0.00    -0.00   0.01   0.00
  18   6     0.04  -0.11  -0.02     0.00  -0.00   0.00     0.00  -0.00   0.00
  19   6    -0.01  -0.03  -0.01     0.00   0.00  -0.00    -0.00  -0.00   0.00
  20   1    -0.02  -0.00  -0.03    -0.01  -0.00  -0.02    -0.00  -0.00  -0.01
  21   1    -0.01   0.01  -0.00    -0.00   0.00  -0.00    -0.00   0.00   0.00
  22   1     0.00   0.01   0.02    -0.00   0.00   0.00    -0.00   0.00   0.00
  23   1    -0.01   0.02  -0.01    -0.00   0.01  -0.01     0.00   0.00  -0.00
  24   1     0.05   0.01  -0.01     0.03   0.01  -0.01     0.01   0.00  -0.00
  25   1    -0.00  -0.00   0.01    -0.02   0.01  -0.04     0.00  -0.00   0.00
  26   1     0.00   0.01   0.00    -0.01  -0.13  -0.05     0.00   0.00   0.00
  27   1     0.01  -0.01  -0.02    -0.15   0.17   0.19     0.00  -0.00  -0.00
  28   1    -0.01  -0.00   0.01     0.05   0.06  -0.09     0.00  -0.00  -0.00
  29   1    -0.01  -0.00   0.01     0.09   0.02  -0.13    -0.00   0.00   0.00
  30   1    -0.01  -0.02   0.02     0.00   0.00   0.00     0.24   0.35  -0.39
  31   1    -0.01  -0.01  -0.03     0.00  -0.00   0.00     0.17  -0.21   0.50
  32   1    -0.00  -0.03  -0.06     0.00  -0.00  -0.00    -0.01  -0.00  -0.03
  33   1    -0.05  -0.12   0.13    -0.00  -0.00   0.00     0.01  -0.02   0.01
  34   1     0.02  -0.01  -0.04     0.00   0.00  -0.00    -0.02  -0.01  -0.01
  35   1     0.08  -0.02   0.01     0.00   0.00  -0.00     0.01  -0.01   0.01
  36   1    -0.11   0.02  -0.10    -0.00   0.00  -0.00     0.01  -0.01   0.01
  37   1    -0.04   0.04  -0.00    -0.00   0.00  -0.00    -0.00   0.00   0.00
  38   1     0.03  -0.05  -0.09    -0.00  -0.00  -0.00     0.00   0.00  -0.00
  39   1    -0.07  -0.01   0.02     0.00  -0.00   0.00    -0.00   0.00  -0.00
  40   1    -0.01   0.03  -0.00     0.00   0.00  -0.00    -0.00  -0.00   0.00
  41   1     0.03   0.04  -0.02     0.00   0.00   0.00     0.00   0.00  -0.00
                     49                     50                     51
                        a                      a                      a 
 Frequencies --   814.3841               817.0945               822.1995
 Red. masses --     2.9841                 2.3053                 2.8493
 Frc consts  --     0.0000                 0.0000                 0.0000
 IR Inten    --     0.9327                 3.4651                 1.9805
 Raman Activ --     0.0000                 0.0000                 0.0000
 Depolar     --     0.0000                 0.0000                 0.0000
 Atom AN      X      Y      Z        X      Y      Z        X      Y      Z
   1   6     0.00   0.00  -0.00     0.00  -0.01  -0.00    -0.02  -0.11   0.05
   2   6     0.00   0.00  -0.00     0.01  -0.02   0.00    -0.09  -0.24   0.09
   3   8    -0.00  -0.00   0.00    -0.00  -0.00   0.00     0.03   0.16  -0.11
   4  15     0.00   0.00  -0.00    -0.01   0.02   0.03     0.02  -0.09   0.02
   5  16    -0.00  -0.00   0.00     0.00  -0.00  -0.00     0.01   0.02  -0.00
   6   8     0.01   0.01   0.00    -0.09  -0.07  -0.06    -0.00   0.03   0.02
   7   6    -0.03  -0.01  -0.02     0.24   0.04   0.14    -0.02  -0.01  -0.01
   8   6    -0.01  -0.00  -0.00     0.09   0.01   0.04    -0.00  -0.00  -0.00
   9  16    -0.00   0.00  -0.00     0.00   0.00   0.00     0.00  -0.00   0.00
  10   6    -0.00  -0.00   0.00    -0.00  -0.01   0.00     0.00   0.00  -0.00
  11  16     0.00   0.00   0.00     0.00  -0.00  -0.00    -0.00  -0.00   0.00
  12  15    -0.03   0.05  -0.07     0.01  -0.01   0.01    -0.00   0.01   0.01
  13  16     0.01   0.00   0.01    -0.00  -0.00  -0.01    -0.00  -0.00  -0.00
  14   8     0.00  -0.01   0.01     0.00  -0.01  -0.00    -0.01  -0.03  -0.01
  15   6     0.00  -0.01  -0.01     0.00   0.01   0.01     0.00   0.04   0.01
  16   6     0.00  -0.00  -0.00     0.00   0.01   0.00     0.01   0.02   0.01
  17   8     0.08  -0.02   0.19    -0.00   0.01   0.00     0.00  -0.00   0.01
  18   6    -0.11   0.04  -0.26    -0.02   0.02  -0.02    -0.00   0.00  -0.00
  19   6    -0.06   0.01  -0.10    -0.00   0.01  -0.01    -0.00   0.00  -0.00
  20   1    -0.00  -0.00   0.00    -0.00   0.01  -0.01     0.03   0.15  -0.03
  21   1     0.00  -0.00   0.01    -0.01   0.01  -0.02    -0.14   0.10  -0.39
  22   1    -0.00  -0.00  -0.01     0.01   0.01   0.02     0.20   0.22   0.32
  23   1     0.01  -0.00   0.01    -0.02   0.01  -0.02    -0.29   0.17  -0.32
  24   1    -0.01  -0.01  -0.01     0.02   0.01   0.01     0.33   0.25   0.25
  25   1     0.04  -0.04  -0.02    -0.34   0.35   0.13     0.02  -0.02  -0.01
  26   1     0.00   0.04   0.04    -0.02  -0.30  -0.38     0.00   0.02   0.02
  27   1     0.01   0.00   0.02    -0.09  -0.02  -0.13     0.00   0.01   0.01
  28   1     0.04  -0.02  -0.02    -0.35   0.18   0.20     0.02  -0.01  -0.02
  29   1    -0.00   0.02   0.04     0.05  -0.17  -0.36     0.00   0.01   0.02
  30   1     0.00   0.00  -0.00     0.00   0.00  -0.00    -0.00  -0.00   0.00
  31   1     0.00  -0.00   0.00     0.00  -0.00   0.01    -0.00   0.00  -0.00
  32   1     0.01   0.00   0.03    -0.01  -0.00  -0.02    -0.03  -0.01  -0.06
  33   1    -0.01   0.02  -0.02     0.01  -0.02   0.01     0.04  -0.05   0.04
  34   1     0.01   0.01   0.01    -0.02  -0.01  -0.02    -0.05  -0.01  -0.04
  35   1    -0.02   0.01  -0.01     0.02  -0.01   0.01     0.05  -0.03   0.02
  36   1     0.00   0.01   0.00     0.00  -0.01  -0.00     0.01  -0.02  -0.00
  37   1     0.46  -0.08  -0.04     0.06  -0.01  -0.00     0.01  -0.00  -0.00
  38   1    -0.27  -0.08   0.37    -0.04  -0.01   0.05    -0.01  -0.00   0.01
  39   1     0.02  -0.07   0.14     0.02  -0.00   0.01     0.00  -0.00   0.00
  40   1     0.43   0.08   0.01     0.05   0.01   0.00     0.01   0.00   0.00
  41   1    -0.27  -0.17   0.27    -0.04  -0.03   0.03    -0.01  -0.00   0.01
                     52                     53                     54
                        a                      a                      a 
 Frequencies --   823.3095               915.5117               916.9273
 Red. masses --     2.7629                13.0016                13.7614
 Frc consts  --     0.0000                 0.0000                 0.0000
 IR Inten    --     2.2389               416.7292               252.1649
 Raman Activ --     0.0000                 0.0000                 0.0000
 Depolar     --     0.0000                 0.0000                 0.0000
 Atom AN      X      Y      Z        X      Y      Z        X      Y      Z
   1   6    -0.00  -0.02   0.01    -0.01   0.01   0.04    -0.04   0.05   0.16
   2   6    -0.01  -0.04   0.01    -0.06   0.01   0.01    -0.20   0.03   0.04
   3   8     0.00   0.02  -0.01     0.07  -0.05  -0.05     0.26  -0.17  -0.20
   4  15     0.00  -0.01   0.00    -0.04   0.01   0.06    -0.14   0.06   0.20
   5  16     0.00   0.00  -0.00     0.00   0.00   0.00     0.00   0.00   0.00
   6   8    -0.01  -0.00  -0.00     0.09   0.09  -0.14     0.27   0.29  -0.45
   7   6     0.01   0.00   0.01    -0.04  -0.09   0.03    -0.11  -0.29   0.09
   8   6     0.00  -0.00   0.00    -0.03  -0.02   0.04    -0.09  -0.07   0.13
   9  16     0.01   0.00   0.00     0.01   0.00   0.00     0.00   0.00   0.01
  10   6    -0.02  -0.01  -0.01    -0.02  -0.01  -0.03    -0.00   0.00  -0.00
  11  16     0.00   0.01   0.01    -0.02   0.01   0.02     0.00  -0.00  -0.00
  12  15     0.01  -0.06  -0.05    -0.10   0.15   0.13     0.03  -0.05  -0.03
  13  16     0.01   0.00   0.01    -0.01  -0.00  -0.02     0.00   0.00   0.01
  14   8     0.04   0.18   0.05     0.48   0.04  -0.38    -0.13  -0.01   0.10
  15   6    -0.01  -0.26  -0.04    -0.14  -0.15   0.26     0.04   0.04  -0.07
  16   6    -0.03  -0.11  -0.04    -0.26  -0.03   0.02     0.07   0.01  -0.00
  17   8     0.00   0.02  -0.01    -0.01  -0.29  -0.06     0.00   0.13   0.02
  18   6     0.00  -0.02   0.00    -0.04   0.14   0.09     0.02  -0.06  -0.04
  19   6     0.00  -0.01  -0.00     0.06   0.11   0.01    -0.03  -0.05  -0.00
  20   1     0.00   0.02  -0.01     0.03   0.01   0.05     0.10   0.03   0.18
  21   1    -0.02   0.02  -0.06     0.01  -0.01  -0.01     0.02  -0.02  -0.04
  22   1     0.03   0.03   0.05     0.01  -0.00  -0.01     0.03  -0.01  -0.04
  23   1    -0.05   0.03  -0.05    -0.00  -0.01  -0.01    -0.01  -0.02  -0.03
  24   1     0.05   0.04   0.04    -0.01  -0.01  -0.02    -0.02  -0.02  -0.06
  25   1    -0.02   0.02   0.01    -0.00  -0.01  -0.01    -0.01  -0.02  -0.02
  26   1    -0.00  -0.02  -0.02     0.02  -0.00  -0.02     0.06  -0.02  -0.08
  27   1    -0.00  -0.00  -0.01    -0.04   0.04   0.05    -0.14   0.13   0.16
  28   1    -0.02   0.01   0.01     0.01   0.01  -0.01     0.01   0.04  -0.04
  29   1     0.00  -0.01  -0.02     0.02   0.00  -0.02     0.05   0.01  -0.08
  30   1     0.01   0.02  -0.02     0.01   0.02  -0.02     0.00  -0.00  -0.00
  31   1     0.01  -0.01   0.02     0.01  -0.02   0.02    -0.00   0.00   0.00
  32   1     0.22   0.07   0.42     0.05  -0.03   0.02    -0.01   0.01  -0.00
  33   1    -0.25   0.31  -0.24     0.11  -0.01   0.04    -0.03   0.00  -0.01
  34   1     0.32   0.09   0.28     0.08   0.00  -0.04    -0.02  -0.00   0.01
  35   1    -0.32   0.22  -0.16     0.09   0.02  -0.02    -0.02  -0.00   0.00
  36   1    -0.05   0.15   0.03    -0.26   0.05  -0.21     0.07  -0.01   0.05
  37   1    -0.02   0.00  -0.00    -0.00  -0.01   0.02    -0.00   0.00  -0.01
  38   1     0.01   0.01  -0.02    -0.05  -0.03   0.02     0.02   0.01  -0.01
  39   1    -0.01  -0.00   0.00     0.15   0.04  -0.05    -0.07  -0.02   0.02
  40   1    -0.02   0.00  -0.00    -0.00  -0.04  -0.00    -0.00   0.02   0.00
  41   1     0.02   0.01  -0.01    -0.04  -0.05  -0.00     0.02   0.02  -0.00
                     55                     56                     57
                        a                      a                      a 
 Frequencies --   933.9742               936.2128              1034.6073
 Red. masses --    11.8957                12.1626                 8.1804
 Frc consts  --     0.0000                 0.0000                 0.0000
 IR Inten    --   260.8584                43.6859               112.0459
 Raman Activ --     0.0000                 0.0000                 0.0000
 Depolar     --     0.0000                 0.0000                 0.0000
 Atom AN      X      Y      Z        X      Y      Z        X      Y      Z
   1   6     0.05  -0.05  -0.17     0.06  -0.06  -0.23     0.01  -0.01  -0.04
   2   6     0.17  -0.02  -0.01     0.22  -0.02  -0.01    -0.03   0.02   0.05
   3   8    -0.24   0.17   0.18    -0.31   0.22   0.22     0.03  -0.01  -0.02
   4  15     0.02  -0.08   0.07     0.01  -0.11   0.12     0.01   0.01  -0.02
   5  16     0.00   0.01   0.00     0.01   0.01   0.00    -0.01  -0.01   0.01
   6   8     0.11   0.06  -0.19     0.19   0.12  -0.30     0.08   0.23  -0.06
   7   6    -0.03  -0.09   0.02    -0.05  -0.15   0.04    -0.35  -0.18   0.41
   8   6    -0.04  -0.02   0.05    -0.06  -0.04   0.08     0.29   0.06  -0.37
   9  16     0.01  -0.01   0.01     0.01  -0.01   0.01     0.00  -0.00   0.00
  10   6     0.00   0.01  -0.01     0.00   0.02   0.01     0.00   0.00  -0.00
  11  16    -0.02  -0.01   0.01     0.01   0.00  -0.01    -0.00  -0.00   0.00
  12  15    -0.01  -0.06   0.12     0.01   0.05  -0.09     0.00  -0.00   0.00
  13  16    -0.00  -0.00  -0.01     0.00   0.00   0.01     0.00   0.00   0.00
  14   8     0.20  -0.04  -0.15    -0.15   0.02   0.12    -0.00  -0.00   0.00
  15   6    -0.03  -0.06   0.09     0.02   0.04  -0.07     0.01   0.00  -0.00
  16   6    -0.12  -0.01   0.01     0.09   0.01  -0.01    -0.00  -0.00   0.00
  17   8     0.02   0.50   0.06    -0.02  -0.35  -0.04    -0.01   0.04   0.01
  18   6     0.09  -0.19  -0.16    -0.07   0.13   0.11    -0.02  -0.05  -0.01
  19   6    -0.14  -0.21  -0.01     0.10   0.15   0.01     0.02   0.03   0.00
  20   1    -0.12  -0.03  -0.20    -0.15  -0.04  -0.27    -0.03  -0.01  -0.05
  21   1    -0.03   0.03   0.06    -0.03   0.04   0.07    -0.01   0.01   0.01
  22   1    -0.04   0.01   0.05    -0.05   0.01   0.07    -0.01   0.00   0.01
  23   1     0.01   0.02   0.05     0.01   0.03   0.06    -0.00   0.00   0.02
  24   1     0.01   0.02   0.07     0.01   0.02   0.10    -0.01   0.01   0.02
  25   1    -0.00  -0.00  -0.01    -0.01  -0.02  -0.01    -0.15  -0.03   0.17
  26   1     0.02  -0.01  -0.02     0.03  -0.01  -0.04    -0.13  -0.03   0.20
  27   1    -0.04   0.04   0.05    -0.07   0.07   0.09     0.24  -0.24  -0.34
  28   1     0.00   0.01  -0.01     0.01   0.02  -0.02    -0.03  -0.09   0.07
  29   1     0.02   0.00  -0.02     0.03   0.01  -0.04    -0.07  -0.09   0.03
  30   1    -0.01   0.01   0.00    -0.01  -0.00   0.01    -0.00   0.00   0.00
  31   1     0.01  -0.01  -0.01    -0.01   0.01  -0.01     0.00  -0.00  -0.00
  32   1     0.01  -0.01   0.01    -0.01   0.01  -0.01    -0.00   0.00   0.00
  33   1     0.07  -0.00   0.01    -0.05   0.00  -0.01     0.00   0.00  -0.00
  34   1     0.02  -0.00  -0.03    -0.02   0.00   0.02     0.00   0.00  -0.00
  35   1     0.05   0.00  -0.00    -0.04  -0.00   0.00     0.00   0.00  -0.00
  36   1    -0.11   0.02  -0.09     0.09  -0.02   0.07    -0.00   0.00  -0.00
  37   1     0.03   0.03  -0.03    -0.02  -0.02   0.02    -0.01  -0.01  -0.00
  38   1     0.09   0.06  -0.03    -0.06  -0.05   0.02    -0.01  -0.02  -0.00
  39   1    -0.29  -0.08   0.10     0.21   0.06  -0.07     0.03   0.01  -0.01
  40   1     0.01   0.07   0.01    -0.01  -0.05  -0.00    -0.00  -0.01  -0.00
  41   1     0.05   0.08   0.01    -0.03  -0.06  -0.01    -0.00  -0.01  -0.01
                     58                     59                     60
                        a                      a                      a 
 Frequencies --  1036.8872              1044.3856              1053.2218
 Red. masses --     8.7276                 9.3464                 9.3699
 Frc consts  --     0.0000                 0.0000                 0.0000
 IR Inten    --   157.0529               179.4085               159.1796
 Raman Activ --     0.0000                 0.0000                 0.0000
 Depolar     --     0.0000                 0.0000                 0.0000
 Atom AN      X      Y      Z        X      Y      Z        X      Y      Z
   1   6     0.00  -0.00  -0.00    -0.00   0.00   0.01     0.09  -0.12  -0.36
   2   6    -0.00   0.00   0.00     0.01  -0.01  -0.02    -0.28   0.18   0.50
   3   8     0.00  -0.00  -0.00    -0.01   0.00   0.00     0.33  -0.13  -0.18
   4  15    -0.00  -0.00  -0.00     0.00   0.00  -0.00    -0.01   0.02  -0.01
   5  16    -0.00   0.00   0.00    -0.00  -0.00  -0.00     0.00   0.00  -0.00
   6   8     0.00   0.01  -0.00    -0.01  -0.02   0.01    -0.05  -0.02   0.06
   7   6    -0.02  -0.01   0.02     0.02   0.02  -0.03     0.04   0.04  -0.05
   8   6     0.02   0.00  -0.02    -0.02  -0.00   0.02    -0.02  -0.01   0.03
   9  16     0.00   0.00   0.00     0.00  -0.00   0.00    -0.00   0.01  -0.00
  10   6    -0.00  -0.00  -0.00    -0.00   0.00  -0.01    -0.00  -0.00  -0.00
  11  16    -0.01   0.00   0.01    -0.01  -0.00   0.01     0.00   0.00   0.00
  12  15    -0.01   0.01   0.01    -0.01   0.00   0.02     0.00   0.00  -0.00
  13  16    -0.00   0.00  -0.00     0.00   0.00   0.00     0.00   0.00   0.00
  14   8     0.18   0.10  -0.19     0.15   0.03  -0.14     0.00   0.00  -0.00
  15   6    -0.49  -0.08   0.09    -0.31  -0.07   0.06    -0.01  -0.00   0.00
  16   6     0.37   0.02   0.01     0.22   0.02   0.01     0.00   0.00  -0.00
  17   8     0.02  -0.15  -0.08    -0.02   0.30   0.13    -0.00   0.01   0.00
  18   6     0.15   0.28   0.05    -0.22  -0.46  -0.09    -0.01  -0.01  -0.00
  19   6    -0.15  -0.18   0.00     0.21   0.27   0.00     0.01   0.01  -0.00
  20   1    -0.00  -0.00  -0.00     0.01   0.00   0.01    -0.21  -0.06  -0.37
  21   1    -0.00   0.00   0.00     0.00  -0.00  -0.00    -0.07   0.06   0.08
  22   1    -0.00  -0.00   0.00     0.00  -0.00  -0.00    -0.09   0.01   0.09
  23   1    -0.00   0.00   0.00     0.00  -0.00  -0.01    -0.02   0.02   0.20
  24   1    -0.00   0.00   0.00     0.00  -0.00  -0.01    -0.08   0.06   0.18
  25   1    -0.01  -0.00   0.01     0.01   0.00  -0.01     0.02   0.01  -0.02
  26   1    -0.01  -0.01   0.01     0.01   0.01  -0.01     0.01   0.00  -0.02
  27   1     0.01  -0.01  -0.02    -0.02   0.02   0.02    -0.02   0.02   0.03
  28   1    -0.00  -0.00   0.00     0.00   0.01  -0.01     0.01   0.01  -0.01
  29   1    -0.00  -0.01   0.00     0.00   0.01   0.00     0.01   0.01  -0.00
[...]
  33   1     0.00   0.00   0.00    -0.00  -0.00  -0.00     0.00   0.03   0.04
  34   1     0.00  -0.00   0.00    -0.00   0.00  -0.00    -0.00   0.00   0.00
  35   1    -0.00   0.00   0.00     0.00   0.00   0.00    -0.00  -0.00  -0.00
  36   1    -0.00  -0.00   0.00    -0.00  -0.00   0.00     0.00   0.00  -0.00
  37   1     0.00   0.00  -0.00     0.00  -0.00  -0.01    -0.00  -0.00   0.01
  38   1     0.00  -0.00   0.00    -0.03   0.02  -0.01     0.01  -0.01   0.00
  39   1    -0.00  -0.00  -0.00    -0.00   0.00  -0.00     0.00  -0.00   0.00
  40   1    -0.00   0.00   0.00    -0.00  -0.00   0.00     0.00  -0.00  -0.00
  41   1     0.00  -0.00   0.00     0.00  -0.00   0.00    -0.00   0.00  -0.00
                    103                    104                    105
                        a                      a                      a 
 Frequencies --  2970.3763              2976.9888              2977.0412
 Red. masses --     1.7157                 1.7289                 1.7167
 Frc consts  --     0.0000                 0.0000                 0.0000
 IR Inten    --    11.3733                14.8404                 9.7085
 Raman Activ --     0.0000                 0.0000                 0.0000
 Depolar     --     0.0000                 0.0000                 0.0000
 Atom AN      X      Y      Z        X      Y      Z        X      Y      Z
   1   6    -0.00   0.00   0.00     0.01  -0.02   0.01     0.00  -0.01   0.00
   2   6    -0.00   0.00  -0.00    -0.11   0.20  -0.10    -0.03   0.05  -0.03
   3   8    -0.00   0.00  -0.00    -0.01   0.01   0.00    -0.00   0.00   0.00
   4  15     0.00  -0.00  -0.00     0.00  -0.00  -0.00     0.00   0.00  -0.00
   5  16     0.00  -0.00   0.00     0.00  -0.00  -0.00     0.00  -0.00   0.00
   6   8    -0.00   0.00  -0.00    -0.00  -0.00   0.00     0.00   0.00  -0.00
   7   6    -0.00   0.00  -0.00     0.00  -0.00  -0.00    -0.00   0.01   0.00
   8   6     0.00   0.00  -0.00    -0.00   0.00  -0.00     0.00  -0.00   0.00
   9  16    -0.00  -0.00  -0.00     0.00   0.00   0.00     0.00  -0.00  -0.00
  10   6    -0.01  -0.01  -0.00     0.00   0.00   0.00    -0.00  -0.00  -0.00
  11  16    -0.00   0.00   0.00     0.00   0.00   0.00     0.00   0.00  -0.00
  12  15     0.00  -0.00  -0.00    -0.00  -0.00   0.00     0.00   0.00  -0.00
  13  16    -0.00   0.00   0.00     0.00  -0.00   0.00    -0.00   0.00  -0.00
  14   8    -0.01  -0.00   0.01    -0.00   0.00   0.00     0.00  -0.00  -0.00
  15   6     0.01   0.13   0.21     0.00  -0.00  -0.00    -0.00   0.00  -0.00
  16   6     0.01  -0.01  -0.02    -0.00   0.00   0.00    -0.00  -0.00  -0.00
  17   8     0.00  -0.00  -0.00    -0.00   0.00   0.00     0.00  -0.01  -0.00
  18   6     0.00  -0.00   0.00    -0.05   0.03  -0.02     0.19  -0.13   0.08
  19   6    -0.00   0.00   0.00     0.00  -0.00   0.00    -0.02   0.02  -0.01
  20   1     0.00  -0.00  -0.00    -0.01   0.00   0.01    -0.00   0.00   0.00
  21   1     0.00   0.00  -0.00     0.01   0.01   0.00     0.00   0.00   0.00
  22   1     0.00  -0.00   0.00    -0.04   0.09  -0.04    -0.01   0.03  -0.01
  23   1    -0.00  -0.00  -0.00    -0.00   0.04  -0.02    -0.00   0.01  -0.00
  24   1     0.00  -0.00   0.00     0.40  -0.76   0.36     0.10  -0.19   0.09
  25   1     0.00   0.00   0.00     0.01   0.00   0.01    -0.02  -0.01  -0.02
  26   1     0.00  -0.00   0.00    -0.01   0.01  -0.00     0.02  -0.02   0.01
  27   1    -0.00  -0.00   0.00    -0.00  -0.00   0.00     0.00   0.00  -0.00
  28   1    -0.00  -0.00  -0.00    -0.00   0.00  -0.00    -0.00  -0.00  -0.00
  29   1     0.00  -0.00   0.00     0.00  -0.00   0.00    -0.01   0.01  -0.00
  30   1     0.02  -0.00   0.02    -0.01   0.00  -0.01     0.01  -0.00   0.01
  31   1     0.02   0.02  -0.01    -0.01  -0.00   0.00     0.01   0.00  -0.00
  32   1    -0.00   0.06   0.02    -0.00   0.00  -0.00     0.00  -0.02   0.00
  33   1    -0.01  -0.52  -0.80     0.00   0.00   0.00    -0.00   0.00   0.00
  34   1    -0.00   0.01  -0.01    -0.00  -0.00   0.00    -0.00   0.00  -0.00
  35   1     0.00   0.05   0.09    -0.00  -0.00  -0.00    -0.00   0.00   0.00
  36   1    -0.01  -0.01   0.01     0.00   0.00  -0.00     0.00   0.00  -0.00
  37   1     0.00   0.00  -0.00    -0.01   0.00  -0.01     0.03  -0.02   0.05
  38   1    -0.00   0.00  -0.00     0.18  -0.13   0.08    -0.72   0.50  -0.32
  39   1    -0.00   0.00   0.00     0.00   0.00   0.00    -0.00  -0.01  -0.01
  40   1     0.00   0.00  -0.01     0.00  -0.00  -0.00    -0.00   0.00   0.01
  41   1     0.00  -0.00   0.00    -0.02   0.01  -0.01     0.08  -0.05   0.04
                    106                    107                    108
                        a                      a                      a 
 Frequencies --  3026.2389              3029.1399              3030.4406
 Red. masses --     1.7619                 1.7451                 1.7866
 Frc consts  --     0.0000                 0.0000                 0.0000
 IR Inten    --    52.6706                36.9595                40.3515
 Raman Activ --     0.0000                 0.0000                 0.0000
 Depolar     --     0.0000                 0.0000                 0.0000
 Atom AN      X      Y      Z        X      Y      Z        X      Y      Z
   1   6    -0.09   0.22  -0.10     0.00  -0.00   0.00     0.00   0.00  -0.00
   2   6    -0.01   0.03  -0.02     0.00  -0.00   0.00    -0.00   0.00  -0.00
   3   8    -0.00   0.00   0.00    -0.00  -0.00  -0.00    -0.00  -0.00  -0.00
   4  15     0.00  -0.00  -0.00     0.00   0.00   0.00     0.00   0.00   0.00
   5  16    -0.00   0.00   0.00     0.00  -0.00  -0.00    -0.00  -0.00  -0.00
   6   8     0.00   0.00  -0.00    -0.00  -0.00  -0.00    -0.00  -0.00  -0.00
   7   6     0.00   0.00   0.00    -0.00   0.00  -0.00    -0.00   0.00  -0.00
   8   6    -0.00  -0.00  -0.00    -0.00   0.00  -0.00    -0.00   0.00  -0.00
   9  16    -0.00  -0.00   0.00    -0.00   0.00  -0.00    -0.00  -0.00  -0.00
  10   6    -0.00  -0.00   0.00    -0.00  -0.00   0.00     0.00   0.00   0.00
  11  16     0.00   0.00  -0.00    -0.00  -0.00   0.00    -0.00  -0.00  -0.00
  12  15    -0.00  -0.00   0.00    -0.00  -0.00   0.00    -0.00  -0.00   0.00
  13  16    -0.00   0.00   0.00     0.00   0.00  -0.00     0.00  -0.00  -0.00
  14   8     0.00   0.00  -0.00    -0.00   0.00  -0.00     0.00  -0.00  -0.00
  15   6    -0.00   0.00  -0.00    -0.00   0.01   0.00    -0.00  -0.02  -0.03
  16   6    -0.00   0.00   0.00    -0.00   0.04   0.04     0.00  -0.17  -0.20
  17   8    -0.00   0.00  -0.00     0.00   0.00  -0.00     0.00   0.00  -0.00
  18   6     0.00  -0.00   0.00    -0.03   0.02  -0.01    -0.01   0.00  -0.00
  19   6    -0.00   0.00  -0.00    -0.19   0.14  -0.10    -0.04   0.03  -0.03
  20   1    -0.00   0.03  -0.01     0.00  -0.00  -0.00    -0.00   0.00   0.00
  21   1    -0.06  -0.02  -0.01     0.00   0.00   0.00    -0.00  -0.00   0.00
  22   1     0.37  -0.80   0.37    -0.01   0.01  -0.01     0.00  -0.00   0.00
  23   1    -0.01  -0.01  -0.00    -0.00  -0.00   0.00     0.00   0.00   0.00
  24   1     0.05  -0.09   0.04    -0.00   0.00  -0.00     0.00  -0.00   0.00
  25   1    -0.00  -0.00  -0.00     0.00   0.00   0.00     0.00   0.00   0.00
  26   1    -0.00   0.00   0.00     0.00  -0.00   0.00     0.00  -0.00   0.00
  27   1    -0.00  -0.00   0.00     0.00   0.00  -0.00    -0.00   0.00  -0.00
  28   1     0.00   0.00   0.00     0.00   0.00   0.00     0.00   0.00   0.00
  29   1     0.00  -0.00   0.00     0.01  -0.01   0.01     0.01  -0.01   0.00
  30   1    -0.00   0.00  -0.00    -0.00   0.00  -0.00    -0.00  -0.00  -0.00
  31   1     0.00   0.00   0.00     0.00   0.00  -0.00    -0.00  -0.00   0.00
  32   1     0.00  -0.00   0.00     0.00  -0.01   0.00    -0.00   0.02  -0.01
  33   1    -0.00   0.00   0.00    -0.00  -0.01  -0.01    -0.00   0.05   0.08
  34   1    -0.00   0.00   0.00     0.00  -0.03   0.01    -0.02   0.12  -0.06
  35   1    -0.00  -0.00  -0.01     0.00  -0.10  -0.16    -0.00   0.49   0.79
  36   1     0.00   0.00  -0.00     0.00   0.01   0.00     0.02  -0.02  -0.04
  37   1     0.00   0.00  -0.00    -0.00   0.00   0.01    -0.00   0.00   0.00
  38   1    -0.00   0.00  -0.00     0.08  -0.05   0.03     0.02  -0.01   0.01
  39   1    -0.00   0.00  -0.00    -0.02   0.02  -0.01    -0.00   0.01  -0.00
  40   1    -0.00   0.00   0.00    -0.03   0.02   0.02    -0.01   0.00   0.04
  41   1     0.01  -0.01   0.01     0.71  -0.51   0.34     0.15  -0.10   0.07
                    109                    110                    111
                        a                      a                      a 
 Frequencies --  3038.5917              3045.3444              3049.5866
 Red. masses --     1.7622                 1.6875                 1.6206
 Frc consts  --     0.0000                 0.0000                 0.0000
 IR Inten    --    30.8792                17.1992                16.5558
 Raman Activ --     0.0000                 0.0000                 0.0000
 Depolar     --     0.0000                 0.0000                 0.0000
 Atom AN      X      Y      Z        X      Y      Z        X      Y      Z
   1   6    -0.00   0.00   0.00     0.00   0.00   0.00     0.16   0.17   0.02
   2   6     0.00  -0.00   0.00     0.00   0.00   0.00     0.01   0.01   0.00
   3   8    -0.00   0.00   0.00     0.00  -0.00  -0.00    -0.00  -0.00  -0.00
   4  15    -0.00   0.00  -0.00    -0.00   0.00   0.00     0.00   0.00   0.00
   5  16    -0.00  -0.00   0.00     0.00   0.00   0.00    -0.00   0.00  -0.00
   6   8     0.00   0.00  -0.00     0.00   0.00  -0.00    -0.00   0.00   0.00
   7   6    -0.02   0.01  -0.01     0.00  -0.00   0.00     0.00   0.00   0.00
   8   6    -0.20   0.13  -0.11    -0.00  -0.01   0.00     0.00   0.00   0.00
   9  16    -0.00   0.00   0.00    -0.00  -0.00  -0.00    -0.00   0.00  -0.00
  10   6     0.00   0.00   0.00    -0.00  -0.00  -0.00    -0.00  -0.00   0.00
  11  16     0.00   0.00  -0.00     0.00  -0.00  -0.00     0.00  -0.00   0.00
  12  15     0.00  -0.00   0.00     0.00  -0.00  -0.00    -0.00  -0.00   0.00
  13  16     0.00   0.00   0.00    -0.00   0.00  -0.00    -0.00   0.00  -0.00
  14   8    -0.00   0.00   0.00    -0.00  -0.00   0.00    -0.00   0.00  -0.00
  15   6    -0.00   0.00  -0.00     0.00  -0.00   0.00     0.00  -0.00   0.00
  16   6     0.00   0.00   0.00    -0.00   0.00   0.01     0.00  -0.02   0.01
  17   8    -0.00  -0.00  -0.00    -0.00   0.00   0.00     0.00   0.00   0.00
  18   6     0.00  -0.00   0.00     0.00   0.00  -0.02    -0.00   0.00   0.00
  19   6     0.00  -0.00  -0.00     0.02   0.01  -0.25    -0.00  -0.00   0.00
  20   1     0.00  -0.00  -0.00    -0.00   0.00   0.00     0.12  -0.02  -0.08
  21   1    -0.00  -0.00   0.00    -0.01  -0.01   0.00    -0.67  -0.67   0.04
  22   1    -0.00   0.00  -0.00    -0.00   0.00  -0.00    -0.01   0.08  -0.03
  23   1    -0.00  -0.00   0.00    -0.00  -0.00   0.00    -0.03  -0.03   0.00
  24   1    -0.00   0.00  -0.00    -0.00   0.00  -0.00     0.00  -0.00   0.00
  25   1     0.01   0.01   0.01     0.00  -0.00  -0.00    -0.00  -0.00  -0.00
  26   1     0.05  -0.04   0.03    -0.00   0.00  -0.00     0.00  -0.00   0.00
  27   1    -0.01   0.05  -0.04     0.01   0.01  -0.01     0.00   0.00  -0.00
  28   1     0.05   0.08   0.06     0.01   0.01   0.01    -0.01  -0.01  -0.01
  29   1     0.66  -0.60   0.34    -0.01   0.01  -0.01     0.00   0.00   0.00
  30   1    -0.00   0.00  -0.00     0.00   0.00   0.00     0.00  -0.00   0.00
  31   1    -0.00  -0.00   0.00     0.00   0.00  -0.00     0.00   0.00  -0.00
  32   1     0.00  -0.00   0.00    -0.00   0.01  -0.00    -0.00   0.00  -0.00
  33   1    -0.00   0.00   0.00     0.00  -0.01  -0.01     0.00  -0.00  -0.00
  34   1     0.00  -0.01   0.00    -0.00   0.01  -0.00    -0.01   0.10  -0.02
  35   1     0.00  -0.00  -0.01     0.00  -0.02  -0.03     0.00  -0.01  -0.02
  36   1    -0.00  -0.00   0.00     0.00   0.00  -0.00    -0.01  -0.01   0.01
  37   1     0.00   0.00  -0.00     0.00  -0.00   0.05     0.00   0.00  -0.00
  38   1    -0.01   0.01  -0.00     0.01  -0.01   0.00     0.00  -0.00   0.00
  39   1     0.00  -0.00  -0.00    -0.00  -0.02  -0.04     0.00   0.00   0.00
  40   1    -0.00  -0.00   0.02    -0.05  -0.04   0.96     0.00   0.00  -0.02
  41   1    -0.02   0.01  -0.01    -0.03   0.02  -0.05     0.00  -0.00   0.00
                    112                    113                    114
                        a                      a                      a 
 Frequencies --  3050.0160              3053.8237              3055.4376
 Red. masses --     1.5961                 1.7827                 1.4935
 Frc consts  --     0.0000                 0.0000                 0.0000
 IR Inten    --    18.6867                15.1429                13.3801
 Raman Activ --     0.0000                 0.0000                 0.0000
 Depolar     --     0.0000                 0.0000                 0.0000
 Atom AN      X      Y      Z        X      Y      Z        X      Y      Z
   1   6     0.02   0.02   0.00    -0.00  -0.00   0.00     0.00   0.00  -0.00
   2   6     0.00   0.00   0.00    -0.00  -0.00   0.00     0.00   0.00  -0.00
   3   8    -0.00  -0.00  -0.00     0.00   0.00  -0.00     0.00  -0.00   0.00
   4  15     0.00   0.00   0.00     0.00  -0.00   0.00    -0.00  -0.00   0.00
   5  16     0.00   0.00  -0.00    -0.00   0.00  -0.00     0.00   0.00  -0.00
   6   8     0.00   0.00  -0.00    -0.00   0.00  -0.00    -0.00  -0.00  -0.00
   7   6     0.00  -0.00   0.00     0.00   0.00   0.00    -0.01  -0.00  -0.01
   8   6     0.00  -0.00   0.00    -0.00  -0.00   0.00    -0.08  -0.06  -0.19
   9  16    -0.00   0.00  -0.00    -0.00  -0.00   0.00    -0.00  -0.00   0.00
  10   6    -0.00  -0.00   0.00     0.00   0.00  -0.00    -0.00   0.00  -0.00
  11  16    -0.00   0.00   0.00     0.00   0.00   0.00    -0.00  -0.00   0.00
  12  15    -0.00   0.00  -0.00     0.00  -0.00  -0.00     0.00  -0.00   0.00
  13  16     0.00   0.00   0.00    -0.00   0.00  -0.00    -0.00   0.00  -0.00
  14   8     0.00  -0.00   0.00    -0.00   0.00  -0.00    -0.00   0.00  -0.00
  15   6    -0.00   0.02  -0.00    -0.00  -0.00   0.01    -0.00   0.00   0.00
  16   6    -0.05   0.21  -0.07    -0.19  -0.10   0.16    -0.00  -0.00   0.00
  17   8    -0.00   0.00   0.00     0.00   0.00  -0.00    -0.00   0.00  -0.00
  18   6     0.00  -0.00  -0.00     0.00  -0.00  -0.00     0.00  -0.00   0.00
  19   6     0.00  -0.00  -0.00     0.00  -0.01  -0.00     0.00   0.00   0.00
  20   1     0.02  -0.00  -0.01     0.01  -0.01  -0.01    -0.01   0.00   0.00
  21   1    -0.07  -0.07   0.00     0.00   0.00   0.00    -0.01  -0.01   0.00
  22   1    -0.00   0.01  -0.00    -0.00   0.00  -0.00    -0.00   0.00  -0.00
  23   1    -0.00  -0.00   0.00     0.00   0.00  -0.00    -0.00  -0.00   0.00
  24   1     0.00  -0.00   0.00    -0.00   0.00  -0.00    -0.00  -0.00  -0.00
  25   1    -0.00  -0.00  -0.00    -0.00  -0.00  -0.00     0.02   0.02   0.02
  26   1    -0.00   0.00  -0.00    -0.00   0.00  -0.00     0.01  -0.01   0.00
  27   1    -0.00  -0.00   0.00     0.00   0.01  -0.00    -0.18  -0.30   0.16
  28   1    -0.00  -0.00  -0.00    -0.01  -0.00  -0.01     0.53   0.45   0.56
  29   1    -0.01   0.01  -0.00     0.00  -0.00   0.00    -0.08   0.05  -0.06
  30   1    -0.00  -0.00  -0.00     0.00   0.00   0.00     0.00   0.00   0.00
  31   1     0.00   0.00  -0.00    -0.00  -0.00   0.00    -0.00  -0.00   0.00
  32   1     0.01  -0.05   0.01    -0.00   0.02  -0.00     0.00  -0.00   0.00
  33   1    -0.00  -0.00  -0.00    -0.00  -0.01  -0.01    -0.00  -0.00  -0.00
  34   1     0.12  -0.92   0.20    -0.03   0.08   0.00    -0.00  -0.00   0.00
  35   1    -0.00   0.11   0.12    -0.02  -0.03  -0.01    -0.00  -0.00  -0.00
  36   1     0.07   0.06  -0.07     0.72   0.29  -0.56     0.01   0.00  -0.01
  37   1     0.00   0.00   0.00     0.00  -0.00   0.00     0.00   0.00  -0.00
  38   1    -0.00   0.00  -0.00    -0.00   0.00  -0.00    -0.00   0.00  -0.00
  39   1    -0.00  -0.00  -0.00     0.00   0.02   0.01    -0.00  -0.00  -0.00
  40   1    -0.00  -0.00   0.01     0.00  -0.00  -0.01     0.00   0.00  -0.01
  41   1    -0.01   0.00  -0.00    -0.00   0.00  -0.00    -0.00   0.00  -0.00
                    115                    116                    117
                        a                      a                      a 
 Frequencies --  3058.4294              3060.0607              3063.5482
 Red. masses --     1.7851                 1.9114                 1.7365
 Frc consts  --     0.0000                 0.0000                 0.0000
 IR Inten    --    11.5413                12.3236                 6.8718
 Raman Activ --     0.0000                 0.0000                 0.0000
 Depolar     --     0.0000                 0.0000                 0.0000
 Atom AN      X      Y      Z        X      Y      Z        X      Y      Z
   1   6     0.22  -0.05  -0.15     0.00  -0.00  -0.00     0.00   0.00  -0.00
   2   6     0.01  -0.00  -0.00     0.00   0.00  -0.00     0.00   0.00  -0.00
   3   8    -0.00  -0.00  -0.00    -0.00   0.00   0.00    -0.00   0.00   0.00
   4  15     0.00   0.00  -0.00    -0.00  -0.00  -0.00    -0.00  -0.00  -0.00
   5  16    -0.00   0.00   0.00     0.00   0.00   0.00     0.00   0.00  -0.00
   6   8     0.00  -0.00  -0.00     0.00   0.00   0.00    -0.00   0.00   0.00
   7   6    -0.00   0.00   0.00    -0.00  -0.01  -0.00    -0.00  -0.00  -0.00
   8   6     0.00   0.00   0.00    -0.15  -0.24   0.06    -0.00  -0.01   0.00
   9  16    -0.00   0.00  -0.00     0.00  -0.00   0.00     0.00   0.00   0.00
  10   6    -0.00  -0.00   0.00    -0.00  -0.00  -0.00     0.00  -0.00   0.00
  11  16     0.00  -0.00   0.00    -0.00  -0.00   0.00     0.00   0.00  -0.00
  12  15    -0.00  -0.00   0.00     0.00  -0.00   0.00     0.00  -0.00   0.00
  13  16     0.00  -0.00  -0.00     0.00   0.00  -0.00     0.00  -0.00   0.00
  14   8     0.00   0.00  -0.00    -0.00  -0.00   0.00     0.00  -0.00  -0.00
  15   6    -0.00   0.00   0.00     0.00   0.00   0.00     0.00  -0.00   0.00
  16   6    -0.00  -0.00   0.00     0.00   0.00  -0.00    -0.00  -0.00   0.00
  17   8     0.00   0.00   0.00    -0.00   0.00  -0.00     0.00  -0.00  -0.00
  18   6    -0.00   0.00   0.00     0.00  -0.00   0.00    -0.00   0.01   0.00
  19   6    -0.00  -0.00  -0.00    -0.00  -0.01   0.00     0.01   0.24   0.10
  20   1    -0.73   0.30   0.55    -0.01   0.00   0.01    -0.01   0.00   0.00
  21   1    -0.06  -0.10  -0.01    -0.00  -0.00  -0.00    -0.00  -0.00   0.00
  22   1     0.03  -0.00  -0.02     0.00   0.00  -0.00     0.00   0.00  -0.00
  23   1    -0.01  -0.01   0.00    -0.00  -0.00   0.00    -0.00  -0.00   0.00
  24   1    -0.01   0.01  -0.01     0.00  -0.00   0.00     0.00  -0.00   0.00
  25   1    -0.00  -0.00  -0.00     0.01   0.01   0.02     0.00   0.00   0.00
  26   1     0.00  -0.00   0.00    -0.01   0.01  -0.00    -0.00   0.00  -0.00
  27   1    -0.00  -0.00   0.00     0.39   0.67  -0.43     0.01   0.02  -0.01
  28   1    -0.01  -0.01  -0.01     0.20   0.15   0.24     0.00   0.00   0.01
  29   1     0.00  -0.00   0.00    -0.08   0.02  -0.02    -0.00   0.00  -0.00
  30   1    -0.00  -0.00  -0.00     0.00   0.00   0.00    -0.00  -0.00  -0.00
  31   1     0.00   0.00  -0.00     0.00   0.00  -0.00     0.00  -0.00  -0.00
  32   1     0.00  -0.00  -0.00     0.00  -0.00   0.00    -0.00   0.00  -0.00
  33   1     0.00  -0.00  -0.00    -0.00  -0.00  -0.00     0.00   0.00   0.00
  34   1    -0.00  -0.00   0.00     0.00  -0.00   0.00    -0.00   0.00  -0.00
  35   1    -0.00  -0.00  -0.00     0.00   0.00   0.00    -0.00   0.00   0.01
  36   1     0.01   0.01  -0.01    -0.00  -0.00   0.00     0.01   0.01  -0.01
  37   1    -0.00   0.00  -0.00    -0.00   0.00  -0.00     0.00   0.00  -0.01
  38   1     0.00  -0.00   0.00    -0.00   0.00  -0.00     0.01  -0.01   0.01
  39   1     0.00   0.01   0.00     0.00   0.03   0.01    -0.05  -0.89  -0.36
  40   1     0.00  -0.00  -0.00     0.00  -0.00  -0.02     0.00   0.03  -0.01
  41   1     0.00  -0.00   0.00    -0.00  -0.00  -0.00     0.00   0.03   0.02
