
                                 *****************
                                 * O   R   C   A *
                                 *****************

                                            #,                                       
                                            ###                                      
                                            ####                                     
                                            #####                                    
                                            ######                                   
                                           ########,                                 
                                     ,,################,,,,,                         
                               ,,#################################,,                 
                          ,,##########################################,,             
                       ,#########################################, ''#####,          
                    ,#############################################,,   '####,        
                  ,##################################################,,,,####,       
                ,###########''''           ''''###############################       
              ,#####''   ,,,,##########,,,,          '''####'''          '####       
            ,##' ,,,,###########################,,,                        '##       
           ' ,,###''''                  '''############,,,                           
         ,,##''                                '''############,,,,        ,,,,,,###''
      ,#''                                            '''#######################'''  
     '                                                          ''''####''''         
             ,#######,   #######,   ,#######,      ##                                
            ,#'     '#,  ##    ##  ,#'     '#,    #''#        ,####,   ,####,        
            ##       ##  ##   ,#'  ##            #'  '#       #'       #'  '#        
            ##       ##  #######   ##           ,######,      #####,   #    #        
            '#,     ,#'  ##    ##  '#,     ,#' ,#      #,     #,   #   #,  ,#        
             '#######'   ##     ##  '#######'  #'      '#     '####' # '####'        



                #########################################################
                #                        -***-                          #
                #          Department of theory and spectroscopy        #
                #                                                       #
                #                      Frank Neese                      #
                #                                                       #
                #     Directorship, Architecture, Infrastructure        #
                #                    SHARK, DRIVERS                     #
                #        Core code/Algorithms in most modules           #
                #                                                       #
                #        Max Planck Institute fuer Kohlenforschung      #
                #                Kaiser Wilhelm Platz 1                 #
                #                 D-45470 Muelheim/Ruhr                 #
                #                      Germany                          #
                #                                                       #
                #                  All rights reserved                  #
                #                        -***-                          #
                #########################################################


                         Program Version 6.0.1  -  RELEASE   -


 With contributions from (in alphabetic order):
[Max-Planck-Institut fuer Kohlenforschung]                               
  Daniel Aravena         : Magnetic Suceptibility                        
  Michael Atanasov       : Ab Initio Ligand Field Theory (pilot matlab implementation)
  Alexander A. Auer      : GIAO ZORA, VPT2 properties, NMR spectrum      
  Ute Becker             : All parallelization in ORCA, NUMFREQ, NUMCALC 
  Giovanni Bistoni       : ED, misc. LED, open-shell LED, HFLD           
  Martin Brehm           : Molecular dynamics                            
  Dmytro Bykov           : pre 5.0 version of the SCF Hessian            
  Marcos Casanova-Páez   : Triplet and SCS-CIS(D). UHF-(DLPNO)-IP/EA/STEOM-CCSD. UHF-CVS-IP/STEOM-CCSD   
  Vijay G. Chilkuri      : MRCI spin determinant printing, contributions to CSF-ICE 
  Pauline Colinet        : FMM embedding                                 
  Dipayan Datta          : RHF DLPNO-CCSD density                        
  Achintya Kumar Dutta   : EOM-CC, STEOM-CC                              
  Nicolas Foglia         : Exact transition moments, OPA infrastructure, MCD improvements    
  Dmitry Ganyushin       : Spin-Orbit,Spin-Spin,Magnetic field MRCI      
  Miquel Garcia-Rates    : C-PCM and meta-GGA Hessian, CCSD/C-PCM, Gaussian charge scheme 
  Tiago L. C. Gouveia    : GS-ROHF, GS-ROCIS                             
  Yang Guo               : DLPNO-NEVPT2, F12-NEVPT2, CIM, IAO-localization        
  Andreas Hansen         : Spin unrestricted coupled pair/coupled cluster methods 
  Ingolf Harden          : AUTO-CI MPn and infrastructure                
  Benjamin Helmich-Paris : MC-RPA, TRAH-(SCF,CASSCF), AVAS, COSX integrals, SCF dyn. polar. 
  Lee Huntington         : MR-EOM, pCC                                   
  Robert Izsak           : Overlap fitted RIJCOSX, COSX-SCS-MP3, EOM     
  Riya Kayal             : Wick's Theorem for AUTO-CI, AUTO-CI UHF-CCSDT 
  Emily Kempfer          : AUTO-CI, RHF CISDT and CCSDT                  
  Christian Kollmar      : KDIIS, OOCD, Brueckner-CCSD(T), CCSD density, CASPT2, CASPT2-K, improved NEVPT2 
  Axel Koslowski         : Symmetry handling                             
  Simone Kossmann        : meta-GGA functionals, TD-DFT gradient, OOMP2, (MP2 Hessian; deprecated post 5.0) 
  Lucas Lang             : DCDCAS                                        
  Marvin Lechner         : AUTO-CI (C++ implementation), FIC-MRCC        
  Spencer Leger          : CASSCF response                               
  Dagmar Lenk            : GEPOL surface, SMD, ORCA-2-JSON               
  Dimitrios Liakos       : Extrapolation schemes; Compound Job, initial MDCI parallelization 
  Dimitrios Manganas     : Further ROCIS development; embedding schemes. LFT, Crystal Embedding 
  Dimitrios Pantazis     : SARC Basis sets                               
  Anastasios Papadopoulos: AUTO-CI, single reference methods and gradients 
  Taras Petrenko         : pre 6.0 DFT Hessian and TD-DFT gradient, (ASA, deprecated), ECA, 1-Electron XAS/XES, NRVS 
  Peter Pinski           : DLPNO-MP2, DLPNO-MP2 Gradient                 
  Christoph Reimann      : Effective Core Potentials                     
  Marius Retegan         : Local ZFS, SOC                                
  Christoph Riplinger    : Optimizer, TS searches, QM/MM, DLPNO-CCSD(T), (RO)-DLPNO pert. Triples 
  Michael Roemelt        : Original ROCIS implementation                 
  Masaaki Saitow         : Open-shell DLPNO-CCSD energy and density      
  Barbara Sandhoefer     : DKH picture change effects                    
  Kantharuban Sivalingam : CASSCF convergence/infrastructure, NEVPT2 and variants, FIC-MRCI 
  Bernardo de Souza      : ESD, SOC TD-DFT                               
  Georgi L. Stoychev     : AutoAux, RI-MP2 NMR, DLPNO-MP2 response, X2C  
  Van Anh Tran           : RI-MP2 g-tensors                              
  Willem Van den Heuvel  : Paramagnetic NMR                              
  Zikuan Wang            : NOTCH, Electric field optimization            
  Frank Wennmohs         : Technical directorship and infrastructure     
  Hang Xu                : AUTO-CI-Response properties                   
                                                                         
[FACCTs GmbH]                                                            
  Markus Bursch, Miquel Garcia-Rates, Christoph Riplinger, Bernardo de Souza, Georgi L. Stoychev 
                                                                 
  APM, Basis sets (HGBS, AHGBS, def-TZVP (Ac-Lr), def2-XVPD (La-Lu)), CI-OPT, improved COSX, DLPNO-Multilevel,           
  DOCKER, DRACO, updates on ESD, GOAT, IRC, LR-CPCM, MBIS, meta-GGA TD-DFT gradient, ML-optimized integration grids, 
  MM, NACMEs, nearIR, NEB, NEB-TS, NL-DFT gradient (VV10), 2- and 3-layer-ONIOM, interface openCOSMO-RS, QMMM,   
  Crystal-QMMM, SF, symmetry and pop. for TD-DFT, r2SCAN hybrids, SOLVATOR                                   
                                                                         
[Other institutions]                                                     
  V. Asgeirsson          : NEB                                           
  Christoph Bannwarth    : sTDA-DFT, sTD-DFT, PBEh-3c, B97-3c, D3        
  Sebastian Ehlert       : rSCAN, r2SCAN, r2SCAN-3c, D4, dhf basis sets  
  Marvin Friede          : D4 for Fr, Ra, Ac-Lr                          
  Lars Goerigk           : TD-DFT with DH, B97 family of functionals     
  Stefan Grimme          : VdW corrections, initial TS optimization, DFT functionals, gCP, sTDA/sTD-DF 
  Waldemar Hujo          : DFT-NL                                        
  H. Jonsson             : NEB                                           
  Holger Kruse           : gCP                                           
  Marcel Mueller         : wB97X-3c, vDZP basis set                      
  Hagen Neugebauer       : wr2SCAN                                       
  Tobias Risthaus        : range-separated hybrid DFT                    
  Lukas Wittmann         : regularized MP2, r2SCAN double-hybrids, wr2SCAN        
                                                                         
We gratefully acknowledge several colleagues who have allowed us to      
interface, adapt or use parts of their codes:                            
  Ed Valeev, F. Pavosevic, A. Kumar             : LibInt (2-el integral package), F12 methods 
  Garnet Chan, S. Sharma, J. Yang, R. Olivares  : DMRG                   
  Ulf Ekstrom                                   : XCFun DFT Library      
  Mihaly Kallay                                 : mrcc  (arbitrary order and MRCC methods)
  Frank Weinhold                                : gennbo (NPA and NBO analysis)           
  Simon Mueller                                 : openCOSMO-RS                            
  Christopher J. Cramer and Donald G. Truhlar   : smd solvation model                     
  S Lehtola, MJT Oliveira, MAL Marques          : LibXC Library                           
  Liviu Ungur et al                             : ANISO software                          


 Your calculation uses the libint2 library for the computation of 2-el integrals
 For citations please refer to: http://libint.valeyev.net

 Your ORCA version has been built with support for libXC version: 6.2.2
 For citations please refer to: https://libxc.gitlab.io

 This ORCA versions uses:
   CBLAS   interface :  Fast vector & matrix operations
   LAPACKE interface :  Fast linear algebra routines
   SCALAPACK package :  Parallel linear algebra routines
   Shared memory     :  Shared parallel matrices
   BLAS/LAPACK       :  OpenBLAS 0.3.27  USE64BITINT DYNAMIC_ARCH NO_AFFINITY Zen SINGLE_THREADED
        Core in use  :  Zen
   Copyright (c) 2011-2014, The OpenBLAS Project


Your calculation utilizes the geometrical counterpoise correction gCP
Please cite in your paper:
H.Kruse, S. Grimme J.Chem.Phys., 136, (2012), 154101 
   

Your calculation utilizes the atom-pairwise dispersion correction
based on EEQ partial charges (D4)


================================================================================

----- Orbital basis set information -----
Your calculation utilizes the basis: def2-SV(P)
   F. Weigend and R. Ahlrichs, Phys. Chem. Chem. Phys. 7, 3297 (2005).

----- AuxJ basis set information -----
Your calculation utilizes the auxiliary basis: def2/J
   F. Weigend, Phys. Chem. Chem. Phys. 8, 1057 (2006).

================================================================================
                                        WARNINGS
                       Please study these warnings very carefully!
================================================================================

WARNING: Old DensityContainer found on disk!
         Will remove this file - 
         If you want to keep old densities, please start your calculation with a different basename. 


================================================================================
                                       INPUT FILE
================================================================================
NAME = sp.inp
|  1> ! pbe def2-sv(p) def2/J RI DEFGRID1 loosescf d4 GCP(DFT/SV(P)) printgap
|  2> %output
|  3>     printlevel normal
|  4> end
|  5> * xyz 0 1
|  6> C 3.3932601008 -4.1110302325 -0.2897522544
|  7> C 1.9925220887 -3.6162524608 -0.6129684916
|  8> O 1.8170668537 -2.2471569328 -0.2021462497
|  9> C 2.2168773186 -1.2920589145 -1.0176808106
| 10> O 2.7204285483 -1.4723510305 -2.102878975
| 11> C 1.9101219182 0.0784801867 -0.4420052745
| 12> C 0.7433316789 0.6835753661 -1.226990296
| 13> H 1.0463535207 0.8562112717 -2.2635271626
| 14> C 0.2739273152 1.9836590756 -0.6012834493
| 15> O -0.8618519936 2.1316945718 -0.196022361
| 16> O 1.217675498 2.878653442 -0.5618570319
| 17> C 0.9480971875 4.1318959967 0.1077990413
| 18> C 1.2549186416 4.0128547907 1.591323205
| 19> S -0.6873181876 -0.434012226 -1.3369603338
| 20> P -1.5215166178 -0.2398405407 0.6300796353
| 21> S -0.5008442917 0.3924236823 2.1769095172
| 22> O -3.0075155313 0.3177718489 0.450436012
| 23> C -3.4641332579 1.6585996632 0.6245315644
| 24> O -1.8651139773 -1.7687979344 0.9167743298
| 25> C -2.6875392047 -2.5713421642 0.0555418167
| 26> H 4.1282811739 -3.5545580212 -0.8666023714
| 27> H 3.6004322345 -3.9814804716 0.7690970545
| 28> H 3.4681906312 -5.1631499796 -0.5437634514
| 29> H 1.2365063828 -4.1650995818 -0.0510880797
| 30> H 1.7950575855 -3.6822470148 -1.6868496098
| 31> H 2.7789693 0.7273296229 -0.555397607
| 32> H 1.6523226972 -0.027199792 0.6131884733
| 33> H 1.6075860601 4.847331013 -0.3827926432
| 34> H -0.0992662375 4.3973969316 -0.0552273045
| 35> H 0.6399118476 3.2365821615 2.0443219172
| 36> H 2.2997475382 3.7573313229 1.7415853612
| 37> H 1.0439331963 4.9588150809 2.0784066573
| 38> H -2.9013428626 2.1499376107 1.4179145769
| 39> H -4.5142319249 1.5738273133 0.8958096031
| 40> H -3.3452912841 2.2118790288 -0.3048800673
| 41> H -2.2715001018 -2.584813996 -0.9524602672
| 42> H -3.7013735812 -2.1758566078 0.0345121449
| 43> H -2.6704960922 -3.5669222466 0.4917338201
| 44> *
| 45> 
| 46>                          ****END OF INPUT****
================================================================================

                       ****************************
                       * Single Point Calculation *
                       ****************************

---------------------------------
CARTESIAN COORDINATES (ANGSTROEM)
---------------------------------
  C      3.393260   -4.111030   -0.289752
  C      1.992522   -3.616252   -0.612968
  O      1.817067   -2.247157   -0.202146
  C      2.216877   -1.292059   -1.017681
  O      2.720429   -1.472351   -2.102879
  C      1.910122    0.078480   -0.442005
  C      0.743332    0.683575   -1.226990
  H      1.046354    0.856211   -2.263527
  C      0.273927    1.983659   -0.601283
  O     -0.861852    2.131695   -0.196022
  O      1.217675    2.878653   -0.561857
  C      0.948097    4.131896    0.107799
  C      1.254919    4.012855    1.591323
  S     -0.687318   -0.434012   -1.336960
  P     -1.521517   -0.239841    0.630080
  S     -0.500844    0.392424    2.176910
  O     -3.007516    0.317772    0.450436
  C     -3.464133    1.658600    0.624532
  O     -1.865114   -1.768798    0.916774
  C     -2.687539   -2.571342    0.055542
  H      4.128281   -3.554558   -0.866602
  H      3.600432   -3.981480    0.769097
  H      3.468191   -5.163150   -0.543763
  H      1.236506   -4.165100   -0.051088
  H      1.795058   -3.682247   -1.686850
  H      2.778969    0.727330   -0.555398
  H      1.652323   -0.027200    0.613188
  H      1.607586    4.847331   -0.382793
  H     -0.099266    4.397397   -0.055227
  H      0.639912    3.236582    2.044322
  H      2.299748    3.757331    1.741585
  H      1.043933    4.958815    2.078407
  H     -2.901343    2.149938    1.417915
  H     -4.514232    1.573827    0.895810
  H     -3.345291    2.211879   -0.304880
  H     -2.271500   -2.584814   -0.952460
  H     -3.701374   -2.175857    0.034512
  H     -2.670496   -3.566922    0.491734

----------------------------
CARTESIAN COORDINATES (A.U.)
----------------------------
  NO LB      ZA    FRAG     MASS         X           Y           Z
   0 C     6.0000    0    12.011    6.412332   -7.768721   -0.547552
   1 C     6.0000    0    12.011    3.765321   -6.833727   -1.158343
   2 O     8.0000    0    15.999    3.433759   -4.246511   -0.382001
   3 C     6.0000    0    12.011    4.189291   -2.441637   -1.923138
   4 O     8.0000    0    15.999    5.140865   -2.782340   -3.973865
   5 C     6.0000    0    12.011    3.609607    0.148306   -0.835269
   6 C     6.0000    0    12.011    1.404693    1.291770   -2.318676
   7 H     1.0000    0     1.008    1.977322    1.618005   -4.277446
   8 C     6.0000    0    12.011    0.517648    3.748572   -1.136261
   9 O     8.0000    0    15.999   -1.628664    4.028319   -0.370429
  10 O     8.0000    0    15.999    2.301073    5.439867   -1.061756
  11 C     6.0000    0    12.011    1.791644    7.808152    0.203711
  12 C     6.0000    0    12.011    2.371453    7.583197    3.007165
  13 S    16.0000    0    32.060   -1.298843   -0.820164   -2.526489
  14 P    15.0000    0    30.974   -2.875250   -0.453233    1.190678
  15 S    16.0000    0    32.060   -0.946459    0.741573    4.113763
  16 O     8.0000    0    15.999   -5.683381    0.600502    0.851201
  17 C     6.0000    0    12.011   -6.546263    3.134299    1.180194
  18 O     8.0000    0    15.999   -3.524555   -3.342544    1.732452
  19 C     6.0000    0    12.011   -5.078713   -4.859132    0.104959
  20 H     1.0000    0     1.008    7.801321   -6.717141   -1.637641
  21 H     1.0000    0     1.008    6.803831   -7.523908    1.453383
  22 H     1.0000    0     1.008    6.553930   -9.756939   -1.027564
  23 H     1.0000    0     1.008    2.336658   -7.870898   -0.096542
  24 H     1.0000    0     1.008    3.392167   -6.958438   -3.187684
  25 H     1.0000    0     1.008    5.251491    1.374454   -1.049549
  26 H     1.0000    0     1.008    3.122437   -0.051400    1.158758
  27 H     1.0000    0     1.008    3.037897    9.160128   -0.723373
  28 H     1.0000    0     1.008   -0.187586    8.309876   -0.104364
  29 H     1.0000    0     1.008    1.209258    6.116254    3.863209
  30 H     1.0000    0     1.008    4.345893    7.100327    3.291119
  31 H     1.0000    0     1.008    1.972748    9.370802    3.927619
  32 H     1.0000    0     1.008   -5.482743    4.062793    2.679470
  33 H     1.0000    0     1.008   -8.530662    2.974103    1.692835
  34 H     1.0000    0     1.008   -6.321684    4.179846   -0.576140
  35 H     1.0000    0     1.008   -4.292513   -4.884591   -1.799889
  36 H     1.0000    0     1.008   -6.994582   -4.111773    0.065219
  37 H     1.0000    0     1.008   -5.046506   -6.740506    0.929242

--------------------------------
INTERNAL COORDINATES (ANGSTROEM)
--------------------------------
 C      0   0   0     0.000000000000     0.00000000     0.00000000
 C      1   0   0     1.520309428340     0.00000000     0.00000000
 O      2   1   0     1.440132639280   111.16134105     0.00000000
 C      3   2   1     1.318012614669   118.38776248    84.14210472
 O      4   3   2     1.209844677651   124.97918711     0.42348235
 C      4   3   2     1.517853295433   110.99812679   178.05555849
 C      6   4   3     1.530928189903   108.44802162   252.98839508
 H      7   6   4     1.093633425025   109.70633331   295.15686803
 C      7   6   4     1.517256460317   111.28508135   173.24325957
 O      9   7   6     1.214967364222   122.08472775   239.82862336
 O      9   7   6     1.301241711142   112.17680175    59.84348191
 C     11   9   7     1.446280962599   118.34902670   184.99400792
 C     12  11   9     1.519590128194   110.27419967    87.05597187
 S      7   6   4     1.818750800892   112.80796534    51.74077529
 P     14   7   6     2.145422080701   101.23332872    76.34036107
 S     15  14   7     1.958114585128   123.42354329   338.85295920
 O     15  14   7     1.597309043157   106.87058221   119.87563152
 C     17  15  14     1.427104844506   127.72947952   259.05517314
 O     15  14   7     1.593098774420    99.32288768   222.20510024
 C     19  15  14     1.436029922066   123.50124144   304.59344089
 H      1   2   3     1.087507865412   110.08543639   295.47868446
 H      1   2   3     1.086676259283   110.12135047    55.79455754
 H      1   2   3     1.084938816167   109.23591347   175.84217662
 H      2   1   3     1.090184620637   111.43937609   244.10838826
 H      2   1   3     1.093877583283   110.81786912   120.59905791
 H      6   4   3     1.090302336413   109.68556172   134.54571054
 H      6   4   3     1.091358117962   109.08713441    13.67341795
 H     12  11   9     1.089703187355   104.33854754   207.06755857
 H     12  11   9     1.092720677889   108.67019544   325.19182490
 H     13  12  11     1.089054812563   110.35892646   300.04737683
 H     13  12  11     1.086065551131   110.34951798    60.00930115
 H     13  12  11     1.084714717457   109.31704890   180.21921048
 H     18  17  15     1.089771816583   110.31505223   326.34289695
 H     18  17  15     1.087881122193   105.42968958   206.89358774
 H     18  17  15     1.088139445234   109.79051678    87.28646379
 H     20  19  15     1.090567845914   110.04443661    57.06185166
 H     20  19  15     1.088444401607   109.99723128   295.71969010
 H     20  19  15     1.087075725047   105.20080294   176.34702860

---------------------------
INTERNAL COORDINATES (A.U.)
---------------------------
 C      0   0   0     0.000000000000     0.00000000     0.00000000
 C      1   0   0     2.872968458381     0.00000000     0.00000000
 O      2   1   0     2.721456284760   111.16134105     0.00000000
 C      3   2   1     2.490682882778   118.38776248    84.14210472
 O      4   3   2     2.286275105343   124.97918711     0.42348235
 C      4   3   2     2.868327039838   110.99812679   178.05555849
 C      6   4   3     2.893035009616   108.44802162   252.98839508
 H      7   6   4     2.066667664199   109.70633331   295.15686803
 C      7   6   4     2.867199184923   111.28508135   173.24325957
 O      9   7   6     2.295955580031   122.08472775   239.82862336
 O      9   7   6     2.458990468093   112.17680175    59.84348191
 C     11   9   7     2.733074932016   118.34902670   184.99400792
 C     12  11   9     2.871609178096   110.27419967    87.05597187
 S      7   6   4     3.436940919536   112.80796534    51.74077529
 P     14   7   6     4.054260174191   101.23332872    76.34036107
 S     15  14   7     3.700300304729   123.42354329   338.85295920
 O     15  14   7     3.018476642802   106.87058221   119.87563152
 C     17  15  14     2.696837320508   127.72947952   259.05517314
 O     15  14   7     3.010520387940    99.32288768   222.20510024
 C     19  15  14     2.713703272822   123.50124144   304.59344089
 H      1   2   3     2.055092034114   110.08543639   295.47868446
 H      1   2   3     2.053520526279   110.12135047    55.79455754
 H      1   2   3     2.050237234616   109.23591347   175.84217662
 H      2   1   3     2.060150368418   111.43937609   244.10838826
 H      2   1   3     2.067129056440   110.81786912   120.59905791
 H      6   4   3     2.060372818995   109.68556172   134.54571054
 H      6   4   3     2.062367956981   109.08713441    13.67341795
 H     12  11   9     2.059240591362   104.33854754   207.06755857
 H     12  11   9     2.064942822082   108.67019544   325.19182490
 H     13  12  11     2.058015340573   110.35892646   300.04737683
 H     13  12  11     2.052366455123   110.34951798    60.00930115
 H     13  12  11     2.049813749428   109.31704890   180.21921048
 H     18  17  15     2.059370281808   110.31505223   326.34289695
 H     18  17  15     2.055797387207   105.42968958   206.89358774
 H     18  17  15     2.056285547010   109.79051678    87.28646379
 H     20  19  15     2.060874559237   110.04443661    57.06185166
 H     20  19  15     2.056861831038   109.99723128   295.71969010
 H     20  19  15     2.054275407172   105.20080294   176.34702860

---------------------
BASIS SET INFORMATION
---------------------
There are 5 groups of distinct atoms

 Group   1 Type C   : 7s4p1d contracted to 3s2p1d pattern {511/31/1}
 Group   2 Type O   : 7s4p1d contracted to 3s2p1d pattern {511/31/1}
 Group   3 Type H   : 4s contracted to 2s pattern {31}
 Group   4 Type S   : 10s7p1d contracted to 4s3p1d pattern {5311/511/1}
 Group   5 Type P   : 10s7p1d contracted to 4s3p1d pattern {5311/511/1}

Atom   0C    basis set group =>   1
Atom   1C    basis set group =>   1
Atom   2O    basis set group =>   2
Atom   3C    basis set group =>   1
Atom   4O    basis set group =>   2
Atom   5C    basis set group =>   1
Atom   6C    basis set group =>   1
Atom   7H    basis set group =>   3
Atom   8C    basis set group =>   1
Atom   9O    basis set group =>   2
Atom  10O    basis set group =>   2
Atom  11C    basis set group =>   1
Atom  12C    basis set group =>   1
Atom  13S    basis set group =>   4
Atom  14P    basis set group =>   5
Atom  15S    basis set group =>   4
Atom  16O    basis set group =>   2
Atom  17C    basis set group =>   1
Atom  18O    basis set group =>   2
Atom  19C    basis set group =>   1
Atom  20H    basis set group =>   3
Atom  21H    basis set group =>   3
Atom  22H    basis set group =>   3
Atom  23H    basis set group =>   3
Atom  24H    basis set group =>   3
Atom  25H    basis set group =>   3
Atom  26H    basis set group =>   3
Atom  27H    basis set group =>   3
Atom  28H    basis set group =>   3
Atom  29H    basis set group =>   3
Atom  30H    basis set group =>   3
Atom  31H    basis set group =>   3
Atom  32H    basis set group =>   3
Atom  33H    basis set group =>   3
Atom  34H    basis set group =>   3
Atom  35H    basis set group =>   3
Atom  36H    basis set group =>   3
Atom  37H    basis set group =>   3
---------------------------------
AUXILIARY/J BASIS SET INFORMATION
---------------------------------
There are 5 groups of distinct atoms

 Group   1 Type C   : 12s5p4d2f1g contracted to 6s4p3d1f1g pattern {711111/2111/211/2/1}
 Group   2 Type O   : 12s5p4d2f1g contracted to 6s4p3d1f1g pattern {711111/2111/211/2/1}
 Group   3 Type H   : 5s2p1d contracted to 3s1p1d pattern {311/2/1}
 Group   4 Type S   : 14s5p5d2f1g contracted to 8s4p3d1f1g pattern {71111111/2111/311/2/1}
 Group   5 Type P   : 14s5p5d2f1g contracted to 8s4p3d1f1g pattern {71111111/2111/311/2/1}

Atom   0C    basis set group =>   1
Atom   1C    basis set group =>   1
Atom   2O    basis set group =>   2
Atom   3C    basis set group =>   1
Atom   4O    basis set group =>   2
Atom   5C    basis set group =>   1
Atom   6C    basis set group =>   1
Atom   7H    basis set group =>   3
Atom   8C    basis set group =>   1
Atom   9O    basis set group =>   2
Atom  10O    basis set group =>   2
Atom  11C    basis set group =>   1
Atom  12C    basis set group =>   1
Atom  13S    basis set group =>   4
Atom  14P    basis set group =>   5
Atom  15S    basis set group =>   4
Atom  16O    basis set group =>   2
Atom  17C    basis set group =>   1
Atom  18O    basis set group =>   2
Atom  19C    basis set group =>   1
Atom  20H    basis set group =>   3
Atom  21H    basis set group =>   3
Atom  22H    basis set group =>   3
Atom  23H    basis set group =>   3
Atom  24H    basis set group =>   3
Atom  25H    basis set group =>   3
Atom  26H    basis set group =>   3
Atom  27H    basis set group =>   3
Atom  28H    basis set group =>   3
Atom  29H    basis set group =>   3
Atom  30H    basis set group =>   3
Atom  31H    basis set group =>   3
Atom  32H    basis set group =>   3
Atom  33H    basis set group =>   3
Atom  34H    basis set group =>   3
Atom  35H    basis set group =>   3
Atom  36H    basis set group =>   3
Atom  37H    basis set group =>   3

Checking for AutoStart:
The File: sp.gbw exists
Trying to determine its content:
     ... Fine, the file contains calculation information
     ... Fine, the calculation information was read
     ... Fine, the file contains a basis set
     ... Fine, the basis set was read
     ... Fine, the file contains a geometry
     ... Fine, the geometry was read
     ... Fine, the file contains a set of orbitals
     ... Fine, the orbitals can be read
     => possible old guess file was deleted
     => GBW file was renamed to GES file
     => GES file is set as startup file
     => Guess is set to MORead
     ... now leaving AutoStart

------------------------------------------------------------------------------
                             ORCA STARTUP CALCULATIONS
                           -- RI-GTO INTEGRALS CHOSEN --
------------------------------------------------------------------------------
------------------------------------------------------------------------------
                   ___                                                        
                  /   \      - P O W E R E D   B Y -                         
                 /     \                                                     
                 |  |  |   _    _      __       _____    __    __             
                 |  |  |  | |  | |    /  \     |  _  \  |  |  /  |          
                  \  \/   | |  | |   /    \    | | | |  |  | /  /          
                 / \  \   | |__| |  /  /\  \   | |_| |  |  |/  /          
                |  |  |   |  __  | /  /__\  \  |    /   |      \           
                |  |  |   | |  | | |   __   |  |    \   |  |\   \          
                \     /   | |  | | |  |  |  |  | |\  \  |  | \   \       
                 \___/    |_|  |_| |__|  |__|  |_| \__\ |__|  \__/        
                                                                              
                      - O R C A' S   B I G   F R I E N D -                    
                                      &                                       
                       - I N T E G R A L  F E E D E R -                       
                                                                              
 v1 FN, 2020, v2 2021, v3 2022-2024                                           
------------------------------------------------------------------------------


----------------------
SHARK INTEGRAL PACKAGE
----------------------

Number of atoms                             ...     38
Number of basis functions                   ...    316
Number of shells                            ...    158
Maximum angular momentum                    ...      2
Integral batch strategy                     ... SHARK/LIBINT Hybrid
RI-J (if used) integral strategy            ... SPLIT-RIJ (Revised 2003 algorithm where possible)
Printlevel                                  ...      1
Contraction scheme used                     ... SEGMENTED contraction
Prescreening option                         ... SCHWARTZ
   Thresh                                   ... 1.000e-09
   Tcut                                     ... 1.000e-10
   Tpresel                                  ... 1.000e-10 
Coulomb Range Separation                    ... NOT USED
Exchange Range Separation                   ... NOT USED
Multipole approximations                    ... NOT USED
Finite Nucleus Model                        ... NOT USED
CABS basis                                  ... NOT available
Auxiliary Coulomb fitting basis             ... AVAILABLE
   # of basis functions in Aux-J            ...   1146
   # of shells in Aux-J                     ...    386
   Maximum angular momentum in Aux-J        ...      4
Auxiliary J/K fitting basis                 ... NOT available
Auxiliary Correlation fitting basis         ... NOT available
Auxiliary 'external' fitting basis          ... NOT available

Checking pre-screening integrals            ... done (  0.0 sec) Dimension = 158
Check shell pair data                       ... done (  0.0 sec)
Shell pair information
Shell pair cut-off parameter TPreSel        ...   1.0e-10
Total number of shell pairs                 ...     12561
Shell pairs after pre-screening             ...      9220
Total number of primitive shell pairs       ...     52337
Primitive shell pairs kept                  ...     22692
          la=0 lb=0:   3455 shell pairs
          la=1 lb=0:   3125 shell pairs
          la=1 lb=1:    731 shell pairs
          la=2 lb=0:   1223 shell pairs
          la=2 lb=1:    572 shell pairs
          la=2 lb=2:    114 shell pairs

Calculating one electron integrals          ... done (  0.1 sec)
Calculating RI/J V-Matrix + Cholesky decomp.... done (  0.1 sec)
Calculating Nuclear repulsion               ... done (  0.0 sec) ENN=   2185.470501504339 Eh

Diagonalization of the overlap matrix:
Smallest eigenvalue                        ... 1.058e-03
Time for diagonalization                   ...    0.011 sec
Threshold for overlap eigenvalues          ... 1.000e-07
Number of eigenvalues below threshold      ... 0
Time for construction of square roots      ...    0.007 sec
Total time needed                          ...    0.019 sec

-------------------
DFT GRID GENERATION
-------------------

General Integration Accuracy     IntAcc      ... 4.159
Radial Grid Type                 RadialGrid  ... OptM3 with GC (2021)
Angular Grid (max. ang.)         AngularGrid ... 3 (Lebedev-194)
Angular grid pruning method      GridPruning ... 4 (adaptive)
Weight generation scheme         WeightScheme... mBecke (2022)
Basis function cutoff            BFCut       ... 1.0000e-10
Integration weight cutoff        WCut        ... 1.0000e-14
Partially contracted basis set               ... off
Rotationally invariant grid construction     ... off
Angular grids for H and He will be reduced by one unit

Total number of grid points                  ...    90831
Total number of batches                      ...     1437
Average number of points per batch           ...       63
Average number of grid points per atom       ...     2390
Initializing property integral containers    ... done (  0.0 sec)

SHARK setup successfully completed in   1.2 seconds

Maximum memory used throughout the entire STARTUP-calculation: 49.1 MB
-------------------------------------------------------------------------------
                                 ORCA GUESS
                   Start orbitals & Density for SCF / CASSCF
-------------------------------------------------------------------------------

------------
SCF SETTINGS
------------
Hamiltonian:
 Density Functional     Method          .... DFT(GTOs)
 Exchange Functional    Exchange        .... PBE
   PBE kappa parameter   XKappa         ....  0.804000
   PBE mue parameter    XMuePBE         ....  0.219520
 Correlation Functional Correlation     .... PBE
   PBE beta parameter  CBetaPBE         ....  0.066725
 LDA part of GGA corr.  LDAOpt          .... PW91-LDA
 Gradients option       PostSCFGGA      .... off
   NL short-range parameter             ....  6.400000
 RI-approximation to the Coulomb term is turned on
   Number of AuxJ basis functions       .... 1146


General Settings:
 Integral files         IntName         .... sp
 Hartree-Fock type      HFTyp           .... RHF
 Total Charge           Charge          ....    0
 Multiplicity           Mult            ....    1
 Number of Electrons    NEL             ....  174
 Basis Dimension        Dim             ....  316
 Nuclear Repulsion      ENuc            ....   2185.4705015043 Eh

Convergence Acceleration:
 AO-DIIS                CNVDIIS         .... on
   Start iteration      DIISMaxIt       ....    12
   Startup error        DIISStart       ....  0.200000
   # of expansion vecs  DIISMaxEq       ....     5
   Bias factor          DIISBfac        ....   1.050
   Max. coefficient     DIISMaxC        ....  10.000
 MO-DIIS                CNVKDIIS        .... off
 Trust-Rad. Augm. Hess. CNVTRAH         .... auto
   Auto Start mean grad. ratio tolernc. ....  1.125000
   Auto Start start iteration           ....     1
   Auto Start num. interpolation iter.  ....    10
   Max. Number of Micro iterations      ....    24
   Max. Number of Macro iterations      .... Maxiter - #DIIS iter
   Number of Davidson start vectors     ....     2
   Converg. threshold    (grad. norm)   ....   1.000e-04
   Grad. Scal. Fac. for Micro threshold ....   0.100
   Minimum threshold for Micro iter.    ....   1.000e-02
   NR start threshold (gradient norm)   ....   1.000e-04
   Initial trust radius                 ....   0.400
   Minimum AH scaling param. (alpha)    ....   1.000
   Maximum AH scaling param. (alpha)    .... 1000.000
   Quad. conv. algorithm                .... NR
   White noise on init. David. guess    .... on
   Maximum white noise                  ....   0.010
   Pseudo random numbers                .... off
   Inactive MOs                         .... canonical
   Orbital update algorithm             .... Taylor
   Preconditioner                       .... Diag
   Full preconditioner red. dimension   ....   250
 SOSCF                  CNVSOSCF        .... on
   Start iteration      SOSCFMaxIt      ....   150
   Startup grad/error   SOSCFStart      ....  0.003300
   Hessian update       SOSCFHessUp     .... L-BFGS
 Level Shifting         CNVShift        .... on
   Level shift para.    LevelShift      ....    0.2500
   Turn off err/grad.   ShiftErr        ....    0.0010
 Zerner damping         CNVZerner       .... off
 Static damping         CNVDamp         .... on
   Fraction old density DampFac         ....    0.7000
   Max. Damping (<1)    DampMax         ....    0.9800
   Min. Damping (>=0)   DampMin         ....    0.0000
   Turn off err/grad.   DampErr         ....    0.1000

SCF Procedure:
 Maximum # iterations   MaxIter         ....   125
 SCF integral mode      SCFMode         .... Direct
   Integral package                     .... SHARK and LIBINT hybrid scheme
 Reset frequency        DirectResetFreq ....    20
 Integral Threshold     Thresh          ....  1.000e-09 Eh
 Primitive CutOff       TCut            ....  1.000e-10 Eh

Convergence Tolerance:
 Convergence Check Mode ConvCheckMode   .... Total+1el-Energy
 Convergence forced     ConvForced      .... 0
 Energy Change          TolE            ....  1.000e-05 Eh
 1-El. energy change                    ....  1.000e-02 Eh
 Orbital Gradient       TolG            ....  1.000e-04
 Orbital Rotation angle TolX            ....  1.000e-04
 DIIS Error             TolErr          ....  5.000e-04

---------------------
INITIAL GUESS: MOREAD
---------------------
Guess MOs are being read from file: sp.ges
Input Geometry matches current geometry (good)
Input basis set matches current basis set (good)
Occupation numbers will be reassigned to an Aufbau configuration
MOs were renormalized
MOs were reorthogonalized (Cholesky)
                      ------------------
                      INITIAL GUESS DONE (   0.0 sec)
                      ------------------
             **** ENERGY FILE WAS UPDATED (sp.en.tmp) ****
Finished Guess after   0.1 sec
Maximum memory used throughout the entire GUESS-calculation: 24.9 MB

-------------------------------------------------------------------------------------------
                                      ORCA LEAN-SCF
                              memory conserving SCF solver
-------------------------------------------------------------------------------------------

----------------------------------------D-I-I-S--------------------------------------------
Iteration    Energy (Eh)           Delta-E    RMSDP     MaxDP     DIISErr   Damp  Time(sec)
-------------------------------------------------------------------------------------------
               ***  Starting incremental Fock matrix formation  ***
                              *** Initializing SOSCF ***
---------------------------------------S-O-S-C-F--------------------------------------
Iteration    Energy (Eh)           Delta-E    RMSDP     MaxDP     MaxGrad    Time(sec)
--------------------------------------------------------------------------------------
    1    -1979.1414840065644967     0.00e+00  8.82e-06  4.07e-04  4.96e-05     1.9
               *** Restarting incremental Fock matrix formation ***
    2    -1979.1414841044670538    -9.79e-08  1.26e-05  5.46e-04  8.15e-05     1.8
    3    -1979.1414827105045333     1.39e-06  8.78e-06  4.71e-04  2.76e-04     1.3
                 **** Energy Check signals convergence ****

               *****************************************************
               *                     SUCCESS                       *
               *           SCF CONVERGED AFTER   3 CYCLES          *
               *****************************************************

             **** ENERGY FILE WAS UPDATED (sp.en.tmp) ****

----------------
TOTAL SCF ENERGY
----------------

Total Energy       :      -1979.14148271050453 Eh          -53855.17769 eV

Components:
Nuclear Repulsion  :       2185.47050150433915 Eh           59469.67573 eV
Electronic Energy  :      -4164.61198421484369 Eh         -113324.85341 eV
One Electron Energy:      -7075.13740425890319 Eh         -192524.27651 eV
Two Electron Energy:       2910.52542004405950 Eh           79199.42310 eV

Virial components:
Potential Energy   :      -3949.32461701462626 Eh         -107466.58632 eV
Kinetic Energy     :       1970.18313430412172 Eh           53611.40864 eV
Virial Ratio       :          2.00454696228508

DFT components:
N(Alpha)           :       87.000501072995 electrons
N(Beta)            :       87.000501072995 electrons
N(Total)           :      174.001002145991 electrons
E(X)               :     -180.022385551505 Eh       
E(C)               :       -6.126255312792 Eh       
E(XC)              :     -186.148640864297 Eh       

---------------
SCF CONVERGENCE
---------------

  Last Energy change         ...   -1.3940e-06  Tolerance :   1.0000e-05
  Last MAX-Density change    ...    4.7137e-04  Tolerance :   1.0000e-03
  Last RMS-Density change    ...    8.7842e-06  Tolerance :   1.0000e-04
  Last DIIS Error            ...    1.4681e-04  Tolerance :   5.0000e-04
  Last Orbital Gradient      ...    2.7649e-04  Tolerance :   1.0000e-04
  Last Orbital Rotation      ...    3.2331e-04  Tolerance :   1.0000e-04


----------------
ORBITAL ENERGIES
----------------

  NO   OCC          E(Eh)            E(eV) 
   0   2.0000     -88.034747     -2395.5472 
   1   2.0000     -87.974813     -2393.9164 
   2   2.0000     -76.422262     -2079.5555 
   3   2.0000     -18.824948      -512.2529 
   4   2.0000     -18.797507      -511.5062 
   5   2.0000     -18.785079      -511.1680 
   6   2.0000     -18.777022      -510.9487 
   7   2.0000     -18.759823      -510.4807 
   8   2.0000     -18.734164      -509.7825 
   9   2.0000     -10.030353      -272.9398 
  10   2.0000     -10.005660      -272.2678 
  11   2.0000      -9.959705      -271.0173 
  12   2.0000      -9.954141      -270.8659 
  13   2.0000      -9.943316      -270.5714 
  14   2.0000      -9.941724      -270.5281 
  15   2.0000      -9.936189      -270.3774 
  16   2.0000      -9.903077      -269.4764 
  17   2.0000      -9.889271      -269.1007 
  18   2.0000      -9.883243      -268.9367 
  19   2.0000      -7.679479      -208.9693 
  20   2.0000      -7.620091      -207.3532 
  21   2.0000      -6.418035      -174.6436 
  22   2.0000      -5.707568      -155.3108 
  23   2.0000      -5.704187      -155.2188 
  24   2.0000      -5.696045      -154.9973 
  25   2.0000      -5.649384      -153.7276 
  26   2.0000      -5.640842      -153.4951 
  27   2.0000      -5.639626      -153.4620 
  28   2.0000      -4.640917      -126.2858 
  29   2.0000      -4.639953      -126.2595 
  30   2.0000      -4.638515      -126.2204 
  31   2.0000      -1.034611       -28.1532 
  32   2.0000      -1.005593       -27.3636 
  33   2.0000      -0.975196       -26.5364 
  34   2.0000      -0.940100       -25.5814 
  35   2.0000      -0.929732       -25.2993 
  36   2.0000      -0.911752       -24.8100 
  37   2.0000      -0.767042       -20.8723 
  38   2.0000      -0.715366       -19.4661 
  39   2.0000      -0.704683       -19.1754 
  40   2.0000      -0.689415       -18.7599 
  41   2.0000      -0.653473       -17.7819 
  42   2.0000      -0.631642       -17.1879 
  43   2.0000      -0.627032       -17.0624 
  44   2.0000      -0.612048       -16.6547 
  45   2.0000      -0.594087       -16.1659 
  46   2.0000      -0.566156       -15.4059 
  47   2.0000      -0.513333       -13.9685 
  48   2.0000      -0.507138       -13.7999 
  49   2.0000      -0.493887       -13.4393 
  50   2.0000      -0.487923       -13.2771 
  51   2.0000      -0.470068       -12.7912 
  52   2.0000      -0.459968       -12.5164 
  53   2.0000      -0.448512       -12.2046 
  54   2.0000      -0.438054       -11.9201 
  55   2.0000      -0.427298       -11.6274 
  56   2.0000      -0.423345       -11.5198 
  57   2.0000      -0.420022       -11.4294 
  58   2.0000      -0.415137       -11.2964 
  59   2.0000      -0.407335       -11.0842 
  60   2.0000      -0.401011       -10.9121 
  61   2.0000      -0.396743       -10.7959 
  62   2.0000      -0.391866       -10.6632 
  63   2.0000      -0.383394       -10.4327 
  64   2.0000      -0.382534       -10.4093 
  65   2.0000      -0.367906       -10.0112 
  66   2.0000      -0.357947        -9.7402 
  67   2.0000      -0.353996        -9.6327 
  68   2.0000      -0.347901        -9.4669 
  69   2.0000      -0.336827        -9.1655 
  70   2.0000      -0.335726        -9.1356 
  71   2.0000      -0.329085        -8.9548 
  72   2.0000      -0.323443        -8.8013 
  73   2.0000      -0.308293        -8.3891 
  74   2.0000      -0.305854        -8.3227 
  75   2.0000      -0.295268        -8.0347 
  76   2.0000      -0.292440        -7.9577 
  77   2.0000      -0.288456        -7.8493 
  78   2.0000      -0.281158        -7.6507 
  79   2.0000      -0.263431        -7.1683 
  80   2.0000      -0.255524        -6.9532 
  81   2.0000      -0.253328        -6.8934 
  82   2.0000      -0.247423        -6.7327 
  83   2.0000      -0.220521        -6.0007 
  84   2.0000      -0.212007        -5.7690 
  85   2.0000      -0.193844        -5.2748 
  86   2.0000      -0.187611        -5.1052 
  87   0.0000      -0.047595        -1.2951 
  88   0.0000      -0.040429        -1.1001 
  89   0.0000      -0.013742        -0.3739 
  90   0.0000      -0.002808        -0.0764 
  91   0.0000       0.030205         0.8219 
  92   0.0000       0.037667         1.0250 
  93   0.0000       0.047943         1.3046 
  94   0.0000       0.049112         1.3364 
  95   0.0000       0.059055         1.6070 
  96   0.0000       0.064383         1.7520 
  97   0.0000       0.067192         1.8284 
*Only the first 10 virtual orbitals were printed.

                    ********************************
                    * MULLIKEN POPULATION ANALYSIS *
                    ********************************

-----------------------
MULLIKEN ATOMIC CHARGES
-----------------------
   0 C :   -0.308202
   1 C :   -0.007177
   2 O :   -0.213690
   3 C :    0.120429
   4 O :   -0.207850
   5 C :   -0.065531
   6 C :   -0.325011
   7 H :    0.156735
   8 C :    0.226429
   9 O :   -0.190882
  10 O :   -0.217222
  11 C :   -0.012435
  12 C :   -0.315575
  13 S :   -0.110961
  14 P :    0.640337
  15 S :   -0.322125
  16 O :   -0.397583
  17 C :   -0.079768
  18 O :   -0.368341
  19 C :   -0.112925
  20 H :    0.126716
  21 H :    0.116797
  22 H :    0.111084
  23 H :    0.104389
  24 H :    0.104835
  25 H :    0.114348
  26 H :    0.120746
  27 H :    0.109407
  28 H :    0.111476
  29 H :    0.146391
  30 H :    0.116494
  31 H :    0.114083
  32 H :    0.114948
  33 H :    0.115883
  34 H :    0.116096
  35 H :    0.120870
  36 H :    0.119813
  37 H :    0.126969
Sum of atomic charges:    0.0000000

--------------------------------
MULLIKEN REDUCED ORBITAL CHARGES
--------------------------------
  0 C s       :     3.102226  s :     3.102226
      pz      :     1.086037  p :     3.178055
      px      :     1.035281
      py      :     1.056737
      dz2     :     0.007666  d :     0.027922
      dxz     :     0.006063
      dyz     :     0.002609
      dx2y2   :     0.007183
      dxy     :     0.004400

  1 C s       :     3.072150  s :     3.072150
      pz      :     1.052415  p :     2.876296
      px      :     1.065275
      py      :     0.758606
      dz2     :     0.012025  d :     0.058731
      dxz     :     0.007255
      dyz     :     0.010342
      dx2y2   :     0.015098
      dxy     :     0.014010

  2 O s       :     3.729281  s :     3.729281
      pz      :     1.601024  p :     4.467827
      px      :     1.668903
      py      :     1.197899
      dz2     :     0.002929  d :     0.016582
      dxz     :     0.002431
      dyz     :     0.005529
      dx2y2   :     0.002698
      dxy     :     0.002996

  3 C s       :     3.037437  s :     3.037437
      pz      :     0.899517  p :     2.709214
      px      :     0.862741
      py      :     0.946956
      dz2     :     0.030841  d :     0.132920
      dxz     :     0.022319
      dyz     :     0.046869
      dx2y2   :     0.014723
      dxy     :     0.018167

  4 O s       :     3.742302  s :     3.742302
      pz      :     1.333462  p :     4.447849
      px      :     1.385656
      py      :     1.728730
      dz2     :     0.006587  d :     0.017699
      dxz     :     0.005658
      dyz     :     0.003448
      dx2y2   :     0.001144
      dxy     :     0.000863

  5 C s       :     3.001709  s :     3.001709
      pz      :     1.060572  p :     3.031814
      px      :     0.955861
      py      :     1.015381
      dz2     :     0.009321  d :     0.032008
      dxz     :     0.004536
      dyz     :     0.004574
      dx2y2   :     0.005003
      dxy     :     0.008575

  6 C s       :     3.170604  s :     3.170604
      pz      :     1.133149  p :     3.111559
      px      :     0.983627
      py      :     0.994783
      dz2     :     0.010550  d :     0.042849
      dxz     :     0.006595
      dyz     :     0.005669
      dx2y2   :     0.009864
      dxy     :     0.010170

  7 H s       :     0.843265  s :     0.843265

  8 C s       :     3.004413  s :     3.004413
      pz      :     0.866280  p :     2.636150
      px      :     0.866742
      py      :     0.903128
      dz2     :     0.012835  d :     0.133008
      dxz     :     0.027187
      dyz     :     0.013355
      dx2y2   :     0.033024
      dxy     :     0.046606

  9 O s       :     3.756763  s :     3.756763
      pz      :     1.429676  p :     4.416837
      px      :     1.314419
      py      :     1.672741
      dz2     :     0.002539  d :     0.017282
      dxz     :     0.005290
      dyz     :     0.000684
      dx2y2   :     0.005034
      dxy     :     0.003735

 10 O s       :     3.728497  s :     3.728497
      pz      :     1.636325  p :     4.471716
      px      :     1.560781
      py      :     1.274610
      dz2     :     0.002276  d :     0.017009
      dxz     :     0.002695
      dyz     :     0.002880
      dx2y2   :     0.003671
      dxy     :     0.005487

 11 C s       :     3.079041  s :     3.079041
      pz      :     0.992823  p :     2.875310
      px      :     1.068932
      py      :     0.813555
      dz2     :     0.011019  d :     0.058084
      dxz     :     0.007438
      dyz     :     0.016947
      dx2y2   :     0.012247
      dxy     :     0.010432

 12 C s       :     3.107108  s :     3.107108
      pz      :     1.000051  p :     3.180806
      px      :     1.095749
      py      :     1.085005
      dz2     :     0.006529  d :     0.027661
      dxz     :     0.004739
      dyz     :     0.005874
      dx2y2   :     0.006280
      dxy     :     0.004238

 13 S s       :     5.863293  s :     5.863293
      pz      :     3.325581  p :    10.177315
      px      :     3.288562
      py      :     3.563171
      dz2     :     0.021328  d :     0.070354
      dxz     :     0.014666
      dyz     :     0.008276
      dx2y2   :     0.007684
      dxy     :     0.018399

 14 P s       :     5.221541  s :     5.221541
      pz      :     2.913696  p :     8.562901
      px      :     2.838232
      py      :     2.810973
      dz2     :     0.122798  d :     0.575222
      dxz     :     0.112489
      dyz     :     0.085087
      dx2y2   :     0.137124
      dxy     :     0.117725

 15 S s       :     5.910332  s :     5.910332
      pz      :     3.186018  p :    10.370041
      px      :     3.520184
      py      :     3.663839
      dz2     :     0.011003  d :     0.041752
      dxz     :     0.014303
      dyz     :     0.009071
      dx2y2   :     0.003608
      dxy     :     0.003767

 16 O s       :     3.750511  s :     3.750511
      pz      :     1.782638  p :     4.634653
      px      :     1.440190
      py      :     1.411825
      dz2     :     0.001715  d :     0.012419
      dxz     :     0.001869
      dyz     :     0.001784
      dx2y2   :     0.004768
      dxy     :     0.002283

 17 C s       :     3.118938  s :     3.118938
      pz      :     1.104179  p :     2.908094
      px      :     1.042159
      py      :     0.761756
      dz2     :     0.007699  d :     0.052736
      dxz     :     0.004594
      dyz     :     0.014843
      dx2y2   :     0.015868
      dxy     :     0.009732

 18 O s       :     3.756726  s :     3.756726
      pz      :     1.623805  p :     4.598297
      px      :     1.638826
      py      :     1.335666
      dz2     :     0.002397  d :     0.013319
      dxz     :     0.002592
      dyz     :     0.003202
      dx2y2   :     0.003066
      dxy     :     0.002063

 19 C s       :     3.129676  s :     3.129676
      pz      :     0.968721  p :     2.930950
      px      :     0.982458
      py      :     0.979771
      dz2     :     0.012421  d :     0.052299
      dxz     :     0.009451
      dyz     :     0.009352
      dx2y2   :     0.012561
      dxy     :     0.008513

 20 H s       :     0.873284  s :     0.873284

 21 H s       :     0.883203  s :     0.883203

 22 H s       :     0.888916  s :     0.888916

 23 H s       :     0.895611  s :     0.895611

 24 H s       :     0.895165  s :     0.895165

 25 H s       :     0.885652  s :     0.885652

 26 H s       :     0.879254  s :     0.879254

 27 H s       :     0.890593  s :     0.890593

 28 H s       :     0.888524  s :     0.888524

 29 H s       :     0.853609  s :     0.853609

 30 H s       :     0.883506  s :     0.883506

 31 H s       :     0.885917  s :     0.885917

 32 H s       :     0.885052  s :     0.885052

 33 H s       :     0.884117  s :     0.884117

 34 H s       :     0.883904  s :     0.883904

 35 H s       :     0.879130  s :     0.879130

 36 H s       :     0.880187  s :     0.880187

 37 H s       :     0.873031  s :     0.873031


------------------------
MULLIKEN OVERLAP CHARGES
------------------------
B(  0-C ,  1-C ) :   0.9346 B(  0-C ,  2-O ) :  -0.0749 B(  0-C , 20-H ) :   0.7426 
B(  0-C , 21-H ) :   0.7384 B(  0-C , 22-H ) :   0.7131 B(  0-C , 23-H ) :  -0.0546 
B(  0-C , 24-H ) :  -0.0629 B(  1-C ,  2-O ) :   0.5295 B(  1-C ,  3-C ) :  -0.0637 
B(  1-C , 23-H ) :   0.7335 B(  1-C , 24-H ) :   0.7098 B(  2-O ,  3-C ) :   0.7455 
B(  2-O ,  4-O ) :  -0.1693 B(  2-O ,  5-C ) :  -0.2477 B(  2-O , 23-H ) :  -0.0553 
B(  2-O , 24-H ) :  -0.0663 B(  3-C ,  4-O ) :   1.3363 B(  3-C ,  5-C ) :   0.5905 
B(  3-C ,  6-C ) :  -0.0902 B(  4-O ,  5-C ) :  -0.1959 B(  5-C ,  6-C ) :   0.5447 
B(  5-C , 13-S ) :  -0.1535 B(  5-C , 25-H ) :   0.5721 B(  5-C , 26-H ) :   0.5723 
B(  6-C ,  7-H ) :   0.5929 B(  6-C ,  8-C ) :   0.2171 B(  6-C ,  9-O ) :  -0.2508 
B(  6-C , 10-O ) :  -0.2715 B(  6-C , 13-S ) :   0.5353 B(  6-C , 14-P ) :  -0.0513 
B(  7-H , 13-S ) :  -0.0589 B(  8-C ,  9-O ) :   1.2760 B(  8-C , 10-O ) :   0.8063 
B(  8-C , 11-C ) :  -0.0707 B(  8-C , 13-S ) :  -0.0975 B(  9-O , 10-O ) :  -0.1467 
B(  9-O , 14-P ) :   0.0566 B( 10-O , 11-C ) :   0.5191 B( 10-O , 12-C ) :  -0.0830 
B( 10-O , 27-H ) :  -0.0523 B( 10-O , 28-H ) :  -0.0584 B( 11-C , 12-C ) :   0.9481 
B( 11-C , 27-H ) :   0.7375 B( 11-C , 28-H ) :   0.7077 B( 12-C , 27-H ) :  -0.0505 
B( 12-C , 28-H ) :  -0.0551 B( 12-C , 29-H ) :   0.7339 B( 12-C , 30-H ) :   0.7431 
B( 12-C , 31-H ) :   0.7082 B( 13-S , 14-P ) :   0.5262 B( 13-S , 15-S ) :  -0.0610 
B( 13-S , 16-O ) :  -0.0682 B( 13-S , 18-O ) :  -0.0740 B( 14-P , 15-S ) :   0.8909 
B( 14-P , 16-O ) :   0.6512 B( 14-P , 17-C ) :  -0.0828 B( 14-P , 18-O ) :   0.6534 
B( 14-P , 19-C ) :  -0.0522 B( 15-S , 16-O ) :  -0.0620 B( 15-S , 18-O ) :  -0.0720 
B( 15-S , 26-H ) :   0.0728 B( 15-S , 32-H ) :   0.0552 B( 16-O , 17-C ) :   0.5841 
B( 16-O , 18-O ) :  -0.0752 B( 16-O , 32-H ) :  -0.0616 B( 16-O , 33-H ) :  -0.0573 
B( 16-O , 34-H ) :  -0.0587 B( 17-C , 32-H ) :   0.7423 B( 17-C , 33-H ) :   0.7491 
B( 17-C , 34-H ) :   0.7635 B( 18-O , 19-C ) :   0.5565 B( 18-O , 35-H ) :  -0.0652 
B( 18-O , 36-H ) :  -0.0626 B( 18-O , 37-H ) :  -0.0543 B( 19-C , 35-H ) :   0.7441 
B( 19-C , 36-H ) :   0.7530 B( 19-C , 37-H ) :   0.7692 B( 20-H , 21-H ) :  -0.0519 
B( 23-H , 24-H ) :  -0.0622 B( 27-H , 28-H ) :  -0.0631 B( 32-H , 33-H ) :  -0.0514 
B( 32-H , 34-H ) :  -0.0558 B( 33-H , 34-H ) :  -0.0611 B( 35-H , 36-H ) :  -0.0669 
B( 36-H , 37-H ) :  -0.0515 


                     *******************************
                     * LOEWDIN POPULATION ANALYSIS *
                     *******************************

----------------------
LOEWDIN ATOMIC CHARGES
----------------------
   0 C :   -0.356620
   1 C :   -0.109854
   2 O :   -0.048613
   3 C :    0.021661
   4 O :   -0.172800
   5 C :   -0.257176
   6 C :   -0.255498
   7 H :    0.153593
   8 C :    0.024211
   9 O :   -0.157599
  10 O :   -0.034012
  11 C :   -0.105391
  12 C :   -0.359328
  13 S :    0.095890
  14 P :    0.590326
  15 S :   -0.312039
  16 O :   -0.253325
  17 C :   -0.205994
  18 O :   -0.252782
  19 C :   -0.214676
  20 H :    0.130003
  21 H :    0.126039
  22 H :    0.129754
  23 H :    0.119167
  24 H :    0.118438
  25 H :    0.142364
  26 H :    0.129827
  27 H :    0.120989
  28 H :    0.121302
  29 H :    0.131804
  30 H :    0.126706
  31 H :    0.131996
  32 H :    0.111343
  33 H :    0.115813
  34 H :    0.112981
  35 H :    0.104511
  36 H :    0.113465
  37 H :    0.123524

-------------------------------
LOEWDIN REDUCED ORBITAL CHARGES
-------------------------------
  0 C s       :     2.951566  s :     2.951566
      pz      :     1.131690  p :     3.336317
      px      :     1.086758
      py      :     1.117870
      dz2     :     0.019104  d :     0.068736
      dxz     :     0.013693
      dyz     :     0.006108
      dx2y2   :     0.018331
      dxy     :     0.011501

  1 C s       :     2.925002  s :     2.925002
      pz      :     1.115963  p :     3.054547
      px      :     1.104567
      py      :     0.834016
      dz2     :     0.028230  d :     0.130305
      dxz     :     0.015082
      dyz     :     0.021997
      dx2y2   :     0.033562
      dxy     :     0.031433

  2 O s       :     3.448241  s :     3.448241
      pz      :     1.639824  p :     4.566804
      px      :     1.659667
      py      :     1.267313
      dz2     :     0.004804  d :     0.033568
      dxz     :     0.003449
      dyz     :     0.012306
      dx2y2   :     0.006913
      dxy     :     0.006095

  3 C s       :     2.846636  s :     2.846636
      pz      :     0.981896  p :     2.828341
      px      :     0.871369
      py      :     0.975076
      dz2     :     0.070165  d :     0.303362
      dxz     :     0.051013
      dyz     :     0.112312
      dx2y2   :     0.030762
      dxy     :     0.039110

  4 O s       :     3.548319  s :     3.548319
      pz      :     1.452139  p :     4.593167
      px      :     1.409043
      py      :     1.731986
      dz2     :     0.012193  d :     0.031314
      dxz     :     0.010359
      dyz     :     0.005803
      dx2y2   :     0.001604
      dxy     :     0.001356

  5 C s       :     2.926885  s :     2.926885
      pz      :     1.118495  p :     3.247176
      px      :     1.066068
      py      :     1.062613
      dz2     :     0.022947  d :     0.083115
      dxz     :     0.011945
      dyz     :     0.012086
      dx2y2   :     0.014594
      dxy     :     0.021543

  6 C s       :     2.947474  s :     2.947474
      pz      :     1.123128  p :     3.205442
      px      :     1.042735
      py      :     1.039580
      dz2     :     0.023520  d :     0.102582
      dxz     :     0.016389
      dyz     :     0.014327
      dx2y2   :     0.022503
      dxy     :     0.025843

  7 H s       :     0.846407  s :     0.846407

  8 C s       :     2.839760  s :     2.839760
      pz      :     0.875493  p :     2.829993
      px      :     0.987022
      py      :     0.967479
      dz2     :     0.027552  d :     0.306036
      dxz     :     0.058518
      dyz     :     0.028999
      dx2y2   :     0.080977
      dxy     :     0.109990

  9 O s       :     3.547116  s :     3.547116
      pz      :     1.449726  p :     4.579117
      px      :     1.445177
      py      :     1.684214
      dz2     :     0.004115  d :     0.031366
      dxz     :     0.009078
      dyz     :     0.001144
      dx2y2   :     0.010782
      dxy     :     0.006247

 10 O s       :     3.435996  s :     3.435996
      pz      :     1.620640  p :     4.563683
      px      :     1.613877
      py      :     1.329166
      dz2     :     0.004529  d :     0.034333
      dxz     :     0.003529
      dyz     :     0.006063
      dx2y2   :     0.007647
      dxy     :     0.012565

 11 C s       :     2.928600  s :     2.928600
      pz      :     1.043896  p :     3.047995
      px      :     1.131343
      py      :     0.872756
      dz2     :     0.028689  d :     0.128796
      dxz     :     0.014699
      dyz     :     0.035384
      dx2y2   :     0.026667
      dxy     :     0.023357

 12 C s       :     2.952487  s :     2.952487
      pz      :     1.064109  p :     3.338616
      px      :     1.137315
      py      :     1.137192
      dz2     :     0.018648  d :     0.068225
      dxz     :     0.010280
      dyz     :     0.014156
      dx2y2   :     0.015034
      dxy     :     0.010107

 13 S s       :     5.628533  s :     5.628533
      pz      :     3.337728  p :    10.187022
      px      :     3.295694
      py      :     3.553600
      dz2     :     0.027033  d :     0.088554
      dxz     :     0.018144
      dyz     :     0.008871
      dx2y2   :     0.009341
      dxy     :     0.025166

 14 P s       :     5.076319  s :     5.076319
      pz      :     2.923400  p :     8.536937
      px      :     2.831026
      py      :     2.782511
      dz2     :     0.175879  d :     0.796418
      dxz     :     0.156960
      dyz     :     0.109016
      dx2y2   :     0.195065
      dxy     :     0.159499

 15 S s       :     5.761302  s :     5.761302
      pz      :     3.278257  p :    10.494533
      px      :     3.545189
      py      :     3.671087
      dz2     :     0.014853  d :     0.056204
      dxz     :     0.020989
      dyz     :     0.011527
      dx2y2   :     0.004150
      dxy     :     0.004685

 16 O s       :     3.486370  s :     3.486370
      pz      :     1.781482  p :     4.743820
      px      :     1.506192
      py      :     1.456145
      dz2     :     0.002941  d :     0.023136
      dxz     :     0.002689
      dyz     :     0.003041
      dx2y2   :     0.009739
      dxy     :     0.004727

 17 C s       :     2.968994  s :     2.968994
      pz      :     1.155630  p :     3.120179
      px      :     1.108668
      py      :     0.855880
      dz2     :     0.017061  d :     0.116821
      dxz     :     0.010337
      dyz     :     0.033850
      dx2y2   :     0.035379
      dxy     :     0.020194

 18 O s       :     3.502514  s :     3.502514
      pz      :     1.651976  p :     4.726060
      px      :     1.658253
      py      :     1.415831
      dz2     :     0.003861  d :     0.024209
      dxz     :     0.004186
      dyz     :     0.005832
      dx2y2   :     0.006278
      dxy     :     0.004051

 19 C s       :     2.970539  s :     2.970539
      pz      :     1.038891  p :     3.128971
      px      :     1.047945
      py      :     1.042135
      dz2     :     0.028431  d :     0.115166
      dxz     :     0.020327
      dyz     :     0.020227
      dx2y2   :     0.028462
      dxy     :     0.017720

 20 H s       :     0.869997  s :     0.869997

 21 H s       :     0.873961  s :     0.873961

 22 H s       :     0.870246  s :     0.870246

 23 H s       :     0.880833  s :     0.880833

 24 H s       :     0.881562  s :     0.881562

 25 H s       :     0.857636  s :     0.857636

 26 H s       :     0.870173  s :     0.870173

 27 H s       :     0.879011  s :     0.879011

 28 H s       :     0.878698  s :     0.878698

 29 H s       :     0.868196  s :     0.868196

 30 H s       :     0.873294  s :     0.873294

 31 H s       :     0.868004  s :     0.868004

 32 H s       :     0.888657  s :     0.888657

 33 H s       :     0.884187  s :     0.884187

 34 H s       :     0.887019  s :     0.887019

 35 H s       :     0.895489  s :     0.895489

 36 H s       :     0.886535  s :     0.886535

 37 H s       :     0.876476  s :     0.876476


---------------------------------
LOEWDIN BOND ORDERS (THRESH 0.050000)
---------------------------------
B(  0-C ,  1-C ) :   1.1504 B(  0-C ,  2-O ) :   0.0523 B(  0-C , 20-H ) :   0.9349 
B(  0-C , 21-H ) :   0.9380 B(  0-C , 22-H ) :   0.9300 B(  1-C ,  2-O ) :   1.0674 
B(  1-C ,  3-C ) :   0.0761 B(  1-C , 23-H ) :   0.9200 B(  1-C , 24-H ) :   0.9082 
B(  2-O ,  3-C ) :   1.4273 B(  2-O ,  4-O ) :   0.2100 B(  2-O ,  5-C ) :   0.0716 
B(  3-C ,  4-O ) :   2.2004 B(  3-C ,  5-C ) :   1.0361 B(  3-C ,  6-C ) :   0.0676 
B(  4-O ,  5-C ) :   0.0954 B(  5-C ,  6-C ) :   1.0492 B(  5-C ,  8-C ) :   0.0629 
B(  5-C , 13-S ) :   0.0654 B(  5-C , 25-H ) :   0.8792 B(  5-C , 26-H ) :   0.8743 
B(  6-C ,  7-H ) :   0.8620 B(  6-C ,  8-C ) :   1.0196 B(  6-C ,  9-O ) :   0.0940 
B(  6-C , 10-O ) :   0.0691 B(  6-C , 13-S ) :   1.1241 B(  8-C ,  9-O ) :   2.1136 
B(  8-C , 10-O ) :   1.4681 B(  8-C , 11-C ) :   0.0773 B(  8-C , 13-S ) :   0.0723 
B(  9-O , 10-O ) :   0.1963 B(  9-O , 14-P ) :   0.0896 B( 10-O , 11-C ) :   1.0459 
B( 10-O , 12-C ) :   0.0518 B( 11-C , 12-C ) :   1.1535 B( 11-C , 27-H ) :   0.9204 
B( 11-C , 28-H ) :   0.9081 B( 12-C , 29-H ) :   0.9241 B( 12-C , 30-H ) :   0.9376 
B( 12-C , 31-H ) :   0.9273 B( 13-S , 14-P ) :   1.0082 B( 13-S , 15-S ) :   0.1188 
B( 13-S , 16-O ) :   0.0613 B( 13-S , 18-O ) :   0.0656 B( 14-P , 15-S ) :   1.7051 
B( 14-P , 16-O ) :   1.2618 B( 14-P , 17-C ) :   0.0597 B( 14-P , 18-O ) :   1.2590 
B( 14-P , 19-C ) :   0.0621 B( 15-S , 16-O ) :   0.0855 B( 15-S , 18-O ) :   0.0678 
B( 15-S , 26-H ) :   0.0543 B( 16-O , 17-C ) :   1.1275 B( 16-O , 18-O ) :   0.0558 
B( 17-C , 32-H ) :   0.9420 B( 17-C , 33-H ) :   0.9487 B( 17-C , 34-H ) :   0.9491 
B( 18-O , 19-C ) :   1.1311 B( 19-C , 35-H ) :   0.9418 B( 19-C , 36-H ) :   0.9479 
B( 19-C , 37-H ) :   0.9507 

------------------------------------------
LOEWDIN REDUCED ORBITAL POPULATIONS PER MO
-------------------------------------------
THRESHOLD FOR PRINTING IS 0.1%%
                      0         1         2         3         4         5   
                 -88.03475 -87.97481 -76.42226 -18.82495 -18.79751 -18.78508
                   2.00000   2.00000   2.00000   2.00000   2.00000   2.00000
                  --------  --------  --------  --------  --------  --------
 2 O  s               0.0       0.0       0.0       0.0      99.9       0.0
10 O  s               0.0       0.0       0.0      99.9       0.0       0.0
13 S  s             100.0       0.0       0.0       0.0       0.0       0.0
14 P  s               0.0       0.0     100.0       0.0       0.0       0.0
15 S  s               0.0     100.0       0.0       0.0       0.0       0.0
16 O  s               0.0       0.0       0.0       0.0       0.0      99.9

                      6         7         8         9        10        11   
                 -18.77702 -18.75982 -18.73416 -10.03035 -10.00566  -9.95970
                   2.00000   2.00000   2.00000   2.00000   2.00000   2.00000
                  --------  --------  --------  --------  --------  --------
 3 C  s               0.0       0.0       0.0       0.0      99.3       0.0
 4 O  s               0.0       0.0      99.9       0.0       0.0       0.0
 4 O  pz              0.0       0.0       0.0       0.0       0.2       0.0
 8 C  s               0.0       0.0       0.0      99.3       0.0       0.0
 9 O  s               0.0      99.9       0.0       0.0       0.0       0.0
 9 O  px              0.0       0.0       0.0       0.2       0.0       0.0
11 C  s               0.0       0.0       0.0       0.0       0.0      99.7
12 C  pz              0.0       0.0       0.0       0.0       0.0       0.1
18 O  s              99.9       0.0       0.0       0.0       0.0       0.0

                     12        13        14        15        16        17   
                  -9.95414  -9.94332  -9.94172  -9.93619  -9.90308  -9.88927
                   2.00000   2.00000   2.00000   2.00000   2.00000   2.00000
                  --------  --------  --------  --------  --------  --------
 1 C  s               0.0      99.7       0.0       0.0       0.0       0.0
 5 C  s               0.0       0.0       0.0       0.0      99.6       0.0
 6 C  s              99.6       0.0       0.0       0.0       0.0       0.0
11 C  pz              0.0       0.0       0.0       0.0       0.0       0.1
12 C  s               0.0       0.0       0.0       0.0       0.0      99.7
17 C  s               0.0       0.0       0.0      99.7       0.0       0.0
19 C  s               0.0       0.0      99.7       0.0       0.0       0.0

                     18        19        20        21        22        23   
                  -9.88324  -7.67948  -7.62009  -6.41803  -5.70757  -5.70419
                   2.00000   2.00000   2.00000   2.00000   2.00000   2.00000
                  --------  --------  --------  --------  --------  --------
 0 C  s              99.7       0.0       0.0       0.0       0.0       0.0
13 S  s               0.0      99.8       0.0       0.0       0.0       0.0
13 S  pz              0.0       0.0       0.0       0.0      29.9      60.0
13 S  px              0.0       0.0       0.0       0.0      58.9       9.8
13 S  py              0.0       0.0       0.0       0.0      11.1      30.1
14 P  s               0.0       0.0       0.0      99.4       0.0       0.0
15 S  s               0.0       0.0      99.9       0.0       0.0       0.0
16 O  px              0.0       0.0       0.0       0.2       0.0       0.0
18 O  py              0.0       0.0       0.0       0.2       0.0       0.0

                     24        25        26        27        28        29   
                  -5.69604  -5.64938  -5.64084  -5.63963  -4.64092  -4.63995
                   2.00000   2.00000   2.00000   2.00000   2.00000   2.00000
                  --------  --------  --------  --------  --------  --------
13 S  pz             10.0       0.0       0.0       0.0       0.0       0.0
13 S  px             31.2       0.0       0.0       0.0       0.0       0.0
13 S  py             58.7       0.0       0.0       0.0       0.0       0.0
14 P  pz              0.0       0.0       0.0       0.0      15.5       4.0
14 P  px              0.0       0.0       0.0       0.0       4.5      93.9
14 P  py              0.0       0.0       0.0       0.0      79.9       2.0
15 S  pz              0.0      73.4      14.9      11.7       0.0       0.0
15 S  px              0.0      20.1      78.3       1.6       0.0       0.0
15 S  py              0.0       6.4       6.8      86.7       0.0       0.0

                     30        31        32        33        34        35   
                  -4.63851  -1.03461  -1.00559  -0.97520  -0.94010  -0.92973
                   2.00000   2.00000   2.00000   2.00000   2.00000   2.00000
                  --------  --------  --------  --------  --------  --------
 0 C  s               0.0       0.0       0.3       0.0       0.0       0.0
 0 C  px              0.0       0.0       0.3       0.0       0.0       0.0
 0 C  py              0.0       0.0       0.2       0.0       0.0       0.0
 1 C  s               0.0       0.0       4.5       0.0       0.0       0.0
 1 C  pz              0.0       0.0       0.2       0.0       0.0       0.0
 1 C  py              0.0       0.0       5.3       0.0       0.0       0.0
 1 C  dx2y2           0.0       0.0       0.3       0.0       0.0       0.0
 2 O  s               0.0       0.0      40.9       0.0       0.0       0.0
 2 O  pz              0.0       0.0       2.6       0.0       0.0       0.0
 2 O  px              0.0       0.0       0.6       0.0       0.0       0.0
 2 O  py              0.0       0.0       0.1       0.0       0.0       0.0
 3 C  s               0.0       0.0      19.0       0.0       0.0       0.0
 3 C  pz              0.0       0.0       0.1       0.0       0.0       0.0
 3 C  py              0.0       0.0       4.9       0.0       0.0       0.0
 3 C  dz2             0.0       0.0       0.2       0.0       0.0       0.0
 3 C  dxz             0.0       0.0       0.5       0.0       0.0       0.0
 3 C  dyz             0.0       0.0       0.3       0.0       0.0       0.0
 3 C  dx2y2           0.0       0.0       0.1       0.0       0.0       0.0
 4 O  s               0.0       0.0      11.3       0.0       0.0       0.0
 4 O  pz              0.0       0.0       2.3       0.0       0.0       0.0
 4 O  px              0.0       0.0       0.5       0.0       0.0       0.0
 5 C  s               0.0       0.1       1.0       0.0       0.0       0.0
 5 C  pz              0.0       0.0       0.2       0.0       0.0       0.0
 5 C  py              0.0       0.1       1.7       0.0       0.0       0.0
 6 C  s               0.0       1.1       0.1       0.0       0.3       0.0
 6 C  pz              0.0       0.3       0.0       0.0       0.1       0.0
 6 C  px              0.0       0.1       0.1       0.0       0.5       0.0
 6 C  py              0.0       1.5       0.1       0.0       0.1       0.0
 7 H  s               0.0       0.2       0.0       0.0       0.0       0.0
 8 C  s               0.0      19.3       0.0       0.0       4.4       0.3
 8 C  pz              0.0       0.4       0.0       0.0       1.1       0.1
 8 C  px              0.0       0.4       0.0       0.2      21.8       0.9
 8 C  py              0.0       4.3       0.0       0.1       1.2       0.0
 8 C  dz2             0.0       0.5       0.0       0.0       0.0       0.0
 8 C  dxz             0.0       0.1       0.0       0.0       0.5       0.0
 8 C  dx2y2           0.0       0.1       0.0       0.0       0.8       0.0
 8 C  dxy             0.0       0.5       0.0       0.0       0.6       0.0
 9 O  s               0.0      10.9       0.0       0.3      39.8       1.7
 9 O  pz              0.0       0.2       0.0       0.0       0.5       0.0
 9 O  px              0.0       2.4       0.0       0.0       3.4       0.2
 9 O  py              0.0       0.0       0.0       0.0       0.2       0.0
10 O  s               0.0      41.3       0.0       0.2      14.0       0.5
10 O  pz              0.0       0.2       0.0       0.0       0.1       0.0
10 O  px              0.0       3.0       0.0       0.0       0.2       0.0
10 O  py              0.0       0.2       0.0       0.0       0.2       0.0
11 C  s               0.0       4.2       0.0       0.0       1.8       0.1
11 C  pz              0.0       0.9       0.0       0.0       0.3       0.0
11 C  px              0.0       0.0       0.0       0.0       0.2       0.0
11 C  py              0.0       4.4       0.0       0.0       1.0       0.0
11 C  dyz             0.0       0.2       0.0       0.0       0.1       0.0
11 C  dx2y2           0.0       0.2       0.0       0.0       0.1       0.0
12 C  s               0.0       0.2       0.0       0.0       0.1       0.0
12 C  pz              0.0       0.5       0.0       0.0       0.2       0.0
13 S  s               0.0       0.1       0.0       0.3       0.1       0.0
13 S  pz              0.0       0.0       0.0       0.3       0.0       0.0
14 P  s               0.0       0.1       0.0      13.8       0.0       0.0
14 P  pz             80.5       0.0       0.0       0.0       0.1       0.2
14 P  px              1.5       0.0       0.0       4.1       0.0       2.0
14 P  py             17.9       0.1       0.0       0.9       1.2       7.1
14 P  dz2             0.0       0.0       0.0       0.8       0.0       0.0
14 P  dx2y2           0.0       0.0       0.0       0.0       0.1       2.0
14 P  dxy             0.0       0.0       0.0       0.0       0.0       1.1
15 S  s               0.0       0.0       0.0       0.3       0.0       0.0
15 S  pz              0.0       0.0       0.0       0.2       0.0       0.0
15 S  px              0.0       0.0       0.0       0.1       0.0       0.0
16 O  s               0.0       0.0       0.0      30.0       0.2      30.5
16 O  px              0.0       0.0       0.0       1.1       0.0       0.2
16 O  py              0.0       0.0       0.0       0.1       0.0       1.1
17 C  s               0.0       0.0       0.0       3.4       0.1       4.8
17 C  px              0.0       0.0       0.0       0.6       0.1       0.5
17 C  py              0.0       0.0       0.0       3.2       0.0       3.7
17 C  dx2y2           0.0       0.0       0.0       0.1       0.0       0.2
17 C  dxy             0.0       0.0       0.0       0.1       0.0       0.1
18 O  s               0.0       0.0       0.0      26.9       2.6      29.4
18 O  pz              0.0       0.0       0.0       0.8       0.1       0.8
18 O  px              0.0       0.0       0.0       0.1       0.0       0.2
18 O  py              0.0       0.0       0.0       0.9       0.0       0.1
19 C  s               0.0       0.0       0.0       3.4       0.4       4.4
19 C  pz              0.0       0.0       0.0       1.1       0.1       1.2
19 C  px              0.0       0.0       0.0       1.1       0.1       1.4
19 C  py              0.0       0.0       0.0       1.6       0.1       1.2
19 C  dxz             0.0       0.0       0.0       0.1       0.0       0.1
19 C  dyz             0.0       0.0       0.0       0.1       0.0       0.1
19 C  dxy             0.0       0.0       0.0       0.1       0.0       0.1
23 H  s               0.0       0.0       0.5       0.0       0.0       0.0
24 H  s               0.0       0.0       0.7       0.0       0.0       0.0
25 H  s               0.0       0.0       0.1       0.0       0.0       0.0
26 H  s               0.0       0.0       0.2       0.0       0.0       0.0
27 H  s               0.0       0.5       0.0       0.0       0.3       0.0
28 H  s               0.0       0.7       0.0       0.0       0.1       0.0
[...]
19 C  py              0.0       0.3       0.6       0.5       0.0       0.0
19 C  dz2             0.0       0.1       0.1       0.0       0.0       0.0
19 C  dxz             0.0       0.1       2.7       0.9       0.0       0.0
19 C  dyz             0.0       0.6       1.8       1.6       0.0       0.0
19 C  dxy             0.0       0.6       1.7       1.3       0.0       0.0

                    312       313       314       315   
                   3.48367   3.50601   3.56876   3.58583
                   0.00000   0.00000   0.00000   0.00000
                  --------  --------  --------  --------
 1 C  s               0.2       0.1       0.0       0.0
 1 C  py              0.3       0.2       0.0       0.0
 1 C  dz2             0.3       0.2       0.0       0.0
 1 C  dyz             0.0       0.0       0.3       0.3
 1 C  dx2y2           0.5       0.3       0.0       0.0
 2 O  s               0.4       0.2       0.4       0.3
 2 O  pz              0.3       0.2       0.1       0.1
 2 O  py              2.0       1.2       0.3       0.2
 2 O  dz2             0.2       0.1       1.7       1.8
 2 O  dxz             0.9       0.4       0.0       0.0
 2 O  dyz            17.5       9.2       2.1       1.1
 2 O  dx2y2           0.5       0.1       4.4       4.2
 2 O  dxy             4.2       2.3       0.5       0.3
 3 C  s               0.1       0.1       3.3       3.5
 3 C  pz              2.1       1.5       1.0       1.4
 3 C  px              0.5       0.3       0.2       0.3
 3 C  py              0.4       0.2       0.2       0.2
 3 C  dz2             0.0       0.0       3.1       3.5
 3 C  dxz             0.0       0.0       2.2       2.3
 3 C  dyz             8.8       5.5       1.5       0.7
 3 C  dx2y2           0.1       0.0       0.3       0.4
 3 C  dxy             2.1       1.3       0.4       0.2
 4 O  s               0.6       0.7       1.6       2.3
 4 O  pz              0.5       0.5       0.9       1.2
 4 O  px              0.1       0.1       0.2       0.3
 4 O  py              0.2       0.1       0.3       0.2
 4 O  dz2             6.7       5.9       7.1       9.2
 4 O  dxz             4.0       3.6       6.9       8.8
 4 O  dyz             4.4       2.2       7.4       6.2
 4 O  dx2y2           1.1       0.7       0.1       0.2
 4 O  dxy             0.9       0.5       1.6       1.4
 5 C  py              0.2       0.1       0.1       0.0
 5 C  dz2             0.3       0.4       0.0       0.0
 5 C  dyz             0.0       0.0       0.2       0.2
 5 C  dx2y2           0.4       0.6       0.0       0.0
 6 C  py              0.1       0.2       0.0       0.1
 6 C  dyz             0.1       0.2       0.0       0.1
 6 C  dx2y2           0.4       0.7       0.0       0.0
 6 C  dxy             0.0       0.1       0.1       0.4
 8 C  s               0.0       0.2       3.9       3.4
 8 C  pz              0.1       0.1       0.3       0.2
 8 C  px              1.8       2.3       1.7       1.3
 8 C  py              0.2       0.5       0.1       0.2
 8 C  dz2             0.3       0.6       0.8       0.7
 8 C  dxz             0.5       0.6       0.8       0.6
 8 C  dyz             0.3       0.5       0.1       0.2
 8 C  dx2y2           0.0       0.1       4.1       4.6
 8 C  dxy             5.6       9.9       0.5       0.9
 9 O  s               0.5       0.6       2.4       1.9
 9 O  pz              0.0       0.0       0.3       0.3
 9 O  px              0.6       0.6       1.6       1.3
 9 O  py              0.2       0.3       0.1       0.2
 9 O  dz2             1.1       1.0       2.1       1.6
 9 O  dxz             0.6       0.3       8.6       7.5
 9 O  dyz             0.5       1.0       0.7       0.7
 9 O  dx2y2           6.9       7.4      11.1       8.6
 9 O  dxy             2.4       4.6       4.8       5.4
10 O  s               0.3       0.8       0.2       0.3
10 O  pz              0.1       0.2       0.0       0.0
10 O  px              0.3       0.6       0.1       0.1
10 O  py              1.1       2.1       0.1       0.2
10 O  dz2             1.8       3.6       0.6       0.8
10 O  dxz             0.3       0.6       0.3       0.4
10 O  dyz             0.5       0.5       0.8       0.6
10 O  dx2y2           0.2       0.1       3.3       3.3
10 O  dxy            11.2      19.6       1.4       2.2
11 C  s               0.1       0.2       0.0       0.0
11 C  py              0.2       0.3       0.0       0.0
11 C  dyz             0.1       0.2       0.1       0.1
11 C  dx2y2           0.3       0.5       0.0       0.0
11 C  dxy             0.0       0.0       0.2       0.2


                      *****************************
                      * MAYER POPULATION ANALYSIS *
                      *****************************

  NA   - Mulliken gross atomic population
  ZA   - Total nuclear charge
  QA   - Mulliken gross atomic charge
  VA   - Mayer's total valence
  BVA  - Mayer's bonded valence
  FA   - Mayer's free valence

  ATOM       NA         ZA         QA         VA         BVA        FA
  0 C      6.3082     6.0000    -0.3082     4.0137     4.0137    -0.0000
  1 C      6.0072     6.0000    -0.0072     4.0501     4.0501     0.0000
  2 O      8.2137     8.0000    -0.2137     2.2972     2.2972     0.0000
  3 C      5.8796     6.0000     0.1204     4.4100     4.4100     0.0000
  4 O      8.2078     8.0000    -0.2078     2.2812     2.2812    -0.0000
  5 C      6.0655     6.0000    -0.0655     3.8109     3.8109     0.0000
  6 C      6.3250     6.0000    -0.3250     3.9488     3.9488     0.0000
  7 H      0.8433     1.0000     0.1567     0.9528     0.9528    -0.0000
  8 C      5.7736     6.0000     0.2264     4.2675     4.2675    -0.0000
  9 O      8.1909     8.0000    -0.1909     2.3009     2.3009    -0.0000
 10 O      8.2172     8.0000    -0.2172     2.3110     2.3110     0.0000
 11 C      6.0124     6.0000    -0.0124     4.0224     4.0224     0.0000
 12 C      6.3156     6.0000    -0.3156     4.0043     4.0043    -0.0000
 13 S     16.1110    16.0000    -0.1110     2.2614     2.2614    -0.0000
 14 P     14.3597    15.0000     0.6403     4.9311     4.9311    -0.0000
 15 S     16.3221    16.0000    -0.3221     2.0202     2.0202    -0.0000
 16 O      8.3976     8.0000    -0.3976     2.1777     2.1777     0.0000
 17 C      6.0798     6.0000    -0.0798     3.8328     3.8328     0.0000
 18 O      8.3683     8.0000    -0.3683     2.1579     2.1579    -0.0000
 19 C      6.1129     6.0000    -0.1129     3.8461     3.8461     0.0000
 20 H      0.8733     1.0000     0.1267     0.9685     0.9685     0.0000
 21 H      0.8832     1.0000     0.1168     0.9563     0.9563    -0.0000
 22 H      0.8889     1.0000     0.1111     0.9548     0.9548     0.0000
 23 H      0.8956     1.0000     0.1044     0.9515     0.9515     0.0000
 24 H      0.8952     1.0000     0.1048     0.9760     0.9760     0.0000
 25 H      0.8857     1.0000     0.1143     0.9700     0.9700    -0.0000
 26 H      0.8793     1.0000     0.1207     1.0274     1.0274     0.0000
 27 H      0.8906     1.0000     0.1094     0.9491     0.9491     0.0000
 28 H      0.8885     1.0000     0.1115     0.9765     0.9765    -0.0000
 29 H      0.8536     1.0000     0.1464     0.9893     0.9893     0.0000
 30 H      0.8835     1.0000     0.1165     0.9560     0.9560     0.0000
 31 H      0.8859     1.0000     0.1141     0.9544     0.9544    -0.0000
 32 H      0.8851     1.0000     0.1149     0.9950     0.9950     0.0000
 33 H      0.8841     1.0000     0.1159     0.9494     0.9494     0.0000
 34 H      0.8839     1.0000     0.1161     0.9668     0.9668     0.0000
 35 H      0.8791     1.0000     0.1209     0.9607     0.9607    -0.0000
 36 H      0.8802     1.0000     0.1198     0.9658     0.9658     0.0000
 37 H      0.8730     1.0000     0.1270     0.9541     0.9541    -0.0000

  Mayer bond orders larger than 0.100000
B(  0-C ,  1-C ) :   1.1725 B(  0-C , 20-H ) :   0.9460 B(  0-C , 21-H ) :   0.9482 
B(  0-C , 22-H ) :   0.9446 B(  1-C ,  2-O ) :   0.9181 B(  1-C , 23-H ) :   0.9363 
B(  1-C , 24-H ) :   0.9155 B(  2-O ,  3-C ) :   1.2425 B(  3-C ,  4-O ) :   2.0422 
B(  3-C ,  5-C ) :   1.0083 B(  5-C ,  6-C ) :   1.0558 B(  5-C , 25-H ) :   0.8757 
B(  5-C , 26-H ) :   0.8709 B(  6-C ,  7-H ) :   0.8592 B(  6-C ,  8-C ) :   0.9146 
B(  6-C , 13-S ) :   1.0500 B(  8-C ,  9-O ) :   1.9463 B(  8-C , 10-O ) :   1.2849 
B( 10-O , 11-C ) :   0.8944 B( 11-C , 12-C ) :   1.1784 B( 11-C , 27-H ) :   0.9361 
B( 11-C , 28-H ) :   0.9138 B( 12-C , 29-H ) :   0.9297 B( 12-C , 30-H ) :   0.9482 
B( 12-C , 31-H ) :   0.9410 B( 13-S , 14-P ) :   0.9133 B( 13-S , 15-S ) :   0.1117 
B( 14-P , 15-S ) :   1.5804 B( 14-P , 16-O ) :   1.0909 B( 14-P , 18-O ) :   1.1060 
B( 16-O , 17-C ) :   0.9279 B( 17-C , 32-H ) :   0.9421 B( 17-C , 33-H ) :   0.9540 
B( 17-C , 34-H ) :   0.9526 B( 18-O , 19-C ) :   0.9344 B( 19-C , 35-H ) :   0.9360 
B( 19-C , 36-H ) :   0.9461 B( 19-C , 37-H ) :   0.9605 

-------
TIMINGS
-------

Total SCF time: 0 days 0 hours 0 min 13 sec 

Total time                  ....      13.048 sec
Sum of individual times     ....      13.018 sec  ( 99.8%)

SCF preparation             ....       2.449 sec  ( 18.8%)
Fock matrix formation       ....       4.930 sec  ( 37.8%)
  Startup                   ....       0.009 sec  (  0.2% of F)
  Split-RI-J                ....       3.092 sec  ( 62.7% of F)
  XC integration            ....       1.792 sec  ( 36.4% of F)
    Basis function eval.    ....       0.720 sec  ( 40.2% of XC)
    Density eval.           ....       0.447 sec  ( 25.0% of XC)
    XC-Functional eval.     ....       0.099 sec  (  5.5% of XC)
    XC-Potential eval.      ....       0.433 sec  ( 24.2% of XC)
Diagonalization             ....       0.000 sec  (  0.0%)
Density matrix formation    ....       0.013 sec  (  0.1%)
Total Energy calculation    ....       0.001 sec  (  0.0%)
Population analysis         ....       5.535 sec  ( 42.4%)
Orbital Transformation      ....       0.019 sec  (  0.1%)
Orbital Orthonormalization  ....       0.000 sec  (  0.0%)
DIIS solution               ....       0.025 sec  (  0.2%)
  MO trafo                  ....       0.000 sec  (  0.0 % of DIIS)
  Orb grad                  ....       0.000 sec  (  0.0 % of DIIS)
  Energy W gradient         ....       0.000 sec  (  0.0 % of DIIS)
  DIIS error                ....       0.004 sec  ( 15.2 % of DIIS)
  DIIS work                 ....       0.021 sec  ( 83.8 % of DIIS)
  Form Q                    ....       0.000 sec  (  0.0 % of DIIS)
  Form QpQm                 ....       0.000 sec  (  0.0 % of DIIS)
  Exp/Cayley                ....       0.000 sec  (  0.0 % of DIIS)
  Orb update                ....       0.000 sec  (  0.0 % of DIIS)
  Wake-sleep                ....       0.000 sec  (  1.1 % of DIIS)
SOSCF solution              ....       0.047 sec  (  0.4%)
  MO trafo                  ....       0.029 sec  ( 62.3 % of SOSCF)
  Orb grad                  ....       0.000 sec  (  0.7 % of SOSCF)
  Rot update                ....       0.002 sec  (  4.1 % of SOSCF)
  Step                      ....       0.015 sec  ( 32.3 % of SOSCF)
Finished LeanSCF after  19.9 sec

Maximum memory used throughout the entire LEANSCF-calculation: 33.5 MB


-------------------------------------------------------------------------------
                          DFT DISPERSION CORRECTION                            
                                                                               
                                DFTD4 V3.4.0                                   
-------------------------------------------------------------------------------
The PBE functional is recognized
Active option DFTDOPT                   ...         5   

-------------------------   ----------------
Dispersion correction           -0.052674444
-------------------------   ----------------

------------------   -----------------
gCP correction             0.182794430
------------------   -----------------

-------------------------   --------------------
FINAL SINGLE POINT ENERGY     -1979.011362724939
-------------------------   --------------------


------------------------------------------------------------------------------
                              ORCA PROPERTY CALCULATIONS
------------------------------------------------------------------------------

GBWName                                 ... sp.gbw
Number of atoms                         ...     38
Number of basis functions               ...    316
Max core memory                         ...   1024 MB

Electric properties:
Dipole moment                           ... YES
Quadrupole moment                       ...  NO
Static polarizability (Dipole/Dipole)   ...  NO
Static polarizability (Dipole/Quad.)    ...  NO
Static polarizability (Quad./Quad.)     ...  NO
Static polarizability (Velocity)        ...  NO

Atomic electric properties:
Dipole moment                           ...  NO
Quadrupole moment                       ...  NO
Static polarizability                   ...  NO

Choice of electric origin               ... Center of mass
Position of electric origin             ...     0.000001    -0.000000     0.000006

General magnetic properties:
Magnetizability                         ...  NO

EPR properties:
g-Tensor (aka g-matrix)                 ...  NO
Zero-Field splitting spin-orbit         ...  NO
Zero-field splitting spin-spin          ...  NO
Hyperfine couplings                     ...  NO (   0 nuclei)
Quadrupole couplings                    ...  NO (   0 nuclei)
Contact density                         ...  NO (   0 nuclei)

NMR properties:
Chemical shifts                         ...  NO (   0 nuclei)
Spin-rotation constants                 ...  NO (   0 nuclei)
Spin-spin couplings                     ...  NO (   0 nuclei,    0 pairs)

Choice of magnetic origin               ... GIAO
Position of magnetic origin             ...     0.000000     0.000000     0.000000

Properties with geometric perturbations:
SCF Hessian                             ...  NO
IR spectrum                             ...  NO
VCD spectrum                            ...  NO
X-ray spectroscopy properties:
SCF XES/XAS/RIXS spectra                ...  NO


-------------
DIPOLE MOMENT
-------------

Method             : SCF
Type of density    : Electron Density
Multiplicity       :   1
Irrep              :   0
Energy             : -1979.1414827105045333 Eh
Relativity type    : 
Basis              : AO
                                X                 Y                 Z
Electronic contribution:     -7.139996811       0.526765386      -2.021446784
Nuclear contribution   :      6.829754805       0.039863201       1.661700488
                        -----------------------------------------
Total Dipole Moment    :     -0.310242005       0.566628587      -0.359746295
                        -----------------------------------------
Magnitude (a.u.)       :      0.739415617
Magnitude (Debye)      :      1.879445137



--------------------
Rotational spectrum 
--------------------
 
Rotational constants in cm-1:             0.011825             0.008214             0.005932 
Rotational constants in MHz :           354.489819           246.258283           177.851508 

Dipole components along the rotational axes: 
x,y,z [a.u.] :     0.545762     0.105394    -0.487618 
x,y,z [Debye]:     1.387218     0.267891    -1.239425 

 

Dipole moment calculation done in   1.9 sec 

Maximum memory used throughout the entire PROP-calculation: 23.4 MB

--------------------------------
SUGGESTED CITATIONS FOR THIS RUN
--------------------------------

Below you find a list of papers that are relevant to this ORCA run
We neither can nor want to force you to cite these papers, but we appreciate if you do
You receive ORCA, which is the product of decades of hard work by many enthusiastic individuals, for free
The only thing we kindly ask in return is that you cite our papers,
We deeply appreciate it, if you show your appreciation for ORCA by not just citing the generic ORCA reference.

Please note that relegating all ORCA citations to the supporting information does *not* help us.
SI sections are not indexed - citations you put there will not count into any citation statistics
But we need these citations in order to attract the funding resources that allow us to do what we are doing

Therefore, if you are a happy ORCA user, please consider citing a few of the papers listed below in the main body of your paper

In addition to the list printed below, the program has created the file sp.bibtex that contains the list in bibtex format
You can import this file easily into all common literature databanks and citation aid programs


List of essential papers. We consider these as the minimum necessary citations

  1. Neese,F.
     Software update: the ORCA program system, version 5.0
     WIRES Comput. Molec. Sci., 2022 12(1)e1606
     doi.org/10.1002/wcms.1606

List of papers to cite with high priority. The work reported in these papers was absolutely
necessary for this run to complete.
Our perspective: the developers of density functionals and basis sets usually get cited in chemistry papers
Good! But without the algorithms to do something with them, the functionals or basis sets would not do anything.
Hence, in our opinion, the algorithm design and method developments papers are equally worthy of getting cited

  1. Neese,F.
     An improvement of the resolution of the identity approximation for the formation of the Coulomb matrix
     J. Comp. Chem., 2003 24(14)1740-1747
     doi.org/10.1002/jcc.10318
  2. Neese,F.
     The SHARK Integral Generation and Digestion System
     J. Comp. Chem., 2022  1-16
     doi.org/10.1002/jcc.26942
  3. Caldeweyher,E.; Bannwarth,C.; Grimme,S.
     Extension of the D3 dispersion coefficient model
     J. Chem. Phys., 2017 147 034112
     doi.org/10.1063/1.4993215
  4. Caldeweyher,E.; Ehlert,S.; Hansen,A.; Neugebauer,H.; Spicher,S.; Bannwarth,C.; Grimme,S.
     A generally applicable atomic-charge dependent London dispersion correction
     J. Chem. Phys., 2019 150 154122
     doi.org/10.1063/1.5090222
  5. Caldeweyher,E.; Mewes,J.; Ehlert,S.; Grimme,S.
     Extension and evaluation of the D4 London-dispersion model for periodic systems
     Phys. Chem. Chem. Phys., 2020 22(16)8499-8512
     doi.org/10.1039/D0CP00502A
  6. Wittmann,L.; Gordiy,I.; Friede,M.; Helmich-Paris,B.; Grimme,S.; Hansen,A.; Bursch,M.
     Extension of the D3 and D4 London Dispersion Corrections to the full Actinides Series
     Phys. Chem. Chem. Phys., 2024 26(32)21379-21394
     doi.org/https://doi.org/10.1039/D4CP01514B 

List of suggested additional citations. These are papers that are important in the 'surrounding' of 
of this run, or papers that preceded the highly important papers. If you like your results we are grateful for a citation.

  1. Neese,F.
     The ORCA program system
     WIRES Comput. Molec. Sci., 2012 2(1)73-78
     doi.org/10.1002/wcms.81
  2. Neese,F.
     Software update: the ORCA program system, version 4.0
     WIRES Comput. Molec. Sci., 2018 8(1)1-6
     doi.org/10.1002/wcms.1327
  3. Neese,F.; Wennmohs,F.; Becker,U.; Riplinger,C.
     The ORCA quantum chemistry program package
     J. Chem. Phys., 2020 152 Art. No. L224108
     doi.org/10.1063/5.0004608

List of optional additional citations

  1. Neese,F.
     Approximate second-order SCF convergence for spin unrestricted wavefunctions
     Chem. Phys. Lett., 2000 325(1-3)93-98
     doi.org/10.1016/s0009-2614(00)00662-x

Timings for individual modules:

Sum of individual times          ...       23.249 sec (=   0.387 min)
Startup calculation              ...        1.216 sec (=   0.020 min)   5.2 %
SCF iterations                   ...       20.067 sec (=   0.334 min)  86.3 %
Property calculations            ...        1.966 sec (=   0.033 min)   8.5 %
                             ****ORCA TERMINATED NORMALLY****
TOTAL RUN TIME: 0 days 0 hours 0 minutes 37 seconds 306 msec
