13
 energy: -19.960205328515 gnorm: 0.021734151769 xtb: 6.7.1 (edcfbbe)
C           -1.87322235625760        0.00599911135434        0.00006664833994
C           -1.17194993365334       -1.19924252084229        0.00046325852088
C            0.21919905638618       -1.21222424386553        0.00048428952292
C            0.91361868120132       -0.00273563677920        0.00011531260776
C            0.22566581326280        1.21069443023337       -0.00030041123748
C           -1.16656548971353        1.20679478807308       -0.00032508270545
O            2.29041590721259       -0.06052072989782        0.00019223901634
H           -2.95797384480165        0.00894507878263        0.00005480465137
H           -1.71099865806499       -2.14167840492312        0.00080998570515
H            0.77138309898689       -2.14646999787292        0.00081776284758
H            0.78120654712654        2.14462371992629       -0.00060398539805
H           -1.69904707049330        2.15297956094267       -0.00065235664736
H            2.64008113499302        0.84159679591317       -0.00008494264831
13
 energy: -19.960911039925 gnorm: 0.009683134468 xtb: 6.7.1 (edcfbbe)
C           -1.86326367129914        0.00614115303140        0.00006593782988
C           -1.16970550183603       -1.19418254047695        0.00048208464744
C            0.21351926582593       -1.20669148758318        0.00051054313868
C            0.91189613511765       -0.00383732602400        0.00012589901571
C            0.22241013969695        1.20308512889555       -0.00029395554301
C           -1.16205503123131        1.20057731487371       -0.00032327597618
O            2.28069474516535       -0.05902456348331        0.00018050204219
H           -2.94285894850844        0.01006587249891        0.00004403123157
H           -1.70851437718720       -2.13102536069855        0.00077391505646
H            0.76477240885499       -2.13470249613470        0.00082084792806
H            0.76895436788809        2.13615781835286       -0.00059334517779
H           -1.69366326004438        2.14167767775365       -0.00064798645608
H            2.63962661374247        0.84052076003928       -0.00010767516166
13
 energy: -19.960986162762 gnorm: 0.004102560440 xtb: 6.7.1 (edcfbbe)
C           -1.86164639774680        0.00624066433106        0.00006137786164
C           -1.16976682126180       -1.19339427083628        0.00047243640231
C            0.21157068619525       -1.20481129279797        0.00050767694457
C            0.91359417260055       -0.00399253762371        0.00012633240157
C            0.22142308296938        1.20081895671534       -0.00028904128524
C           -1.16166631738618        1.19950925831386       -0.00031878759312
O            2.27690138044365       -0.05877463246954        0.00017551890985
H           -2.94014828071617        0.01033029427839        0.00003999257278
H           -1.70821188438093       -2.12868424802036        0.00077759010530
H            0.76460744188029       -2.13021825623120        0.00083048446624
H            0.76357951282927        2.13498349221476       -0.00058844220511
H           -1.69322393440716        2.13897300878426       -0.00064514237113
H            2.64480024516558        0.83778151438607       -0.00011247363437
13
 energy: -19.961001143114 gnorm: 0.001073180286 xtb: 6.7.1 (edcfbbe)
C           -1.86231063282480        0.00627039283880        0.00006236133655
C           -1.17009516802391       -1.19356090349627        0.00047863526998
C            0.21103795694870       -1.20412326452170        0.00051221248011
C            0.91509022893953       -0.00360756771482        0.00012644435285
C            0.22103792156700        1.20059420675511       -0.00028969984009
C           -1.16229473959407        1.19970968958101       -0.00031983388073
O            2.27553683608700       -0.05902490510881        0.00017442032594
H           -2.94095002078976        0.01015255828949        0.00003531177821
H           -1.70819471289020       -2.12889185199582        0.00077259467817
H            0.76575240947754       -2.12881102004664        0.00083028788673
H            0.76147292482536        2.13593481937275       -0.00058811773866
H           -1.69394385034958        2.13896631418196       -0.00064248477371
H            2.64967373281211        0.83515348290962       -0.00011460930008
13
 energy: -19.961003159395 gnorm: 0.000670205170 xtb: 6.7.1 (edcfbbe)
C           -1.86338187508926        0.00625047625176        0.00006151638955
C           -1.17025476319674       -1.19376192714391        0.00047176738995
C            0.21099741530899       -1.20375078246669        0.00050669078667
C            0.91582181006545       -0.00290929616297        0.00012628027473
C            0.22072273580974        1.20110545698833       -0.00028911278287
C           -1.16308009558327        1.20001590961127       -0.00031885435928
O            2.27513841812795       -0.05946275103210        0.00017613100090
H           -2.94238047437689        0.00974986621869        0.00004108707217
H           -1.70802875158661       -2.12965817340569        0.00077808647119
H            0.76678599599486       -2.12846997121637        0.00082890909789
H            0.76075437339227        2.13724191818730       -0.00059452863352
H           -1.69477778074757        2.13958274333880       -0.00064335751712
H            2.65349587806600        0.83282848187626       -0.00010709261499
13
 energy: -19.961003485154 gnorm: 0.000082386237 xtb: 6.7.1 (edcfbbe)
C           -1.86325783061639        0.00623899264453        0.00006420475521
C           -1.17014875980570       -1.19367533509230        0.00047884337906
C            0.21105625218939       -1.20376880628380        0.00051021709144
C            0.91546701260625       -0.00284370988425        0.00012498679623
C            0.22069988824428        1.20118459816988       -0.00029177337234
C           -1.16301771077465        1.19990072253475       -0.00032072093497
O            2.27527013278197       -0.05947336093069        0.00017597148511
H           -2.94218165526274        0.00971307706117        0.00003913440204
H           -1.70794478175023       -2.12956943981629        0.00077326347390
H            0.76655878096319       -2.12854769958207        0.00082700597837
H            0.76099575124445        2.13708848017604       -0.00059235145319
H           -1.69466454977469        2.13951018325733       -0.00064344777323
H            2.65298035613979        0.83300424879039       -0.00010781125237
13
 energy: -19.961003496209 gnorm: 0.000027575988 xtb: 6.7.1 (edcfbbe)
C           -1.86324735660904        0.00623854772577        0.00006187057508
C           -1.17013137578207       -1.19366515773017        0.00047257691866
C            0.21104305869436       -1.20373403428868        0.00050710794653
C            0.91542011778247       -0.00278672196076        0.00012587529032
C            0.22067101140643        1.20120410644605       -0.00029041243160
C           -1.16304308409142        1.19986878561725       -0.00031871365604
O            2.27520375533408       -0.05949976534422        0.00017576924057
H           -2.94214501167299        0.00968382914686        0.00004147435257
H           -1.70792498459564       -2.12953899430329        0.00077743747380
H            0.76656624983546       -2.12845510128735        0.00082845861645
H            0.76092648216658        2.13709331208478       -0.00059444507579
H           -1.69466816491340        2.13947601470372       -0.00064348624702
H            2.65314218863010        0.83287713023472       -0.00010599042825
