      -----------------------------------------------------------      
     |                   =====================                   |     
     |                           x T B                           |     
     |                   =====================                   |     
     |                         S. Grimme                         |     
     |          Mulliken Center for Theoretical Chemistry        |     
     |                    University of Bonn                     |     
      -----------------------------------------------------------      

   * xtb version 6.7.1 (edcfbbe) compiled by 'albert@albert-system' on 2024-07-22

   xtb is free software: you can redistribute it and/or modify it under
   the terms of the GNU Lesser General Public License as published by
   the Free Software Foundation, either version 3 of the License, or
   (at your option) any later version.
   
   xtb is distributed in the hope that it will be useful,
   but WITHOUT ANY WARRANTY; without even the implied warranty of
   MERCHANTABILITY or FITNESS FOR A PARTICULAR PURPOSE.  See the
   GNU Lesser General Public License for more details.
   
   Cite this work as:
   * C. Bannwarth, E. Caldeweyher, S. Ehlert, A. Hansen, P. Pracht,
     J. Seibert, S. Spicher, S. Grimme, WIREs Comput. Mol. Sci., 2020, 11,
     e01493. DOI: 10.1002/wcms.1493
   
   for GFN2-xTB:
   * C. Bannwarth, S. Ehlert and S. Grimme., J. Chem. Theory Comput., 2019,
     15, 1652-1671. DOI: 10.1021/acs.jctc.8b01176
   for GFN1-xTB:
   * S. Grimme, C. Bannwarth, P. Shushkov, J. Chem. Theory Comput., 2017,
     13, 1989-2009. DOI: 10.1021/acs.jctc.7b00118
   for GFN0-xTB:
   * P. Pracht, E. Caldeweyher, S. Ehlert, S. Grimme, ChemRxiv, 2019, preprint.
     DOI: 10.26434/chemrxiv.8326202.v1
   for GFN-FF:
   * S. Spicher and S. Grimme, Angew. Chem. Int. Ed., 2020, 59, 15665-15673.
     DOI: 10.1002/anie.202004239
   
   for ALPB and GBSA implicit solvation:
   * S. Ehlert, M. Stahn, S. Spicher, S. Grimme, J. Chem. Theory Comput.,
     2021, 17, 4250-4261. DOI: 10.1021/acs.jctc.1c00471
   
   for ddCOSMO and CPCM-X implicit solvation:
   * M. Stahn, S. Ehlert, S. Grimme, J. Phys. Chem. A,
     2023, XX, XXXX-XXXX. DOI: 10.1021/acs.jpca.3c04382
   
   for DFT-D4:
   * E. Caldeweyher, C. Bannwarth and S. Grimme, J. Chem. Phys., 2017,
     147, 034112. DOI: 10.1063/1.4993215
   * E. Caldeweyher, S. Ehlert, A. Hansen, H. Neugebauer, S. Spicher,
     C. Bannwarth and S. Grimme, J. Chem. Phys., 2019, 150, 154122.
     DOI: 10.1063/1.5090222
   * E. Caldeweyher, J.-M. Mewes, S. Ehlert and S. Grimme, Phys. Chem. Chem. Phys.
     2020, 22, 8499-8512. DOI: 10.1039/D0CP00502A
   
   for sTDA-xTB:
   * S. Grimme and C. Bannwarth, J. Chem. Phys., 2016, 145, 054103.
     DOI: 10.1063/1.4959605
   
   in the mass-spec context:
   * V. Asgeirsson, C. Bauer and S. Grimme, Chem. Sci., 2017, 8, 4879.
     DOI: 10.1039/c7sc00601b
   * J. Koopman and S. Grimme, ACS Omega 2019, 4, 12, 15120-15133.
     DOI: 10.1021/acsomega.9b02011
   
   for metadynamics refer to:
   * S. Grimme, J. Chem. Theory Comput., 2019, 155, 2847-2862
     DOI: 10.1021/acs.jctc.9b00143
   
   for SPH calculations refer to:
   * S. Spicher and S. Grimme, J. Chem. Theory Comput., 2021, 17, 1701-1714
     DOI: 10.1021/acs.jctc.0c01306
   
   for ONIOM refer to:
   * C. Plett, A. Katbashev, S. Ehlert, S. Grimme, M. Bursch,
     Phys. Chem. Chem. Phys., 2023, 25, 17860-17868. DOI: 10.1039/D3CP02178E
   
   for DIPRO refer to:
   * J. Kohn, N. Gildemeister, S. Grimme, D. Fazzi, A. Hansen,
     J. Chem. Phys., 2023, just accepted.
   
   for PTB refer to:
   * S. Grimme, M. Mueller, A. Hansen, J. Chem. Phys., 2023, 158, 124111.
     DOI: 10.1063/5.0137838
   
   with help from (in alphabetical order)
   P. Atkinson, C. Bannwarth, F. Bohle, G. Brandenburg, E. Caldeweyher
   M. Checinski, S. Dohm, S. Ehlert, S. Ehrlich, I. Gerasimov, C. Hölzer
   A. Katbashev, J. Kohn, J. Koopman, C. Lavigne, S. Lehtola, F. März, M. Müller,
   F. Musil, H. Neugebauer, J. Pisarek, C. Plett, P. Pracht, F. Pultar,
   J. Seibert, P. Shushkov, S. Spicher, M. Stahn, M. Steiner, T. Strunk,
   J. Stückrath, T. Rose, and J. Unsleber
   
 * started run on 2025/04/09 at 07:31:36.549     
   ID    Z sym.   atoms
    1    6 C      1, 2, 4, 6, 7, 9, 12, 13, 18, 20
    2    8 O      3, 5, 10, 11, 17, 19
    3    1 H      8, 21-38
    4   16 S      14, 16
    5   15 P      15

           -------------------------------------------------
          |                Calculation Setup                |
           -------------------------------------------------

          program call               : /software/projects/pawsey0265/mwang1/xtb/bin/xtb gas.coord --gfn2 --sp --chrg 0 --norestart --parallel 1
          hostname                   : nid002043
          coordinate file            : gas.coord
          omp threads                :                     1


           -------------------------------------------------
          |                 G F N 2 - x T B                 |
           -------------------------------------------------

        Reference                      10.1021/acs.jctc.8b01176
      * Hamiltonian:
        H0-scaling (s, p, d)           1.850000    2.230000    2.230000
        zeta-weighting                 0.500000
      * Dispersion:
        s8                             2.700000
        a1                             0.520000
        a2                             5.000000
        s9                             5.000000
      * Repulsion:
        kExp                           1.500000    1.000000
        rExp                           1.000000
      * Coulomb:
        alpha                          2.000000
        third order                    shell-resolved
        anisotropic                    true
        a3                             3.000000
        a5                             4.000000
        cn-shift                       1.200000
        cn-exp                         4.000000
        max-rad                        5.000000


          ...................................................
          :                      SETUP                      :
          :.................................................:
          :  # basis functions                 113          :
          :  # atomic orbitals                 110          :
          :  # shells                           60          :
          :  # electrons                       112          :
          :  max. iterations                   250          :
          :  Hamiltonian                  GFN2-xTB          :
          :  restarted?                      false          :
          :  GBSA solvation                  false          :
          :  PC potential                    false          :
          :  electronic temp.          300.0000000     K    :
          :  accuracy                    1.0000000          :
          :  -> integral cutoff          0.2500000E+02      :
          :  -> integral neglect         0.1000000E-07      :
          :  -> SCF convergence          0.1000000E-05 Eh   :
          :  -> wf. convergence          0.1000000E-03 e    :
          :  Broyden damping             0.4000000          :
          :  net charge                          0          :
          :  unpaired electrons                  0          :
          ...................................................

 iter      E             dE          RMSdq      gap      omega  full diag
   1    -65.0405336 -0.650405E+02  0.587E+00    4.32       0.0  T
   2    -65.2011480 -0.160614E+00  0.334E+00    2.86       1.0  T
   3    -65.2121137 -0.109657E-01  0.145E+00    2.90       1.0  T
   4    -65.2191759 -0.706228E-02  0.480E-01    2.57       1.0  T
   5    -65.2207153 -0.153939E-02  0.230E-01    2.71       1.0  T
   6    -65.2208791 -0.163729E-03  0.931E-02    2.70       1.0  T
   7    -65.2208922 -0.130895E-04  0.345E-02    2.70       1.0  T
   8    -65.2208968 -0.466851E-05  0.183E-02    2.70       1.0  T
   9    -65.2208981 -0.126086E-05  0.348E-03    2.70       4.7  T
  10    -65.2208982 -0.968047E-07  0.196E-03    2.70       8.3  T
  11    -65.2208982 -0.399551E-08  0.520E-04    2.70      31.2  T
  12    -65.2208982 -0.102861E-08  0.179E-04    2.70      90.9  T

   *** convergence criteria satisfied after 12 iterations ***

         #    Occupation            Energy/Eh            Energy/eV
      -------------------------------------------------------------
         1        2.0000           -0.7675875             -20.8871
       ...           ...                  ...                  ...
        50        2.0000           -0.4512811             -12.2800
        51        2.0000           -0.4379900             -11.9183
        52        2.0000           -0.4323508             -11.7649
        53        2.0000           -0.4271630             -11.6237
        54        2.0000           -0.3972372             -10.8094
        55        2.0000           -0.3621947              -9.8558
        56        2.0000           -0.3572813              -9.7221 (HOMO)
        57                         -0.2578873              -7.0175 (LUMO)
        58                         -0.2424547              -6.5975
        59                         -0.2369866              -6.4487
        60                         -0.1865488              -5.0763
        61                         -0.1542667              -4.1978
       ...                                ...                  ...
       110                          1.3430776              36.5470
      -------------------------------------------------------------
                  HL-Gap            0.0993940 Eh            2.7046 eV
             Fermi-level           -0.3075843 Eh           -8.3698 eV

 SCC (total)                   0 d,  0 h,  0 min,  0.115 sec
 SCC setup                      ...        0 min,  0.000 sec (  0.405%)
 Dispersion                     ...        0 min,  0.000 sec (  0.431%)
 classical contributions        ...        0 min,  0.000 sec (  0.085%)
 integral evaluation            ...        0 min,  0.039 sec ( 34.154%)
 iterations                     ...        0 min,  0.041 sec ( 35.458%)
 molecular gradient             ...        0 min,  0.034 sec ( 29.152%)
 printout                       ...        0 min,  0.000 sec (  0.287%)

         :::::::::::::::::::::::::::::::::::::::::::::::::::::
         ::                     SUMMARY                     ::
         :::::::::::::::::::::::::::::::::::::::::::::::::::::
         :: total energy             -64.648742109885 Eh    ::
         :: gradient norm              0.047153748653 Eh/a0 ::
         :: HOMO-LUMO gap              2.704648261647 eV    ::
         ::.................................................::
         :: SCC energy               -65.220367274654 Eh    ::
         :: -> isotropic ES            0.142006492775 Eh    ::
         :: -> anisotropic ES         -0.009612268555 Eh    ::
         :: -> anisotropic XC          0.016852479056 Eh    ::
         :: -> dispersion             -0.040293991683 Eh    ::
         :: repulsion energy           0.571625164769 Eh    ::
         :: add. restraining           0.000000000000 Eh    ::
         :: total charge               0.000000000000 e     ::
         :::::::::::::::::::::::::::::::::::::::::::::::::::::

           -------------------------------------------------
          |                Property Printout                |
           -------------------------------------------------

    * Orbital Energies and Occupations

         #    Occupation            Energy/Eh            Energy/eV
      -------------------------------------------------------------
         1        2.0000           -0.7675875             -20.8871
       ...           ...                  ...                  ...
        44        2.0000           -0.4755362             -12.9400
        45        2.0000           -0.4733041             -12.8793
        46        2.0000           -0.4699195             -12.7872
        47        2.0000           -0.4636181             -12.6157
        48        2.0000           -0.4581335             -12.4664
        49        2.0000           -0.4516036             -12.2888
        50        2.0000           -0.4512811             -12.2800
        51        2.0000           -0.4379900             -11.9183
        52        2.0000           -0.4323508             -11.7649
        53        2.0000           -0.4271630             -11.6237
        54        2.0000           -0.3972372             -10.8094
        55        2.0000           -0.3621947              -9.8558
        56        2.0000           -0.3572813              -9.7221 (HOMO)
        57                         -0.2578873              -7.0175 (LUMO)
        58                         -0.2424547              -6.5975
        59                         -0.2369866              -6.4487
        60                         -0.1865488              -5.0763
        61                         -0.1542667              -4.1978
        62                         -0.1291222              -3.5136
        63                         -0.0977494              -2.6599
        64                         -0.0442417              -1.2039
        65                         -0.0322722              -0.8782
        66                         -0.0183798              -0.5001
        67                         -0.0117838              -0.3207
       ...                                ...                  ...
       110                          1.3430776              36.5470
      -------------------------------------------------------------
                  HL-Gap            0.0993940 Eh            2.7046 eV
             Fermi-level           -0.3075843 Eh           -8.3698 eV

     #   Z          covCN         q      C6AA      α(0)
     1   6 C        3.751    -0.116    22.785     6.807
     2   6 C        3.693     0.076    19.486     6.316
     3   8 O        1.703    -0.251    18.156     5.753
     4   6 C        2.714     0.363    20.841     7.473
     5   8 O        0.856    -0.414    21.955     6.282
     6   6 C        3.835    -0.089    22.172     6.699
     7   6 C        3.862     0.013    20.322     6.411
     8   1 H        0.923     0.104     1.746     2.066
     9   6 C        2.780     0.367    20.776     7.466
    10   8 O        0.903    -0.388    21.421     6.206
    11   8 O        1.702    -0.247    18.089     5.742
    12   6 C        3.697     0.080    19.409     6.302
    13   6 C        3.751    -0.116    22.783     6.807
    14  16 S        1.986    -0.165   148.017    20.477
    15  15 P        3.919     0.380   144.460    21.591
    16  16 S        0.925    -0.394   156.323    21.148
    17   8 O        1.656    -0.264    18.395     5.790
    18   6 C        3.818     0.034    19.984     6.362
    19   8 O        1.654    -0.215    17.581     5.660
    20   6 C        3.826     0.030    20.059     6.373
    21   1 H        0.925     0.058     2.227     2.334
    22   1 H        0.925     0.057     2.236     2.338
    23   1 H        0.925     0.062     2.173     2.305
    24   1 H        0.924     0.056     2.249     2.345
    25   1 H        0.924     0.068     2.113     2.273
    26   1 H        0.925     0.076     2.018     2.221
    27   1 H        0.924     0.091     1.869     2.138
    28   1 H        0.924     0.066     2.132     2.284
    29   1 H        0.925     0.062     2.178     2.308
    30   1 H        0.925     0.057     2.232     2.336
    31   1 H        0.925     0.062     2.178     2.308
    32   1 H        0.925     0.072     2.067     2.248
    33   1 H        0.924     0.071     2.076     2.253
    34   1 H        0.925     0.073     2.053     2.241
    35   1 H        0.925     0.060     2.201     2.320
    36   1 H        0.925     0.082     1.956     2.187
    37   1 H        0.925     0.069     2.098     2.265
    38   1 H        0.925     0.070     2.082     2.256

 Mol. C6AA /au·bohr⁶  :      18362.591877
 Mol. C8AA /au·bohr⁸  :     515242.796876
 Mol. α(0) /au        :        208.691222


Wiberg/Mayer (AO) data.
largest (>0.10) Wiberg bond orders for each atom

 ---------------------------------------------------------------------------
     #   Z sym  total        # sym  WBO       # sym  WBO       # sym  WBO
 ---------------------------------------------------------------------------
     1   6 C    3.990 --     2 C    1.019    22 H    0.985    23 H    0.985
                            21 H    0.982
     2   6 C    3.917 --     1 C    1.019    24 H    0.969    25 H    0.968
                             3 O    0.921
     3   8 O    2.331 --     4 C    1.173     2 C    0.921     5 O    0.180
     4   6 C    3.925 --     5 O    1.736     3 O    1.173     6 C    0.954
     5   8 O    2.031 --     4 C    1.736     3 O    0.180
     6   6 C    3.989 --     7 C    0.992    26 H    0.971     4 C    0.954
                            27 H    0.948
     7   6 C    3.973 --     6 C    0.992    14 S    0.962     9 C    0.957
                             8 H    0.925
     8   1 H    0.989 --     7 C    0.925
     9   6 C    3.921 --    10 O    1.703    11 O    1.194     7 C    0.957
    10   8 O    2.110 --     9 C    1.703    11 O    0.171    15 P    0.105
    11   8 O    2.347 --     9 C    1.194    12 C    0.908    10 O    0.171
    12   6 C    3.908 --    13 C    1.014    29 H    0.972    28 H    0.970
                            11 O    0.908
    13   6 C    3.987 --    12 C    1.014    31 H    0.985    32 H    0.983
                            30 H    0.981
    14  16 S    2.235 --     7 C    0.962    15 P    0.948    16 S    0.138
    15  15 P    5.286 --    16 S    1.564    19 O    1.319    17 O    1.255
                            14 S    0.948    10 O    0.105
    16  16 S    1.881 --    15 P    1.564    14 S    0.138
    17   8 O    2.369 --    15 P    1.255    18 C    0.939
    18   6 C    3.916 --    35 H    0.980    34 H    0.979    33 H    0.976
                            17 O    0.939
    19   8 O    2.414 --    15 P    1.319    20 C    0.917
    20   6 C    3.913 --    38 H    0.981    36 H    0.978    37 H    0.977
                            19 O    0.917
    21   1 H    0.996 --     1 C    0.982
    22   1 H    0.997 --     1 C    0.985
    23   1 H    0.996 --     1 C    0.985
    24   1 H    0.997 --     2 C    0.969
    25   1 H    0.995 --     2 C    0.968
    26   1 H    0.994 --     6 C    0.971
    27   1 H    0.992 --     6 C    0.948
    28   1 H    0.996 --    12 C    0.970
    29   1 H    0.996 --    12 C    0.972
    30   1 H    0.996 --    13 C    0.981
    31   1 H    0.996 --    13 C    0.985
    32   1 H    0.995 --    13 C    0.983
    33   1 H    0.995 --    18 C    0.976
    34   1 H    0.995 --    18 C    0.979
    35   1 H    0.996 --    18 C    0.980
    36   1 H    0.993 --    20 C    0.978
    37   1 H    0.995 --    20 C    0.977
    38   1 H    0.995 --    20 C    0.981
 ---------------------------------------------------------------------------

Topologies differ in total number of bonds
Writing topology from bond orders to xtbtopo.mol

molecular dipole:
                 x           y           z       tot (Debye)
 q only:        1.271      -1.982       0.399
   full:        1.190      -2.116       0.669       6.400
molecular quadrupole (traceless):
                xx          xy          yy          xz          yz          zz
 q only:       24.060       7.062     -18.658       7.389       3.429      -5.403
  q+dip:       25.074       4.907     -21.928       5.772       4.876      -3.146
   full:       25.267       5.320     -21.843       5.858       4.910      -3.424


           -------------------------------------------------
          | TOTAL ENERGY              -64.648742109885 Eh   |
          | GRADIENT NORM               0.047153748653 Eh/α |
          | HOMO-LUMO GAP               2.704648261647 eV   |
           -------------------------------------------------

------------------------------------------------------------------------
 * finished run on 2025/04/09 at 07:31:36.725     
------------------------------------------------------------------------
 total:
 * wall-time:     0 d,  0 h,  0 min,  0.176 sec
 *  cpu-time:     0 d,  0 h,  0 min,  0.110 sec
 * ratio c/w:     0.623 speedup
 SCF:
 * wall-time:     0 d,  0 h,  0 min,  0.115 sec
 *  cpu-time:     0 d,  0 h,  0 min,  0.088 sec
 * ratio c/w:     0.764 speedup

