
                                 *****************
                                 * O   R   C   A *
                                 *****************

                                            #,                                       
                                            ###                                      
                                            ####                                     
                                            #####                                    
                                            ######                                   
                                           ########,                                 
                                     ,,################,,,,,                         
                               ,,#################################,,                 
                          ,,##########################################,,             
                       ,#########################################, ''#####,          
                    ,#############################################,,   '####,        
                  ,##################################################,,,,####,       
                ,###########''''           ''''###############################       
              ,#####''   ,,,,##########,,,,          '''####'''          '####       
            ,##' ,,,,###########################,,,                        '##       
           ' ,,###''''                  '''############,,,                           
         ,,##''                                '''############,,,,        ,,,,,,###''
      ,#''                                            '''#######################'''  
     '                                                          ''''####''''         
             ,#######,   #######,   ,#######,      ##                                
            ,#'     '#,  ##    ##  ,#'     '#,    #''#        ,####,   ,####,        
            ##       ##  ##   ,#'  ##            #'  '#       #'       #'  '#        
            ##       ##  #######   ##           ,######,      #####,   #    #        
            '#,     ,#'  ##    ##  '#,     ,#' ,#      #,     #,   #   #,  ,#        
             '#######'   ##     ##  '#######'  #'      '#     '####' # '####'        



                #########################################################
                #                        -***-                          #
                #          Department of theory and spectroscopy        #
                #                                                       #
                #                      Frank Neese                      #
                #                                                       #
                #     Directorship, Architecture, Infrastructure        #
                #                    SHARK, DRIVERS                     #
                #        Core code/Algorithms in most modules           #
                #                                                       #
                #        Max Planck Institute fuer Kohlenforschung      #
                #                Kaiser Wilhelm Platz 1                 #
                #                 D-45470 Muelheim/Ruhr                 #
                #                      Germany                          #
                #                                                       #
                #                  All rights reserved                  #
                #                        -***-                          #
                #########################################################


                         Program Version 6.0.0  -   RELEASE  -


 With contributions from (in alphabetic order):
   Daniel Aravena         : Magnetic Suceptibility
   Michael Atanasov       : Ab Initio Ligand Field Theory (pilot matlab implementation)
   Alexander A. Auer      : GIAO ZORA, VPT2 properties, NMR spectrum
   Ute Becker             : All parallelization in ORCA, NUMFREQ, NUMCALC
   Giovanni Bistoni       : ED, misc. LED, open-shell LED, HFLD
   Martin Brehm           : Molecular dynamics
   Dmytro Bykov           : pre 5.0 version of the SCF Hessian
   Marcos Casanova-Páez   : Triplet and SCS-CIS(D). UHF-(DLPNO)-IP/EA/STEOM-CCSD. UHF-CVS-IP/STEOM-CCSD
   Vijay G. Chilkuri      : MRCI spin determinant printing, contributions to CSF-ICE
   Pauline Colinet        : FMM embedding
   Dipayan Datta          : RHF DLPNO-CCSD density
   Achintya Kumar Dutta   : EOM-CC, STEOM-CC
   Nicolas Foglia         : Exact transition moments, OPA infrastructure, MCD improvements
   Dmitry Ganyushin       : Spin-Orbit,Spin-Spin,Magnetic field MRCI
   Miquel Garcia          : C-PCM and meta-GGA Hessian, CCSD/C-PCM, Gaussian charge scheme
   Tiago L. C. Gouveia    : GS-ROHF, GS-ROCIS
   Yang Guo               : DLPNO-NEVPT2, F12-NEVPT2, CIM, IAO-localization
   Andreas Hansen         : Spin unrestricted coupled pair/coupled cluster methods
   Ingolf Harden          : AUTO-CI MPn and infrastructure 
   Benjamin Helmich-Paris : MC-RPA, TRAH-(SCF,CASSCF), AVAS, COSX integrals, SCF dyn. polar.
   Lee Huntington         : MR-EOM, pCC
   Robert Izsak           : Overlap fitted RIJCOSX, COSX-SCS-MP3, EOM
   Riya Kayal             : Wick's Theorem for AUTO-CI, AUTO-CI UHF-CCSDT
   Emily Kempfer          : AUTO-CI, RHF CISDT and CCSDT
   Christian Kollmar      : KDIIS, OOCD, Brueckner-CCSD(T), CCSD density, CASPT2, CASPT2-K, improved NEVPT2
   Axel Koslowski         : Symmetry handling
   Simone Kossmann        : Meta GGA functionals, TD-DFT gradient, OOMP2, (MP2 Hessian; deprecated post 5.0)
   Lucas Lang             : DCDCAS
   Marvin Lechner         : AUTO-CI (C++ implementation), FIC-MRCC
   Spencer Leger          : CASSCF response
   Dagmar Lenk            : GEPOL surface, SMD, ORCA-2-JSON
   Dimitrios Liakos       : Extrapolation schemes; Compound Job, initial MDCI parallelization
   Dimitrios Manganas     : Further ROCIS development; embedding schemes. LFT, Crystal Embedding
   Dimitrios Pantazis     : SARC Basis sets
   Anastasios Papadopoulos: AUTO-CI, single reference methods and gradients
   Taras Petrenko         : pre 6.0 DFT Hessian and TD-DFT gradient, (ASA, deprecated), ECA, 1-Electron XAS/XES, NRVS
   Peter Pinski           : DLPNO-MP2, DLPNO-MP2 Gradient
   Christoph Reimann      : Effective Core Potentials
   Marius Retegan         : Local ZFS, SOC
   Christoph Riplinger    : Optimizer, TS searches, QM/MM, DLPNO-CCSD(T), (RO)-DLPNO pert. Triples
   Michael Roemelt        : Original ROCIS implementation
   Masaaki Saitow         : Open-shell DLPNO-CCSD energy and density
   Barbara Sandhoefer     : DKH picture change effects
   Kantharuban Sivalingam : CASSCF convergence/infrastructure, NEVPT2 and variants, FIC-MRCI
   Bernardo de Souza      : ESD, SOC TD-DFT
   Georgi Stoychev        : AutoAux, RI-MP2 NMR, DLPNO-MP2 response, X2C
   Van Anh Tran           : RI-MP2 g-tensors
   Willem Van den Heuvel  : Paramagnetic NMR
   Zikuan Wang            : NOTCH, Electric field optimization 
   Frank Wennmohs         : Technical directorship and infrastructure
   Hang Xu                : AUTO-CI-Response properties 


 We gratefully acknowledge several colleagues who have allowed us to
 interface, adapt or use parts of their codes:
   Stefan Grimme, W. Hujo, H. Kruse, P. Pracht,  : VdW corrections, initial TS optimization,
                  C. Bannwarth, S. Ehlert,         DFT functionals, gCP, sTDA/sTD-DF
                  L. Wittmann, M. Mueller
   Ed Valeev, F. Pavosevic, A. Kumar             : LibInt (2-el integral package), F12 methods
   Garnet Chan, S. Sharma, J. Yang, R. Olivares  : DMRG
   Ulf Ekstrom                                   : XCFun DFT Library
   Mihaly Kallay                                 : mrcc  (arbitrary order and MRCC methods)
   Frank Weinhold                                : gennbo (NPA and NBO analysis)
   Simon Mueller                                 : openCOSMO-RS
   Christopher J. Cramer and Donald G. Truhlar   : smd solvation model
   Lars Goerigk                                  : TD-DFT with DH, B97 family of functionals
   V. Asgeirsson, H. Jonsson                     : NEB implementation
   FAccTs GmbH                                   : IRC, NEB, NEB-TS, DLPNO-Multilevel, CI-OPT
                                                   MM, QMMM, 2- and 3-layer-ONIOM, Crystal-QMMM,
                                                   LR-CPCM, SF, NACMEs, symmetry and pop. for TD-DFT,
                                                   nearIR, NL-DFT gradient (VV10), updates on ESD,
                                                   ML-optimized integration grids, MBIS, APM,
                                                   GOAT, DOCKER, SOLVATOR, interface openCOSMO-RS
   S Lehtola, MJT Oliveira, MAL Marques          : LibXC Library
   Liviu Ungur et al                             : ANISO software


 Your calculation uses the libint2 library for the computation of 2-el integrals
 For citations please refer to: http://libint.valeyev.net

 Your ORCA version has been built with support for libXC version: 6.2.2
 For citations please refer to: https://libxc.gitlab.io

 This ORCA versions uses:
   CBLAS   interface :  Fast vector & matrix operations
   LAPACKE interface :  Fast linear algebra routines
   SCALAPACK package :  Parallel linear algebra routines
   Shared memory     :  Shared parallel matrices
   BLAS/LAPACK       :  OpenBLAS 0.3.27  USE64BITINT DYNAMIC_ARCH NO_AFFINITY SapphireRapids SINGLE_THREADED
        Core in use  :  SapphireRapids
   Copyright (c) 2011-2014, The OpenBLAS Project


Your calculation utilizes the geometrical counterpoise correction gCP
Please cite in your paper:
H.Kruse, S. Grimme J.Chem.Phys., 136, (2012), 154101 
   

Your calculation utilizes the atom-pairwise dispersion correction
based on EEQ partial charges (D4)


Your calculation utilizes the SMD solvation module
Please cite in your paper:
A.V. Marenich, C.J. Cramer, D.G. Truhlar J. Phys. Chem. B, 113, (2009), 6378 

================================================================================

----- Orbital basis set information -----
Your calculation utilizes the basis: def2-mTZVPP
   Stefan Grimme, Andreas Hansen, Sebastian Ehlert, and Jan-Michael Mewes 
   J. Chem. Phys. 154, 064103 (2021). DOI: 10.1063/5.0040021

----- AuxJ basis set information -----
Your calculation utilizes the auxiliary basis: def2/J
   F. Weigend, Phys. Chem. Chem. Phys. 8, 1057 (2006).

================================================================================
                                        WARNINGS
                       Please study these warnings very carefully!
================================================================================

Using LibXC functional ID 497 : Re-regularized SCAN exchange by Furness et al
[ 1]  J. W. Furness, A. D. Kaplan, J. Ning, J. P. Perdew, and J. Sun.,  J. Phys. Chem. Lett. 11, 8208-8215 (2020)
[ 2]  J. W. Furness, A. D. Kaplan, J. Ning, J. P. Perdew, and J. Sun.,  J. Phys. Chem. Lett. 11, 9248-9248 (2020)
Using LibXC functional ID 498 : Re-regularized SCAN correlation by Furness et al
[ 1]  J. W. Furness, A. D. Kaplan, J. Ning, J. P. Perdew, and J. Sun.,  J. Phys. Chem. Lett. 11, 8208-8215 (2020)
[ 2]  J. W. Furness, A. D. Kaplan, J. Ning, J. P. Perdew, and J. Sun.,  J. Phys. Chem. Lett. 11, 9248-9248 (2020)
Using LibXC functional ID 497 : Re-regularized SCAN exchange by Furness et al
[ 1]  J. W. Furness, A. D. Kaplan, J. Ning, J. P. Perdew, and J. Sun.,  J. Phys. Chem. Lett. 11, 8208-8215 (2020)
[ 2]  J. W. Furness, A. D. Kaplan, J. Ning, J. P. Perdew, and J. Sun.,  J. Phys. Chem. Lett. 11, 9248-9248 (2020)
Using LibXC functional ID 498 : Re-regularized SCAN correlation by Furness et al
[ 1]  J. W. Furness, A. D. Kaplan, J. Ning, J. P. Perdew, and J. Sun.,  J. Phys. Chem. Lett. 11, 8208-8215 (2020)
[ 2]  J. W. Furness, A. D. Kaplan, J. Ning, J. P. Perdew, and J. Sun.,  J. Phys. Chem. Lett. 11, 9248-9248 (2020)

================================================================================
                                       INPUT FILE
================================================================================
NAME = sp_solv.inp
|  1> ! r2scan-3c def2/J RI DEFGRID2 scfconv6 printgap
|  2> %output
|  3>     printlevel normal
|  4> end
|  5> %cpcm
|  6>     smd true
|  7>     smdsolvent "water"
|  8> end
|  9> * xyz 0 1
| 10> C 2.5519378218 -1.2857179296 3.1779139253
| 11> C 1.3619327918 -1.3037945408 2.241163488
| 12> O 1.3334514771 -0.1120502065 1.4394319026
| 13> P 2.1687202563 0.0636364724 0.1047423134
| 14> S 2.9993412519 -1.5832804075 -0.5712152745
| 15> O 3.1189359762 1.2461365717 0.5670924506
| 16> C 3.7990772588 2.1663411831 -0.306666215
| 17> C 4.6373599442 1.469452218 -1.3584426945
| 18> S 0.8130174923 1.033043822 -1.2072103077
| 19> C 0.098036881 -0.4638251055 -1.9262279348
| 20> S -0.7085289456 -1.5313135955 -0.6977333321
| 21> P -2.2007298663 -0.1712056392 -0.0794340532
| 22> S -2.8833710589 1.0721705384 -1.4359818317
| 23> O -1.5584914701 0.4677638339 1.2147919758
| 24> C -1.9401541852 1.7616162756 1.737827843
| 25> C -0.8653991208 2.7885973773 1.4418033114
| 26> O -3.2778928354 -1.1319121641 0.5915432317
| 27> C -4.1662315933 -1.960780213 -0.1867629465
| 28> C -5.5016809634 -1.2731418496 -0.395104334
| 29> H 3.4724387944 -1.2859056852 2.5954063286
| 30> H 2.5294558826 -0.393628514 3.797573373
| 31> H 2.5298234705 -2.1685178214 3.8088054766
| 32> H 0.4126563876 -1.2926671017 2.7795138227
| 33> H 1.3986878282 -2.1784781335 1.5823866757
| 34> H 3.0494046063 2.8111912369 -0.7739315531
| 35> H 4.4191046714 2.7529052461 0.3737157462
| 36> H 5.1970655028 2.2095425844 -1.921270808
| 37> H 5.3296272538 0.7726045605 -0.8917808159
| 38> H 3.9975497264 0.9135174855 -2.0423635052
| 39> H 0.882742021 -1.0677045495 -2.3810797635
| 40> H -0.633100321 -0.1327351097 -2.6628608934
| 41> H -2.8965908227 2.0599559298 1.2991922667
| 42> H -2.0597068489 1.604858223 2.8110010176
| 43> H -0.8146981696 2.983443655 0.3724866573
| 44> H -1.1004779467 3.7118811157 1.9613908474
| 45> H 0.101956487 2.4205568254 1.7761524244
| 46> H -3.6930055422 -2.198859112 -1.1436727821
| 47> H -4.2756112253 -2.8742050958 0.4007756135
| 48> H -5.3715167909 -0.3659770445 -0.9810213212
| 49> H -6.1697155215 -1.9441035888 -0.9253706375
| 50> H -5.9399813568 -1.0117984367 0.563941043
| 51> *
| 52> 
| 53>                          ****END OF INPUT****
================================================================================

                       ****************************
                       * Single Point Calculation *
                       ****************************

---------------------------------
CARTESIAN COORDINATES (ANGSTROEM)
---------------------------------
  C      2.551938   -1.285718    3.177914
  C      1.361933   -1.303795    2.241163
  O      1.333451   -0.112050    1.439432
  P      2.168720    0.063636    0.104742
  S      2.999341   -1.583280   -0.571215
  O      3.118936    1.246137    0.567092
  C      3.799077    2.166341   -0.306666
  C      4.637360    1.469452   -1.358443
  S      0.813017    1.033044   -1.207210
  C      0.098037   -0.463825   -1.926228
  S     -0.708529   -1.531314   -0.697733
  P     -2.200730   -0.171206   -0.079434
  S     -2.883371    1.072171   -1.435982
  O     -1.558491    0.467764    1.214792
  C     -1.940154    1.761616    1.737828
  C     -0.865399    2.788597    1.441803
  O     -3.277893   -1.131912    0.591543
  C     -4.166232   -1.960780   -0.186763
  C     -5.501681   -1.273142   -0.395104
  H      3.472439   -1.285906    2.595406
  H      2.529456   -0.393629    3.797573
  H      2.529823   -2.168518    3.808805
  H      0.412656   -1.292667    2.779514
  H      1.398688   -2.178478    1.582387
  H      3.049405    2.811191   -0.773932
  H      4.419105    2.752905    0.373716
  H      5.197066    2.209543   -1.921271
  H      5.329627    0.772605   -0.891781
  H      3.997550    0.913517   -2.042364
  H      0.882742   -1.067705   -2.381080
  H     -0.633100   -0.132735   -2.662861
  H     -2.896591    2.059956    1.299192
  H     -2.059707    1.604858    2.811001
  H     -0.814698    2.983444    0.372487
  H     -1.100478    3.711881    1.961391
  H      0.101956    2.420557    1.776152
  H     -3.693006   -2.198859   -1.143673
  H     -4.275611   -2.874205    0.400776
  H     -5.371517   -0.365977   -0.981021
  H     -6.169716   -1.944104   -0.925371
  H     -5.939981   -1.011798    0.563941

----------------------------
CARTESIAN COORDINATES (A.U.)
----------------------------
  NO LB      ZA    FRAG     MASS         X           Y           Z
   0 C     6.0000    0    12.011    4.822464   -2.429655    6.005387
   1 C     6.0000    0    12.011    2.573680   -2.463815    4.235185
   2 O     8.0000    0    15.999    2.519858   -0.211744    2.720132
   3 P    15.0000    0    30.974    4.098287    0.120256    0.197934
   4 S    16.0000    0    32.060    5.667934   -2.991966   -1.079440
   5 O     8.0000    0    15.999    5.893935    2.354857    1.071649
   6 C     6.0000    0    12.011    7.179216    4.093792   -0.579515
   7 C     6.0000    0    12.011    8.763340    2.776862   -2.567085
   8 S    16.0000    0    32.060    1.536380    1.952170   -2.281297
   9 C     6.0000    0    12.011    0.185263   -0.876502   -3.640043
  10 S    16.0000    0    32.060   -1.338926   -2.893763   -1.318525
  11 P    15.0000    0    30.974   -4.158777   -0.323532   -0.150109
  12 S    16.0000    0    32.060   -5.448782    2.026109   -2.713612
  13 O     8.0000    0    15.999   -2.945122    0.883946    2.295624
  14 C     6.0000    0    12.011   -3.666360    3.328972    3.284019
  15 C     6.0000    0    12.011   -1.635367    5.269685    2.724613
  16 O     8.0000    0    15.999   -6.194320   -2.139004    1.117855
  17 C     6.0000    0    12.011   -7.873037   -3.705338   -0.352931
  18 C     6.0000    0    12.011  -10.396670   -2.405889   -0.746639
  19 H     1.0000    0     1.008    6.561958   -2.430010    4.904607
  20 H     1.0000    0     1.008    4.779979   -0.743850    7.176374
  21 H     1.0000    0     1.008    4.780674   -4.097905    7.197599
  22 H     1.0000    0     1.008    0.779808   -2.442787    5.252520
  23 H     1.0000    0     1.008    2.643137   -4.116727    2.990277
  24 H     1.0000    0     1.008    5.762540    5.312382   -1.462519
  25 H     1.0000    0     1.008    8.350898    5.202237    0.706220
  26 H     1.0000    0     1.008    9.821031    4.175430   -3.630676
  27 H     1.0000    0     1.008   10.071536    1.460011   -1.685222
  28 H     1.0000    0     1.008    7.554274    1.726298   -3.859508
  29 H     1.0000    0     1.008    1.668141   -2.017669   -4.499589
  30 H     1.0000    0     1.008   -1.196386   -0.250833   -5.032078
  31 H     1.0000    0     1.008   -5.473763    3.892753    2.455118
  32 H     1.0000    0     1.008   -3.892282    3.032743    5.312022
  33 H     1.0000    0     1.008   -1.539556    5.637891    0.703898
  34 H     1.0000    0     1.008   -2.079602    7.014439    3.706492
  35 H     1.0000    0     1.008    0.192670    4.574189    3.356442
  36 H     1.0000    0     1.008   -6.978769   -4.155242   -2.161228
  37 H     1.0000    0     1.008   -8.079734   -5.431460    0.757356
  38 H     1.0000    0     1.008  -10.150696   -0.691596   -1.853862
  39 H     1.0000    0     1.008  -11.659073   -3.673823   -1.748697
  40 H     1.0000    0     1.008  -11.224938   -1.912022    1.065694

--------------------------------
INTERNAL COORDINATES (ANGSTROEM)
--------------------------------
 C      0   0   0     0.000000000000     0.00000000     0.00000000
 C      1   0   0     1.514575886867     0.00000000     0.00000000
 O      2   1   0     1.436606862942   110.53862786     0.00000000
 P      3   2   1     1.584277766734   123.48330510    83.52571824
 S      4   3   2     1.964480875008   114.82414023    10.85739966
 O      4   3   2     1.585870123484    98.79931966   244.13445712
 C      6   4   3     1.439730147232   125.64083550   202.48159255
 C      7   6   4     1.514795647323   112.87803598   306.02988881
 S      4   3   2     2.121061119767   103.57939692   138.52809046
 C      9   4   3     1.807982358523    96.91259428   269.61563175
 S     10   9   4     1.816391779816   113.15356093    60.42971904
 P     11  10   9     2.111599213586    97.65980100    62.36473844
 S     12  11  10     1.962703541600   116.83678707    32.54117697
 O     12  11  10     1.579801620220   102.30506313   263.62887227
 C     14  12  11     1.446819645764   123.40940357   157.03414437
 C     15  14  12     1.515723970587   110.38119561   254.39127984
 O     12  11  10     1.591680748717   102.29215511   160.35026941
 C     17  12  11     1.442888941776   122.41090471   284.53311452
 C     18  17  12     1.516468816912   110.84244796   264.64358851
 H      1   2   3     1.089328773155   109.46297433   296.82441010
 H      1   2   3     1.086419253391   110.26170241    56.50771845
 H      1   2   3     1.085287447176   109.50068875   177.21291493
 H      2   1   3     1.091361807259   112.22211280   243.83396953
 H      2   1   3     1.095631876345   110.79672589   121.08128039
 H      7   6   4     1.093699032633   108.19905853    68.92518348
 H      7   6   4     1.091517753179   103.50443459   185.39767907
 H      8   7   6     1.085255522037   109.37587139   185.41826517
 H      8   7   6     1.087475974283   110.43388683   305.79747005
 H      8   7   6     1.089113500472   110.22765273    65.60333639
 H     10   9   4     1.089643393822   109.88017840   302.11560909
 H     10   9   4     1.089408238065   106.42105244   181.03920102
 H     15  14  12     1.093699574662   109.24707306    16.60170074
 H     15  14  12     1.091130876263   104.83193381   134.15817512
 H     16  15  14     1.088105585466   110.26106541    68.09861845
 H     16  15  14     1.085212478525   109.22896127   188.05553942
 H     16  15  14     1.087667251115   109.95815981   308.20694913
 H     18  17  12     1.093755407327   109.30433480    27.39313255
 H     18  17  12     1.091563319236   104.59923185   144.45031617
 H     19  18  17     1.087745104013   110.29122748    63.90317493
 H     19  18  17     1.085192231318   109.20077311   183.69960809
 H     19  18  17     1.086358895332   110.06570298   303.77885060

---------------------------
INTERNAL COORDINATES (A.U.)
---------------------------
 C      0   0   0     0.000000000000     0.00000000     0.00000000
 C      1   0   0     2.862133635220     0.00000000     0.00000000
 O      2   1   0     2.714793533072   110.53862786     0.00000000
 P      3   2   1     2.993851099188   123.48330510    83.52571824
 S      4   3   2     3.712330849090   114.82414023    10.85739966
 O      4   3   2     2.996860217352    98.79931966   244.13445712
 C      6   4   3     2.720695685019   125.64083550   202.48159255
 C      7   6   4     2.862548922297   112.87803598   306.02988881
 S      4   3   2     4.008224629668   103.57939692   138.52809046
 C      9   4   3     3.416591512570    96.91259428   269.61563175
 S     10   9   4     3.432483015759   113.15356093    60.42971904
 P     11  10   9     3.990344218281    97.65980100    62.36473844
 S     12  11  10     3.708972175702   116.83678707    32.54117697
 O     12  11  10     2.985392408140   102.30506313   263.62887227
 C     14  12  11     2.734092895671   123.40940357   157.03414437
 C     15  14  12     2.864303199029   110.38119561   254.39127984
 O     12  11  10     3.007840707711   102.29215511   160.35026941
 C     17  12  11     2.726664941620   122.41090471   284.53311452
 C     18  17  12     2.865710754595   110.84244796   264.64358851
 H      1   2   3     2.058533051063   109.46297433   296.82441010
 H      1   2   3     2.053034855529   110.26170241    56.50771845
 H      1   2   3     2.050896051745   109.50068875   177.21291493
 H      2   1   3     2.062374928741   112.22211280   243.83396953
 H      2   1   3     2.070444189887   110.79672589   121.08128039
 H      7   6   4     2.066791644611   108.19905853    68.92518348
 H      7   6   4     2.062669623821   103.50443459   185.39767907
 H      8   7   6     2.050835721976   109.37587139   185.41826517
 H      8   7   6     2.055031768614   110.43388683   305.79747005
 H      8   7   6     2.058126244648   110.22765273    65.60333639
 H     10   9   4     2.059127597960   109.88017840   302.11560909
 H     10   9   4     2.058683217980   106.42105244   181.03920102
 H     15  14  12     2.066792668898   109.24707306    16.60170074
 H     15  14  12     2.061938532402   104.83193381   134.15817512
 H     16  15  14     2.056221561320   110.26106541    68.09861845
 H     16  15  14     2.050754381527   109.22896127   188.05553942
 H     16  15  14     2.055393229443   109.95815981   308.20694913
 H     18  17  12     2.066898177343   109.30433480    27.39313255
 H     18  17  12     2.062755731190   104.59923185   144.45031617
 H     19  18  17     2.055540350098   110.29122748    63.90317493
 H     19  18  17     2.050716119851   109.20077311   183.69960809
 H     19  18  17     2.052920795326   110.06570298   303.77885060

---------------------
BASIS SET INFORMATION
---------------------
There are 5 groups of distinct atoms

 Group   1 Type C   : 11s6p1d contracted to 5s3p1d pattern {62111/411/1}
 Group   2 Type O   : 11s6p2d contracted to 5s3p2d pattern {62111/411/11}
 Group   3 Type P   : 14s9p2d contracted to 5s4p2d pattern {73211/6111/11}
 Group   4 Type S   : 14s9p2d contracted to 5s4p2d pattern {73211/6111/11}
 Group   5 Type H   : 4s1p contracted to 2s1p pattern {31/1}

Atom   0C    basis set group =>   1
Atom   1C    basis set group =>   1
Atom   2O    basis set group =>   2
Atom   3P    basis set group =>   3
Atom   4S    basis set group =>   4
Atom   5O    basis set group =>   2
Atom   6C    basis set group =>   1
Atom   7C    basis set group =>   1
Atom   8S    basis set group =>   4
Atom   9C    basis set group =>   1
Atom  10S    basis set group =>   4
Atom  11P    basis set group =>   3
Atom  12S    basis set group =>   4
Atom  13O    basis set group =>   2
Atom  14C    basis set group =>   1
Atom  15C    basis set group =>   1
Atom  16O    basis set group =>   2
Atom  17C    basis set group =>   1
Atom  18C    basis set group =>   1
Atom  19H    basis set group =>   5
Atom  20H    basis set group =>   5
Atom  21H    basis set group =>   5
Atom  22H    basis set group =>   5
Atom  23H    basis set group =>   5
Atom  24H    basis set group =>   5
Atom  25H    basis set group =>   5
Atom  26H    basis set group =>   5
Atom  27H    basis set group =>   5
Atom  28H    basis set group =>   5
Atom  29H    basis set group =>   5
Atom  30H    basis set group =>   5
Atom  31H    basis set group =>   5
Atom  32H    basis set group =>   5
Atom  33H    basis set group =>   5
Atom  34H    basis set group =>   5
Atom  35H    basis set group =>   5
Atom  36H    basis set group =>   5
Atom  37H    basis set group =>   5
Atom  38H    basis set group =>   5
Atom  39H    basis set group =>   5
Atom  40H    basis set group =>   5
---------------------------------
AUXILIARY/J BASIS SET INFORMATION
---------------------------------
There are 5 groups of distinct atoms

 Group   1 Type C   : 12s5p4d2f1g contracted to 6s4p3d1f1g pattern {711111/2111/211/2/1}
 Group   2 Type O   : 12s5p4d2f1g contracted to 6s4p3d1f1g pattern {711111/2111/211/2/1}
 Group   3 Type P   : 14s5p5d2f1g contracted to 8s4p3d1f1g pattern {71111111/2111/311/2/1}
 Group   4 Type S   : 14s5p5d2f1g contracted to 8s4p3d1f1g pattern {71111111/2111/311/2/1}
 Group   5 Type H   : 5s2p1d contracted to 3s1p1d pattern {311/2/1}

Atom   0C    basis set group =>   1
Atom   1C    basis set group =>   1
Atom   2O    basis set group =>   2
Atom   3P    basis set group =>   3
Atom   4S    basis set group =>   4
Atom   5O    basis set group =>   2
Atom   6C    basis set group =>   1
Atom   7C    basis set group =>   1
Atom   8S    basis set group =>   4
Atom   9C    basis set group =>   1
Atom  10S    basis set group =>   4
Atom  11P    basis set group =>   3
Atom  12S    basis set group =>   4
Atom  13O    basis set group =>   2
Atom  14C    basis set group =>   1
Atom  15C    basis set group =>   1
Atom  16O    basis set group =>   2
Atom  17C    basis set group =>   1
Atom  18C    basis set group =>   1
Atom  19H    basis set group =>   5
Atom  20H    basis set group =>   5
Atom  21H    basis set group =>   5
Atom  22H    basis set group =>   5
Atom  23H    basis set group =>   5
Atom  24H    basis set group =>   5
Atom  25H    basis set group =>   5
Atom  26H    basis set group =>   5
Atom  27H    basis set group =>   5
Atom  28H    basis set group =>   5
Atom  29H    basis set group =>   5
Atom  30H    basis set group =>   5
Atom  31H    basis set group =>   5
Atom  32H    basis set group =>   5
Atom  33H    basis set group =>   5
Atom  34H    basis set group =>   5
Atom  35H    basis set group =>   5
Atom  36H    basis set group =>   5
Atom  37H    basis set group =>   5
Atom  38H    basis set group =>   5
Atom  39H    basis set group =>   5
Atom  40H    basis set group =>   5

Checking for AutoStart:
The File: sp_solv.gbw exists
Trying to determine its content:
     ... Fine, the file contains calculation information
     ... Fine, the calculation information was read
     ... Fine, the file contains a basis set
     ... Fine, the basis set was read
     ... Fine, the file contains a geometry
     ... Fine, the geometry was read
     ... Fine, the file contains a set of orbitals
     ... Fine, the orbitals can be read
     => possible old guess file was deleted
     => GBW file was renamed to GES file
     => GES file is set as startup file
     => Guess is set to MORead
     ... now leaving AutoStart

------------------------------------------------------------------------------
                             ORCA STARTUP CALCULATIONS
                           -- RI-GTO INTEGRALS CHOSEN --
------------------------------------------------------------------------------
------------------------------------------------------------------------------
                   ___                                                        
                  /   \      - P O W E R E D   B Y -                         
                 /     \                                                     
                 |  |  |   _    _      __       _____    __    __             
                 |  |  |  | |  | |    /  \     |  _  \  |  |  /  |          
                  \  \/   | |  | |   /    \    | | | |  |  | /  /          
                 / \  \   | |__| |  /  /\  \   | |_| |  |  |/  /          
                |  |  |   |  __  | /  /__\  \  |    /   |      \           
                |  |  |   | |  | | |   __   |  |    \   |  |\   \          
                \     /   | |  | | |  |  |  |  | |\  \  |  | \   \       
                 \___/    |_|  |_| |__|  |__|  |_| \__\ |__|  \__/        
                                                                              
                      - O R C A' S   B I G   F R I E N D -                    
                                      &                                       
                       - I N T E G R A L  F E E D E R -                       
                                                                              
 v1 FN, 2020, v2 2021, v3 2022-2024                                           
------------------------------------------------------------------------------


----------------------
SHARK INTEGRAL PACKAGE
----------------------

Number of atoms                             ...     41
Number of basis functions                   ...    539
Number of shells                            ...    253
Maximum angular momentum                    ...      2
Integral batch strategy                     ... SHARK/LIBINT Hybrid
RI-J (if used) integral strategy            ... SPLIT-RIJ (Revised 2003 algorithm where possible)
Printlevel                                  ...      1
Contraction scheme used                     ... SEGMENTED contraction
Prescreening option                         ... SCHWARTZ
   Thresh                                   ... 1.000e-10
   Tcut                                     ... 1.000e-11
   Tpresel                                  ... 1.000e-11 
Coulomb Range Separation                    ... NOT USED
Exchange Range Separation                   ... NOT USED
Multipole approximations                    ... NOT USED
Finite Nucleus Model                        ... NOT USED
CABS basis                                  ... NOT available
Auxiliary Coulomb fitting basis             ... AVAILABLE
   # of basis functions in Aux-J            ...   1185
   # of shells in Aux-J                     ...    407
   Maximum angular momentum in Aux-J        ...      4
Auxiliary J/K fitting basis                 ... NOT available
Auxiliary Correlation fitting basis         ... NOT available
Auxiliary 'external' fitting basis          ... NOT available

Checking pre-screening integrals            ... done (  0.0 sec) Dimension = 253
Check shell pair data                       ... done (  0.0 sec)
Shell pair information
Shell pair cut-off parameter TPreSel        ...   1.0e-11
Total number of shell pairs                 ...     32131
Shell pairs after pre-screening             ...     21613
Total number of primitive shell pairs       ...    124843
Primitive shell pairs kept                  ...     50527
          la=0 lb=0:   6108 shell pairs
          la=1 lb=0:   7833 shell pairs
          la=1 lb=1:   2575 shell pairs
          la=2 lb=0:   2894 shell pairs
          la=2 lb=1:   1852 shell pairs
          la=2 lb=2:    351 shell pairs

Calculating one electron integrals          ... done (  0.1 sec)
Calculating RI/J V-Matrix + Cholesky decomp.... done (  0.1 sec)
Calculating Nuclear repulsion               ... done (  0.0 sec) ENN=   2807.374385310614 Eh

Diagonalization of the overlap matrix:
Smallest eigenvalue                        ... 2.675e-04
Time for diagonalization                   ...    0.031 sec
Threshold for overlap eigenvalues          ... 1.000e-07
Number of eigenvalues below threshold      ... 0
Time for construction of square roots      ...    0.055 sec
Total time needed                          ...    0.095 sec

-------------------
DFT GRID GENERATION
-------------------

General Integration Accuracy     IntAcc      ... 4.388
Radial Grid Type                 RadialGrid  ... OptM3 with GC (2021)
Angular Grid (max. ang.)         AngularGrid ... 4 (Lebedev-302)
Angular grid pruning method      GridPruning ... 4 (adaptive)
Weight generation scheme         WeightScheme... mBecke (2022)
Basis function cutoff            BFCut       ... 1.0000e-10
Integration weight cutoff        WCut        ... 1.0000e-14
Partially contracted basis set               ... off
Rotationally invariant grid construction     ... off
Angular grids for H and He will be reduced by one unit
Diffuse basis detected: some atoms will have their outermost
                        angular grid increased by 1.

Total number of grid points                  ...   192649
Total number of batches                      ...     3032
Average number of points per batch           ...       63
Average number of grid points per atom       ...     4699
Initializing property integral containers    ... done (  0.0 sec)

SHARK setup successfully completed in   3.0 seconds

Maximum memory used throughout the entire STARTUP-calculation: 101.9 MB
-------------------------------------------------------------------------------
                                 ORCA GUESS
                   Start orbitals & Density for SCF / CASSCF
-------------------------------------------------------------------------------

------------
SCF SETTINGS
------------
Hamiltonian:
 Density Functional     Method          .... DFT(GTOs)
  Functional kind                       .... Exchange
  Functional name                       .... Re-regularized SCAN exchange by Furness et al
  Functional family                     .... MGGA
  Functional refs                              
    [ 0] J. W. Furness, A. D. Kaplan, J. Ning, J. P. Perdew, and J. Sun.,  J. Phys. Chem. Lett. 11, 8208-8215 (2020), doi: 10.1021/acs.jpclett.0c02405
    [ 1] J. W. Furness, A. D. Kaplan, J. Ning, J. P. Perdew, and J. Sun.,  J. Phys. Chem. Lett. 11, 9248-9248 (2020), doi: 10.1021/acs.jpclett.0c03077
  Functional external parameters        .... 6
    Parameter  0 _c1        =  6.670000e-01 : c1 parameter        
    Parameter  1 _c2        =  8.000000e-01 : c2 parameter        
    Parameter  2 _d         =  1.240000e+00 : d parameter         
    Parameter  3 _k1        =  6.500000e-02 : k1 parameter        
    Parameter  4 _eta       =  1.000000e-03 : eta parameter       
    Parameter  5 _dp2       =  3.610000e-01 : dp2 parameter       
  Functional kind                       .... Correlation
  Functional name                       .... Re-regularized SCAN correlation by Furness et al
  Functional family                     .... MGGA
  Functional refs                              
    [ 0] J. W. Furness, A. D. Kaplan, J. Ning, J. P. Perdew, and J. Sun.,  J. Phys. Chem. Lett. 11, 8208-8215 (2020), doi: 10.1021/acs.jpclett.0c02405
    [ 1] J. W. Furness, A. D. Kaplan, J. Ning, J. P. Perdew, and J. Sun.,  J. Phys. Chem. Lett. 11, 9248-9248 (2020), doi: 10.1021/acs.jpclett.0c03077
  Functional external parameters        .... 1
    Parameter  0 _eta       =  1.000000e-03 : Regularization parameter
 Gradients option       PostSCFGGA      .... off
 RI-approximation to the Coulomb term is turned on
   Number of AuxJ basis functions       .... 1185


General Settings:
 Integral files         IntName         .... sp_solv
 Hartree-Fock type      HFTyp           .... RHF
 Total Charge           Charge          ....    0
 Multiplicity           Mult            ....    1
 Number of Electrons    NEL             ....  202
 Basis Dimension        Dim             ....  539
 Nuclear Repulsion      ENuc            ....   2807.3743853106 Eh

Convergence Acceleration:
 AO-DIIS                CNVDIIS         .... on
   Start iteration      DIISMaxIt       ....    12
   Startup error        DIISStart       ....  0.200000
   # of expansion vecs  DIISMaxEq       ....     5
   Bias factor          DIISBfac        ....   1.050
   Max. coefficient     DIISMaxC        ....  10.000
 MO-DIIS                CNVKDIIS        .... off
 Trust-Rad. Augm. Hess. CNVTRAH         .... auto
   Auto Start mean grad. ratio tolernc. ....  1.125000
   Auto Start start iteration           ....     1
   Auto Start num. interpolation iter.  ....    10
   Max. Number of Micro iterations      ....    24
   Max. Number of Macro iterations      .... Maxiter - #DIIS iter
   Number of Davidson start vectors     ....     2
   Converg. threshold    (grad. norm)   ....   3.330e-04
   Grad. Scal. Fac. for Micro threshold ....   0.100
   Minimum threshold for Micro iter.    ....   1.000e-02
   NR start threshold (gradient norm)   ....   1.000e-04
   Initial trust radius                 ....   0.400
   Minimum AH scaling param. (alpha)    ....   1.000
   Maximum AH scaling param. (alpha)    .... 1000.000
   Quad. conv. algorithm                .... NR
   White noise on init. David. guess    .... on
   Maximum white noise                  ....   0.010
   Pseudo random numbers                .... off
   Inactive MOs                         .... canonical
   Orbital update algorithm             .... Taylor
   Preconditioner                       .... Diag
   Full preconditioner red. dimension   ....   250
   COSX micro iterations for RIJONX calc.... off
 SOSCF                  CNVSOSCF        .... on
   Start iteration      SOSCFMaxIt      ....   150
   Startup grad/error   SOSCFStart      ....  0.003300
   Hessian update       SOSCFHessUp     .... L-BFGS
 Level Shifting         CNVShift        .... on
   Level shift para.    LevelShift      ....    0.2500
   Turn off err/grad.   ShiftErr        ....    0.0010
 Zerner damping         CNVZerner       .... off
 Static damping         CNVDamp         .... on
   Fraction old density DampFac         ....    0.7000
   Max. Damping (<1)    DampMax         ....    0.9800
   Min. Damping (>=0)   DampMin         ....    0.0000
   Turn off err/grad.   DampErr         ....    0.1000

SCF Procedure:
 Maximum # iterations   MaxIter         ....   125
 SCF integral mode      SCFMode         .... Direct
   Integral package                     .... SHARK and LIBINT hybrid scheme
 Reset frequency        DirectResetFreq ....    20
 Integral Threshold     Thresh          ....  1.000e-10 Eh
 Primitive CutOff       TCut            ....  1.000e-11 Eh

Convergence Tolerance:
 Convergence Check Mode ConvCheckMode   .... Total+1el-Energy
 Convergence forced     ConvForced      .... 0
 Energy Change          TolE            ....  1.000e-06 Eh
 1-El. energy change                    ....  1.000e-03 Eh
 Orbital Gradient       TolG            ....  3.330e-04
 Orbital Rotation angle TolX            ....  3.330e-04
 DIIS Error             TolErr          ....  1.000e-06

---------------------
INITIAL GUESS: MOREAD
---------------------
Guess MOs are being read from file: sp_solv.ges
Input Geometry matches current geometry (good)
Atom 0: N(Shells)= 9 and 6 - projection required
Input basis set needs projection
NBasis(read)= 334
NBasis(calc)= 539
Basis set overlap was calculated
Using GuessMode=FMatrix for the initial guess
C*T matrix was formed
Effective Fockian was calculated
Effective Fockian was diagonalized
Initial density was built
                      ------------------
                      INITIAL GUESS DONE (   0.3 sec)
                      ------------------
             **** ENERGY FILE WAS UPDATED (sp_solv.en.tmp) ****
Finished Guess after   0.7 sec
Maximum memory used throughout the entire GUESS-calculation: 59.4 MB

-------------------------------------------------------------------------------------------
                                      ORCA LEAN-SCF
                              memory conserving SCF solver
-------------------------------------------------------------------------------------------

--------------------
CPCM SOLVATION MODEL
--------------------
CPCM parameters:
  Epsilon                                         ...      78.3550
  Refrac                                          ...       1.3328
  Rsolv                                           ...       1.3000
  Surface type                                    ... GAUSSIAN VDW
  Discretization scheme                           ... Constant charge density
    Threshold for H atoms                         ...       5.0000 (charges/Ang^2)
    Threshold for non-H atoms                     ...       5.0000 (charges/Ang^2)
  Epsilon function type                           ...         CPCM
Solvent:                                          ... WATER
SMD-CDS solvent descriptors:
  Soln                                            ...       1.3328
  Soln25                                          ...       1.3323
  Sola                                            ...       0.0000
  Solb                                            ...       0.0000
  Solg                                            ...       0.0000
  Solc                                            ...       0.0000
  Solh                                            ...       0.0000
Radii:
  Scheme                                          ... Element-dependent radii
  Radius for C  used is    3.4960 Bohr (=   1.8500 Ang.)
  Radius for O  used is    2.8724 Bohr (=   1.5200 Ang.)
  Radius for P  used is    4.0062 Bohr (=   2.1200 Ang.)
  Radius for S  used is    4.7054 Bohr (=   2.4900 Ang.)
  Radius for H  used is    2.2677 Bohr (=   1.2000 Ang.)
Calculating surface                               ...        done! (  0.0s)
Cavity surface points                             ...         3253
Cavity Volume                                     ...    2744.0813
Cavity Surface-area                               ...    1326.5553
Calculating surface distance matrix               ...        done! (  0.1s)
Performing Cholesky decomposition & store         ...        done! (  0.4s)
Overall time for CPCM initialization              ...                 0.5s

----------------------------------------D-I-I-S--------------------------------------------
Iteration    Energy (Eh)           Delta-E    RMSDP     MaxDP     DIISErr   Damp  Time(sec)
-------------------------------------------------------------------------------------------
               ***  Starting incremental Fock matrix formation  ***
    1    -2932.0221674920321675     0.00e+00  2.25e-03  1.20e-01  6.36e-01  0.700  12.9
    2    -2932.1657774277309727    -1.44e-01  1.82e-03  7.84e-02  4.47e-01  0.700  10.9
    3    -2932.2672663194798588    -1.01e-01  1.34e-03  5.51e-02  3.14e-01  0.700  10.2
    4    -2932.3384944978542990    -7.12e-02  9.60e-04  3.92e-02  2.20e-01  0.700  10.1
                               ***Turning on AO-DIIS***
    5    -2932.3884471788860537    -5.00e-02  6.98e-04  2.81e-02  1.54e-01  0.700   9.9
    6    -2932.4234529424493303    -3.50e-02  4.97e-04  1.99e-02  1.07e-01  0.700   9.7
    7    -2932.4479961705919777    -2.45e-02  3.51e-04  1.40e-02  7.52e-02  0.700   9.3
    8    -2932.4651919110747258    -1.72e-02  8.23e-04  3.29e-02  5.27e-02  0.000   9.1
                              *** Initializing SOSCF ***
---------------------------------------S-O-S-C-F--------------------------------------
Iteration    Energy (Eh)           Delta-E    RMSDP     MaxDP     MaxGrad    Time(sec)
--------------------------------------------------------------------------------------
    9    -2932.5053675642611779    -4.02e-02  6.95e-06  3.27e-04  1.66e-04    10.0
               *** Restarting incremental Fock matrix formation ***
   10    -2932.5053684181502831    -8.54e-07  4.50e-06  3.01e-04  2.83e-05    12.0
                  *** Gradient check signals convergence ***

               *****************************************************
               *                     SUCCESS                       *
               *           SCF CONVERGED AFTER  10 CYCLES          *
               *****************************************************


SMD CDS free energy correction energy :                 7.46173     Kcal/mol
Total Energy after SMD CDS correction =             -2932.493477397 Eh
             **** ENERGY FILE WAS UPDATED (sp_solv.en.tmp) ****

----------------
TOTAL SCF ENERGY
----------------

Total Energy       :      -2932.49347739651421 Eh          -79797.20433 eV

Components:
Nuclear Repulsion  :       2807.37438531061434 Eh           76392.54075 eV
Electronic Energy  :      -5739.85737775348025 Eh         -156189.45977 eV
One Electron Energy:      -9636.93301875845827 Eh         -262234.27917 eV
Two Electron Energy:       3897.07564100497848 Eh          106044.81941 eV
CPCM Dielectric    :         -0.02237597528474 Eh              -0.60888 eV
SMD CDS (Gcds)     :          0.01189102163601 Eh               0.32357 eV

Virial components:
Potential Energy   :      -5856.17785515278138 Eh         -159354.70088 eV
Kinetic Energy     :       2923.68437775626717 Eh           79557.49654 eV
Virial Ratio       :          2.00301301320596

DFT components:
N(Alpha)           :      101.000008788946 electrons
N(Beta)            :      101.000008788946 electrons
N(Total)           :      202.000017577892 electrons
E(X)               :     -233.543756267956 Eh       
E(C)               :       -7.122166089625 Eh       
E(XC)              :     -240.665922357581 Eh       

CPCM Solvation Model Properties:
Surface-charge          :         -0.04646765397237
Corrected charge        :          0.00000000000000
Outlying charge corr.   :          0.00011186128431 Eh               0.00304 eV
Free-energy (cav+disp)  :          0.01189102163601 Eh               0.32357 eV

---------------
SCF CONVERGENCE
---------------

  Last Energy change         ...    8.5389e-07  Tolerance :   1.0000e-06
  Last MAX-Density change    ...    3.0099e-04  Tolerance :   1.0000e-05
  Last RMS-Density change    ...    4.4987e-06  Tolerance :   1.0000e-06
  Last DIIS Error            ...    1.6595e-04  Tolerance :   1.0000e-06
  Last Orbital Gradient      ...    2.8313e-05  Tolerance :   3.3300e-04
  Last Orbital Rotation      ...    1.3103e-04  Tolerance :   3.3300e-04


----------------
ORBITAL ENERGIES
----------------

  NO   OCC          E(Eh)            E(eV) 
   0   2.0000     -88.580326     -2410.3932 
   1   2.0000     -88.578458     -2410.3424 
   2   2.0000     -88.527634     -2408.9594 
   3   2.0000     -88.526093     -2408.9175 
   4   2.0000     -76.919246     -2093.0791 
   5   2.0000     -76.919159     -2093.0767 
   6   2.0000     -18.995352      -516.8898 
   7   2.0000     -18.993433      -516.8376 
   8   2.0000     -18.990966      -516.7704 
   9   2.0000     -18.989595      -516.7331 
  10   2.0000     -10.105715      -274.9905 
  11   2.0000     -10.093126      -274.6479 
  12   2.0000     -10.090596      -274.5791 
  13   2.0000     -10.089719      -274.5552 
  14   2.0000     -10.086609      -274.4706 
  15   2.0000     -10.018579      -272.6194 
  16   2.0000     -10.016953      -272.5751 
  17   2.0000     -10.016408      -272.5603 
  18   2.0000     -10.015672      -272.5403 
  19   2.0000      -7.874604      -214.2789 
  20   2.0000      -7.872873      -214.2318 
  21   2.0000      -7.822771      -212.8684 
  22   2.0000      -7.821226      -212.8264 
  23   2.0000      -6.597594      -179.5297 
  24   2.0000      -6.597450      -179.5257 
  25   2.0000      -5.821484      -158.4106 
  26   2.0000      -5.819725      -158.3628 
  27   2.0000      -5.818400      -158.3267 
  28   2.0000      -5.816664      -158.2795 
  29   2.0000      -5.811798      -158.1471 
  30   2.0000      -5.810061      -158.0998 
  31   2.0000      -5.770342      -157.0190 
  32   2.0000      -5.768873      -156.9790 
  33   2.0000      -5.763121      -156.8225 
  34   2.0000      -5.762725      -156.8117 
  35   2.0000      -5.761521      -156.7790 
  36   2.0000      -5.761158      -156.7691 
  37   2.0000      -4.742978      -129.0630 
  38   2.0000      -4.742884      -129.0604 
  39   2.0000      -4.742535      -129.0509 
  40   2.0000      -4.742517      -129.0504 
  41   2.0000      -4.741484      -129.0223 
  42   2.0000      -4.741166      -129.0137 
  43   2.0000      -1.052613       -28.6431 
  44   2.0000      -1.050587       -28.5879 
  45   2.0000      -1.011713       -27.5301 
  46   2.0000      -1.009749       -27.4767 
  47   2.0000      -0.805034       -21.9061 
  48   2.0000      -0.755788       -20.5660 
  49   2.0000      -0.743930       -20.2434 
  50   2.0000      -0.722074       -19.6486 
  51   2.0000      -0.720889       -19.6164 
  52   2.0000      -0.709617       -19.3097 
  53   2.0000      -0.689781       -18.7699 
  54   2.0000      -0.676025       -18.3956 
  55   2.0000      -0.628992       -17.1157 
  56   2.0000      -0.620785       -16.8924 
  57   2.0000      -0.601781       -16.3753 
  58   2.0000      -0.597348       -16.2547 
  59   2.0000      -0.589620       -16.0444 
  60   2.0000      -0.527108       -14.3433 
  61   2.0000      -0.515149       -14.0179 
  62   2.0000      -0.492706       -13.4072 
  63   2.0000      -0.486206       -13.2303 
  64   2.0000      -0.474446       -12.9103 
  65   2.0000      -0.456138       -12.4121 
  66   2.0000      -0.452600       -12.3159 
  67   2.0000      -0.450335       -12.2542 
  68   2.0000      -0.441331       -12.0092 
  69   2.0000      -0.432836       -11.7781 
  70   2.0000      -0.420176       -11.4336 
  71   2.0000      -0.414940       -11.2911 
  72   2.0000      -0.403122       -10.9695 
  73   2.0000      -0.400188       -10.8897 
  74   2.0000      -0.394618       -10.7381 
  75   2.0000      -0.389937       -10.6107 
  76   2.0000      -0.382737       -10.4148 
  77   2.0000      -0.368101       -10.0165 
  78   2.0000      -0.359116        -9.7720 
  79   2.0000      -0.355682        -9.6786 
  80   2.0000      -0.354727        -9.6526 
  81   2.0000      -0.352456        -9.5908 
  82   2.0000      -0.351521        -9.5654 
  83   2.0000      -0.347556        -9.4575 
  84   2.0000      -0.343654        -9.3513 
  85   2.0000      -0.332333        -9.0433 
  86   2.0000      -0.317295        -8.6340 
  87   2.0000      -0.308270        -8.3884 
  88   2.0000      -0.307070        -8.3558 
  89   2.0000      -0.302554        -8.2329 
  90   2.0000      -0.296896        -8.0790 
  91   2.0000      -0.294047        -8.0014 
  92   2.0000      -0.287238        -7.8161 
  93   2.0000      -0.280698        -7.6382 
  94   2.0000      -0.270708        -7.3663 
  95   2.0000      -0.248651        -6.7661 
  96   2.0000      -0.236350        -6.4314 
  97   2.0000      -0.233375        -6.3504 
  98   2.0000      -0.226383        -6.1602 
  99   2.0000      -0.219868        -5.9829 
 100   2.0000      -0.217163        -5.9093 
 101   0.0000      -0.052639        -1.4324 
 102   0.0000      -0.031610        -0.8602 
 103   0.0000      -0.005902        -0.1606 
 104   0.0000      -0.004715        -0.1283 
 105   0.0000       0.009182         0.2499 
 106   0.0000       0.023150         0.6299 
 107   0.0000       0.032340         0.8800 
 108   0.0000       0.036898         1.0041 
 109   0.0000       0.047373         1.2891 
 110   0.0000       0.069746         1.8979 
 111   0.0000       0.081394         2.2148 
*Only the first 10 virtual orbitals were printed.

                    ********************************
                    * MULLIKEN POPULATION ANALYSIS *
                    ********************************

-----------------------
MULLIKEN ATOMIC CHARGES
-----------------------
   0 C :   -0.491623
   1 C :   -0.142165
   2 O :   -0.291347
   3 P :    0.707623
   4 S :   -0.511815
   5 O :   -0.329539
   6 C :   -0.155018
   7 C :   -0.466364
   8 S :   -0.139010
   9 C :   -0.246978
  10 S :   -0.147412
  11 P :    0.707000
  12 S :   -0.516516
  13 O :   -0.285157
  14 C :   -0.120618
  15 C :   -0.502331
  16 O :   -0.327388
  17 C :   -0.125974
  18 C :   -0.490651
  19 H :    0.164961
  20 H :    0.166978
  21 H :    0.170448
  22 H :    0.179298
  23 H :    0.176554
  24 H :    0.172740
  25 H :    0.177029
  26 H :    0.173413
  27 H :    0.170340
  28 H :    0.166141
  29 H :    0.230389
  30 H :    0.231814
  31 H :    0.169670
  32 H :    0.174000
  33 H :    0.171473
  34 H :    0.166702
  35 H :    0.166744
  36 H :    0.163875
  37 H :    0.176017
  38 H :    0.171010
  39 H :    0.169349
  40 H :    0.166341
Sum of atomic charges:   -0.0000000

--------------------------------
MULLIKEN REDUCED ORBITAL CHARGES
--------------------------------
  0 C s       :     3.344621  s :     3.344621
      pz      :     1.023278  p :     3.121279
      px      :     0.985977
      py      :     1.112023
      dz2     :     0.001733  d :     0.025723
      dxz     :     0.007921
      dyz     :     0.007174
      dx2y2   :     0.007833
      dxy     :     0.001062

  1 C s       :     3.294390  s :     3.294390
      pz      :     0.923807  p :     2.793192
      px      :     1.045197
      py      :     0.824188
      dz2     :     0.006432  d :     0.054583
      dxz     :     0.011436
      dyz     :     0.016216
      dx2y2   :     0.014508
      dxy     :     0.005990

  2 O s       :     3.723413  s :     3.723413
      pz      :     1.337319  p :     4.547540
      px      :     1.701699
      py      :     1.508522
      dz2     :     0.001407  d :     0.020394
      dxz     :     0.016108
      dyz     :    -0.012246
      dx2y2   :     0.010715
      dxy     :     0.004409

  3 P s       :     5.139981  s :     5.139981
      pz      :     2.826432  p :     8.437509
      px      :     2.822304
      py      :     2.788773
      dz2     :     0.147991  d :     0.714887
      dxz     :     0.120881
      dyz     :     0.145622
      dx2y2   :     0.153023
      dxy     :     0.147370

  4 S s       :     5.908099  s :     5.908099
      pz      :     3.654802  p :    10.538244
      px      :     3.583746
      py      :     3.299696
      dz2     :     0.009584  d :     0.065472
      dxz     :     0.006623
      dyz     :     0.014817
      dx2y2   :     0.015645
      dxy     :     0.018804

  5 O s       :     3.737901  s :     3.737901
      pz      :     1.618808  p :     4.559985
      px      :     1.568903
      py      :     1.372274
      dz2     :     0.005313  d :     0.031653
      dxz     :     0.006957
      dyz     :     0.011868
      dx2y2   :    -0.001024
      dxy     :     0.008539

  6 C s       :     3.291614  s :     3.291614
      pz      :     0.944240  p :     2.808731
      px      :     0.992712
      py      :     0.871779
      dz2     :     0.006749  d :     0.054674
      dxz     :     0.013693
      dyz     :     0.014933
      dx2y2   :     0.006120
      dxy     :     0.013178

  7 C s       :     3.322207  s :     3.322207
      pz      :     1.019161  p :     3.118516
      px      :     1.025946
      py      :     1.073409
      dz2     :     0.002515  d :     0.025641
      dxz     :     0.007264
      dyz     :     0.007065
      dx2y2   :     0.001219
      dxy     :     0.007578

  8 S s       :     5.914045  s :     5.914045
      pz      :     3.451972  p :    10.115671
      px      :     3.406646
      py      :     3.257053
      dz2     :     0.012716  d :     0.109294
      dxz     :     0.019681
      dyz     :     0.025906
      dx2y2   :     0.021381
      dxy     :     0.029610

  9 C s       :     3.193053  s :     3.193053
      pz      :     0.946538  p :     3.018190
      px      :     1.105551
      py      :     0.966101
      dz2     :     0.005077  d :     0.035735
      dxz     :     0.007587
      dyz     :     0.008993
      dx2y2   :     0.004382
      dxy     :     0.009695

 10 S s       :     5.908466  s :     5.908466
      pz      :     3.422928  p :    10.129094
      px      :     3.327149
      py      :     3.379017
      dz2     :     0.017762  d :     0.109852
      dxz     :     0.017687
      dyz     :     0.022322
      dx2y2   :     0.017602
      dxy     :     0.034478

 11 P s       :     5.131306  s :     5.131306
      pz      :     2.817511  p :     8.432599
      px      :     2.806985
      py      :     2.808103
      dz2     :     0.180977  d :     0.729096
      dxz     :     0.139580
      dyz     :     0.129606
      dx2y2   :     0.134398
      dxy     :     0.144536

 12 S s       :     5.908573  s :     5.908573
      pz      :     3.454707  p :    10.542134
      px      :     3.622582
      py      :     3.464846
      dz2     :     0.012051  d :     0.065809
      dxz     :     0.012037
      dyz     :     0.020285
      dx2y2   :     0.010002
      dxy     :     0.011434

 13 O s       :     3.718179  s :     3.718179
      pz      :     1.444441  p :     4.550803
      px      :     1.725954
      py      :     1.380409
      dz2     :     0.008530  d :     0.016175
      dxz     :     0.008572
      dyz     :    -0.010113
      dx2y2   :    -0.001470
      dxy     :     0.010655

 14 C s       :     3.278730  s :     3.278730
      pz      :     1.058665  p :     2.788075
      px      :     1.003282
      py      :     0.726128
      dz2     :     0.011765  d :     0.053813
      dxz     :     0.005397
      dyz     :     0.009839
      dx2y2   :     0.013865
      dxy     :     0.012947

 15 C s       :     3.350816  s :     3.350816
      pz      :     1.094801  p :     3.125986
      px      :     1.004903
      py      :     1.026282
      dz2     :     0.006711  d :     0.025529
      dxz     :     0.002887
      dyz     :     0.004478
      dx2y2   :     0.004981
      dxy     :     0.006472

 16 O s       :     3.744783  s :     3.744783
      pz      :     1.629370  p :     4.555879
      px      :     1.437044
      py      :     1.489465
      dz2     :     0.003760  d :     0.026726
      dxz     :     0.006379
      dyz     :     0.008443
      dx2y2   :     0.005480
      dxy     :     0.002665

 17 C s       :     3.276355  s :     3.276355
      pz      :     1.004037  p :     2.795609
      px      :     0.857728
      py      :     0.933844
      dz2     :     0.007331  d :     0.054010
      dxz     :     0.012118
      dyz     :     0.010834
      dx2y2   :     0.012069
      dxy     :     0.011657

 18 C s       :     3.339433  s :     3.339433
      pz      :     1.103535  p :     3.125692
      px      :     0.949980
      py      :     1.072176
      dz2     :     0.003737  d :     0.025526
      dxz     :     0.005235
      dyz     :     0.005747
      dx2y2   :     0.004726
      dxy     :     0.006081

 19 H s       :     0.816684  s :     0.816684
      pz      :     0.005672  p :     0.018355
      px      :     0.009115
      py      :     0.003568

 20 H s       :     0.814750  s :     0.814750
      pz      :     0.006039  p :     0.018272
      px      :     0.003532
      py      :     0.008702

 21 H s       :     0.811057  s :     0.811057
      pz      :     0.006305  p :     0.018496
      px      :     0.003540
      py      :     0.008650

 22 H s       :     0.803140  s :     0.803140
      pz      :     0.005146  p :     0.017562
      px      :     0.009915
      py      :     0.002501

 23 H s       :     0.805060  s :     0.805060
      pz      :     0.006394  p :     0.018386
      px      :     0.003508
      py      :     0.008484

 24 H s       :     0.809603  s :     0.809603
      pz      :     0.004744  p :     0.017657
      px      :     0.006745
      py      :     0.006169

 25 H s       :     0.805471  s :     0.805471
      pz      :     0.006001  p :     0.017500
      px      :     0.006017
      py      :     0.005481

 26 H s       :     0.808058  s :     0.808058
      pz      :     0.005808  p :     0.018529
      px      :     0.005769
      py      :     0.006952

 27 H s       :     0.811426  s :     0.811426
      pz      :     0.004788  p :     0.018234
      px      :     0.006568
      py      :     0.006878

 28 H s       :     0.815248  s :     0.815248
      pz      :     0.006659  p :     0.018611
      px      :     0.006115
      py      :     0.005837

 29 H s       :     0.750546  s :     0.750546
      pz      :     0.004763  p :     0.019066
      px      :     0.008379
      py      :     0.005924

 30 H s       :     0.749117  s :     0.749117
      pz      :     0.007336  p :     0.019069
      px      :     0.007743
      py      :     0.003990

 31 H s       :     0.812136  s :     0.812136
      pz      :     0.004770  p :     0.018194
      px      :     0.010173
      py      :     0.003251

 32 H s       :     0.808394  s :     0.808394
      pz      :     0.011660  p :     0.017606
      px      :     0.003517
      py      :     0.002430

 33 H s       :     0.810068  s :     0.810068
      pz      :     0.011233  p :     0.018459
      px      :     0.003532
      py      :     0.003695

 34 H s       :     0.814786  s :     0.814786
      pz      :     0.005362  p :     0.018512
      px      :     0.003858
      py      :     0.009292

 35 H s       :     0.814902  s :     0.814902
      pz      :     0.004233  p :     0.018354
      px      :     0.009786
      py      :     0.004335

 36 H s       :     0.818125  s :     0.818125
      pz      :     0.010146  p :     0.018000
      px      :     0.004297
      py      :     0.003557

 37 H s       :     0.806448  s :     0.806448
      pz      :     0.005256  p :     0.017535
      px      :     0.003021
      py      :     0.009258

 38 H s       :     0.810312  s :     0.810312
      pz      :     0.005823  p :     0.018678
      px      :     0.003678
      py      :     0.009178

 39 H s       :     0.812142  s :     0.812142
      pz      :     0.005547  p :     0.018510
      px      :     0.006606
      py      :     0.006357

 40 H s       :     0.815341  s :     0.815341
      pz      :     0.009416  p :     0.018319
      px      :     0.004789
      py      :     0.004113


------------------------
MULLIKEN OVERLAP CHARGES
------------------------
B(  0-C ,  1-C ) :   0.4443 B(  0-C ,  2-O ) :  -0.1337 B(  0-C , 19-H ) :   0.8277 
B(  0-C , 20-H ) :   0.8311 B(  0-C , 21-H ) :   0.8055 B(  0-C , 23-H ) :  -0.0811 
B(  1-C ,  2-O ) :   0.2266 B(  1-C ,  3-P ) :  -0.1752 B(  1-C , 19-H ) :  -0.0753 
B(  1-C , 20-H ) :  -0.0728 B(  1-C , 21-H ) :  -0.0708 B(  1-C , 22-H ) :   0.8160 
B(  1-C , 23-H ) :   0.8509 B(  2-O ,  3-P ) :   0.5950 B(  2-O ,  4-S ) :  -0.1034 
B(  2-O ,  5-O ) :  -0.2220 B(  2-O ,  8-S ) :  -0.1278 B(  2-O , 22-H ) :  -0.0939 
B(  2-O , 23-H ) :  -0.0604 B(  3-P ,  4-S ) :   1.2292 B(  3-P ,  5-O ) :   0.6201 
B(  3-P ,  6-C ) :  -0.1705 B(  3-P ,  8-S ) :   0.7115 B(  3-P ,  9-C ) :  -0.0925 
B(  4-S ,  5-O ) :  -0.0736 B(  4-S ,  8-S ) :  -0.1102 B(  5-O ,  6-C ) :   0.2899 
B(  5-O ,  7-C ) :  -0.1320 B(  5-O ,  8-S ) :  -0.1235 B(  5-O , 24-H ) :  -0.0721 
B(  5-O , 25-H ) :  -0.1008 B(  6-C ,  7-C ) :   0.4242 B(  6-C ,  8-S ) :   0.0544 
B(  6-C , 24-H ) :   0.8454 B(  6-C , 25-H ) :   0.7971 B(  6-C , 26-H ) :  -0.0663 
B(  6-C , 27-H ) :  -0.0673 B(  6-C , 28-H ) :  -0.0651 B(  7-C , 24-H ) :  -0.1105 
B(  7-C , 26-H ) :   0.7976 B(  7-C , 27-H ) :   0.8181 B(  7-C , 28-H ) :   0.8239 
B(  8-S ,  9-C ) :   0.3787 B(  8-S , 10-S ) :  -0.1657 B(  8-S , 29-H ) :  -0.0559 
B(  8-S , 30-H ) :  -0.0774 B(  9-C , 10-S ) :   0.3634 B(  9-C , 11-P ) :  -0.0853 
B(  9-C , 29-H ) :   0.7918 B(  9-C , 30-H ) :   0.7951 B( 10-S , 11-P ) :   0.7828 
B( 10-S , 12-S ) :  -0.1060 B( 10-S , 13-O ) :  -0.1357 B( 10-S , 16-O ) :  -0.1218 
B( 10-S , 29-H ) :  -0.0740 B( 10-S , 30-H ) :  -0.0544 B( 11-P , 12-S ) :   1.1888 
B( 11-P , 13-O ) :   0.6730 B( 11-P , 14-C ) :  -0.1436 B( 11-P , 16-O ) :   0.5746 
B( 11-P , 17-C ) :  -0.1351 B( 12-S , 13-O ) :  -0.0912 B( 12-S , 16-O ) :  -0.1004 
B( 13-O , 14-C ) :   0.2194 B( 13-O , 15-C ) :  -0.1262 B( 13-O , 16-O ) :  -0.2367 
B( 13-O , 31-H ) :  -0.0707 B( 13-O , 32-H ) :  -0.0770 B( 14-C , 15-C ) :   0.5178 
B( 14-C , 31-H ) :   0.8527 B( 14-C , 32-H ) :   0.8032 B( 14-C , 33-H ) :  -0.0754 
B( 14-C , 34-H ) :  -0.0705 B( 14-C , 35-H ) :  -0.0696 B( 15-C , 31-H ) :  -0.0825 
B( 15-C , 32-H ) :  -0.0529 B( 15-C , 33-H ) :   0.8324 B( 15-C , 34-H ) :   0.8053 
B( 15-C , 35-H ) :   0.8208 B( 16-O , 17-C ) :   0.2482 B( 16-O , 18-C ) :  -0.0945 
B( 16-O , 36-H ) :  -0.0798 B( 16-O , 37-H ) :  -0.0898 B( 17-C , 18-C ) :   0.5445 
B( 17-C , 36-H ) :   0.8274 B( 17-C , 37-H ) :   0.8187 B( 17-C , 38-H ) :  -0.0682 
B( 17-C , 39-H ) :  -0.0757 B( 17-C , 40-H ) :  -0.0757 B( 18-C , 36-H ) :  -0.0678 
B( 18-C , 37-H ) :  -0.0555 B( 18-C , 38-H ) :   0.8307 B( 18-C , 39-H ) :   0.8105 
B( 18-C , 40-H ) :   0.8398 B( 27-H , 28-H ) :  -0.0515 


                     *******************************
                     * LOEWDIN POPULATION ANALYSIS *
                     *******************************

----------------------
LOEWDIN ATOMIC CHARGES
----------------------
   0 C :   -0.401078
   1 C :    0.011834
   2 O :   -0.686210
   3 P :    0.388416
   4 S :   -0.155607
   5 O :   -0.668931
   6 C :    0.029792
   7 C :   -0.410031
   8 S :    0.159530
   9 C :   -0.412462
  10 S :    0.171998
  11 P :    0.381891
  12 S :   -0.153259
  13 O :   -0.675552
  14 C :    0.032630
  15 C :   -0.405220
  16 O :   -0.675639
  17 C :    0.025817
  18 C :   -0.405648
  19 H :    0.161730
  20 H :    0.162568
  21 H :    0.167944
  22 H :    0.188668
  23 H :    0.182610
  24 H :    0.179600
  25 H :    0.193079
  26 H :    0.168046
  27 H :    0.164367
  28 H :    0.161911
  29 H :    0.196823
  30 H :    0.197344
  31 H :    0.181840
  32 H :    0.187653
  33 H :    0.162504
  34 H :    0.165350
  35 H :    0.164509
  36 H :    0.179822
  37 H :    0.189328
  38 H :    0.162605
  39 H :    0.167183
  40 H :    0.162245

-------------------------------
LOEWDIN REDUCED ORBITAL CHARGES
-------------------------------
  0 C s       :     2.975679  s :     2.975679
      pz      :     1.113611  p :     3.364966
      px      :     1.095055
      py      :     1.156300
      dz2     :     0.002900  d :     0.060433
      dxz     :     0.018352
      dyz     :     0.018142
      dx2y2   :     0.019253
      dxy     :     0.001786

  1 C s       :     2.876637  s :     2.876637
      pz      :     0.999308  p :     2.989076
      px      :     1.089785
      py      :     0.899983
      dz2     :     0.011742  d :     0.122453
      dxz     :     0.027733
      dyz     :     0.037289
      dx2y2   :     0.034666
      dxy     :     0.011024

  2 O s       :     3.459231  s :     3.459231
      pz      :     1.511262  p :     4.734237
      px      :     1.678351
      py      :     1.544623
      dz2     :     0.108829  d :     0.492743
      dxz     :     0.106588
      dyz     :     0.118186
      dx2y2   :     0.080706
      dxy     :     0.078434

  3 P s       :     4.652552  s :     4.652552
      pz      :     2.777591  p :     8.387037
      px      :     2.769541
      py      :     2.839905
      dz2     :     0.293498  d :     1.571996
      dxz     :     0.328427
      dyz     :     0.310193
      dx2y2   :     0.286850
      dxy     :     0.353028

  4 S s       :     5.562357  s :     5.562357
      pz      :     3.588755  p :    10.453960
      px      :     3.538095
      py      :     3.327110
      dz2     :     0.018922  d :     0.139290
      dxz     :     0.013713
      dyz     :     0.032323
      dx2y2   :     0.030667
      dxy     :     0.043664

  5 O s       :     3.462078  s :     3.462078
      pz      :     1.613236  p :     4.741603
      px      :     1.604262
      py      :     1.524106
      dz2     :     0.070206  d :     0.465250
      dxz     :     0.088351
      dyz     :     0.101847
      dx2y2   :     0.089060
      dxy     :     0.115786

  6 C s       :     2.874769  s :     2.874769
      pz      :     0.996063  p :     2.973288
      px      :     1.030044
      py      :     0.947180
      dz2     :     0.013347  d :     0.122151
      dxz     :     0.032617
      dyz     :     0.034893
      dx2y2   :     0.010935
      dxy     :     0.030359

  7 C s       :     2.976092  s :     2.976092
      pz      :     1.101206  p :     3.373583
      px      :     1.123800
      py      :     1.148577
      dz2     :     0.004750  d :     0.060356
      dxz     :     0.017214
      dyz     :     0.017438
      dx2y2   :     0.002126
      dxy     :     0.018828

  8 S s       :     5.434314  s :     5.434314
      pz      :     3.424569  p :    10.099171
      px      :     3.374154
      py      :     3.300448
      dz2     :     0.034114  d :     0.306985
      dxz     :     0.062196
      dyz     :     0.071078
      dx2y2   :     0.057253
      dxy     :     0.082344

  9 C s       :     3.010068  s :     3.010068
      pz      :     1.078760  p :     3.319546
      px      :     1.142293
      py      :     1.098493
      dz2     :     0.010070  d :     0.082848
      dxz     :     0.017228
      dyz     :     0.022395
      dx2y2   :     0.009887
      dxy     :     0.023267

 10 S s       :     5.435311  s :     5.435311
      pz      :     3.404646  p :    10.088472
      px      :     3.298560
      py      :     3.385267
      dz2     :     0.048500  d :     0.304219
      dxz     :     0.060188
      dyz     :     0.064313
      dx2y2   :     0.042092
      dxy     :     0.089125

 11 P s       :     4.653947  s :     4.653947
      pz      :     2.806917  p :     8.386806
      px      :     2.764644
      py      :     2.815245
      dz2     :     0.326017  d :     1.577356
      dxz     :     0.313027
      dyz     :     0.344425
      dx2y2   :     0.233430
      dxy     :     0.360457

 12 S s       :     5.564612  s :     5.564612
      pz      :     3.436896  p :    10.451376
      px      :     3.562859
      py      :     3.451621
      dz2     :     0.020767  d :     0.137271
      dxz     :     0.025338
      dyz     :     0.050398
      dx2y2   :     0.017025
      dxy     :     0.023744

 13 O s       :     3.463029  s :     3.463029
      pz      :     1.574917  p :     4.733169
      px      :     1.683016
      py      :     1.475236
      dz2     :     0.111600  d :     0.479355
      dxz     :     0.067665
      dyz     :     0.115833
      dx2y2   :     0.083396
      dxy     :     0.100860

 14 C s       :     2.876800  s :     2.876800
      pz      :     1.065236  p :     2.970323
      px      :     1.063864
      py      :     0.841223
      dz2     :     0.029038  d :     0.120247
      dxz     :     0.010557
      dyz     :     0.020323
      dx2y2   :     0.029064
      dxy     :     0.031265

 15 C s       :     2.975709  s :     2.975709
      pz      :     1.162420  p :     3.369350
      px      :     1.112097
      py      :     1.094832
      dz2     :     0.016514  d :     0.060161
      dxz     :     0.006342
      dyz     :     0.010448
      dx2y2   :     0.011854
      dxy     :     0.015002

 16 O s       :     3.469702  s :     3.469702
      pz      :     1.633014  p :     4.740618
      px      :     1.533075
      py      :     1.574529
      dz2     :     0.074734  d :     0.465319
      dxz     :     0.094471
      dyz     :     0.090291
      dx2y2   :     0.101427
      dxy     :     0.104396

 17 C s       :     2.876285  s :     2.876285
      pz      :     1.028470  p :     2.976969
      px      :     0.963581
      py      :     0.984917
      dz2     :     0.018402  d :     0.120929
      dxz     :     0.026106
      dyz     :     0.024961
      dx2y2   :     0.026042
      dxy     :     0.025420

 18 C s       :     2.976934  s :     2.976934
      pz      :     1.156597  p :     3.368685
      px      :     1.065375
      py      :     1.146714
      dz2     :     0.008907  d :     0.060029
      dxz     :     0.012032
      dyz     :     0.014273
      dx2y2   :     0.010308
      dxy     :     0.014508

 19 H s       :     0.794070  s :     0.794070
      pz      :     0.013848  p :     0.044200
      px      :     0.022406
      py      :     0.007947

 20 H s       :     0.793531  s :     0.793531
      pz      :     0.014327  p :     0.043900
      px      :     0.007908
      py      :     0.021665

 21 H s       :     0.787504  s :     0.787504
      pz      :     0.015089  p :     0.044552
      px      :     0.008054
      py      :     0.021409

 22 H s       :     0.770661  s :     0.770661
      pz      :     0.011409  p :     0.040671
      px      :     0.023790
      py      :     0.005471

 23 H s       :     0.773959  s :     0.773959
      pz      :     0.015901  p :     0.043431
      px      :     0.008184
      py      :     0.019346

 24 H s       :     0.778790  s :     0.778790
      pz      :     0.010816  p :     0.041610
      px      :     0.017052
      py      :     0.013742

 25 H s       :     0.766362  s :     0.766362
      pz      :     0.015345  p :     0.040558
      px      :     0.013531
      py      :     0.011682

 26 H s       :     0.787259  s :     0.787259
      pz      :     0.013700  p :     0.044695
      px      :     0.013639
      py      :     0.017355

 27 H s       :     0.791732  s :     0.791732
      pz      :     0.011436  p :     0.043901
      px      :     0.016000
      py      :     0.016465

 28 H s       :     0.793307  s :     0.793307
      pz      :     0.016039  p :     0.044782
      px      :     0.015146
      py      :     0.013597

 29 H s       :     0.755140  s :     0.755140
      pz      :     0.011671  p :     0.048037
      px      :     0.021254
      py      :     0.015112

 30 H s       :     0.754633  s :     0.754633
      pz      :     0.018788  p :     0.048024
      px      :     0.019544
      py      :     0.009691

 31 H s       :     0.775417  s :     0.775417
      pz      :     0.011429  p :     0.042743
      px      :     0.024199
      py      :     0.007115

 32 H s       :     0.771589  s :     0.771589
      pz      :     0.027332  p :     0.040758
      px      :     0.007927
      py      :     0.005498

 33 H s       :     0.792942  s :     0.792942
      pz      :     0.028262  p :     0.044553
      px      :     0.007949
      py      :     0.008343

 34 H s       :     0.790156  s :     0.790156
      pz      :     0.012832  p :     0.044495
      px      :     0.008907
      py      :     0.022756

 35 H s       :     0.791483  s :     0.791483
      pz      :     0.009930  p :     0.044008
      px      :     0.024036
      py      :     0.010042

 36 H s       :     0.778078  s :     0.778078
      pz      :     0.023439  p :     0.042100
      px      :     0.010893
      py      :     0.007767

 37 H s       :     0.770072  s :     0.770072
      pz      :     0.013205  p :     0.040601
      px      :     0.006616
      py      :     0.020780

 38 H s       :     0.792102  s :     0.792102
      pz      :     0.014079  p :     0.045292
      px      :     0.008289
      py      :     0.022924

 39 H s       :     0.788201  s :     0.788201
      pz      :     0.013081  p :     0.044616
      px      :     0.015850
      py      :     0.015685

 40 H s       :     0.793798  s :     0.793798
      pz      :     0.023716  p :     0.043957
      px      :     0.010833
      py      :     0.009408


---------------------------------
LOEWDIN BOND ORDERS (THRESH 0.050000)
---------------------------------
B(  0-C ,  1-C ) :   1.0926 B(  0-C ,  2-O ) :   0.1620 B(  0-C , 19-H ) :   0.9172 
B(  0-C , 20-H ) :   0.9213 B(  0-C , 21-H ) :   0.9138 B(  1-C ,  2-O ) :   1.2907 
B(  1-C ,  3-P ) :   0.0973 B(  1-C ,  4-S ) :   0.0577 B(  1-C , 21-H ) :   0.0503 
B(  1-C , 22-H ) :   0.8236 B(  1-C , 23-H ) :   0.8205 B(  2-O ,  3-P ) :   1.5544 
B(  2-O ,  4-S ) :   0.1923 B(  2-O ,  5-O ) :   0.2390 B(  2-O ,  8-S ) :   0.1468 
B(  2-O , 22-H ) :   0.0994 B(  2-O , 23-H ) :   0.0965 B(  3-P ,  4-S ) :   1.9961 
B(  3-P ,  5-O ) :   1.5756 B(  3-P ,  6-C ) :   0.0888 B(  3-P ,  8-S ) :   1.2203 
B(  3-P ,  9-C ) :   0.0903 B(  4-S ,  5-O ) :   0.1648 B(  4-S ,  8-S ) :   0.1472 
B(  5-O ,  6-C ) :   1.2987 B(  5-O ,  7-C ) :   0.1523 B(  5-O ,  8-S ) :   0.1524 
B(  5-O , 24-H ) :   0.0990 B(  5-O , 25-H ) :   0.1015 B(  6-C ,  7-C ) :   1.0960 
B(  6-C , 24-H ) :   0.8269 B(  6-C , 25-H ) :   0.8216 B(  6-C , 26-H ) :   0.0512 
B(  7-C , 26-H ) :   0.9113 B(  7-C , 27-H ) :   0.9200 B(  7-C , 28-H ) :   0.9153 
B(  8-S ,  9-C ) :   1.3021 B(  8-S , 10-S ) :   0.2087 B(  8-S , 29-H ) :   0.0615 
B(  8-S , 30-H ) :   0.0575 B(  9-C , 10-S ) :   1.2890 B(  9-C , 11-P ) :   0.0883 
B(  9-C , 29-H ) :   0.8387 B(  9-C , 30-H ) :   0.8389 B( 10-S , 11-P ) :   1.2376 
B( 10-S , 12-S ) :   0.1475 B( 10-S , 13-O ) :   0.1523 B( 10-S , 16-O ) :   0.1558 
B( 10-S , 29-H ) :   0.0570 B( 10-S , 30-H ) :   0.0601 B( 11-P , 12-S ) :   2.0045 
B( 11-P , 13-O ) :   1.5743 B( 11-P , 14-C ) :   0.0997 B( 11-P , 16-O ) :   1.5603 
B( 11-P , 17-C ) :   0.0967 B( 12-S , 13-O ) :   0.1821 B( 12-S , 16-O ) :   0.1766 
B( 13-O , 14-C ) :   1.2744 B( 13-O , 15-C ) :   0.1602 B( 13-O , 16-O ) :   0.2306 
B( 13-O , 31-H ) :   0.0946 B( 13-O , 32-H ) :   0.0984 B( 14-C , 15-C ) :   1.0932 
B( 14-C , 31-H ) :   0.8268 B( 14-C , 32-H ) :   0.8264 B( 14-C , 34-H ) :   0.0511 
B( 15-C , 33-H ) :   0.9188 B( 15-C , 34-H ) :   0.9128 B( 15-C , 35-H ) :   0.9159 
B( 16-O , 17-C ) :   1.2910 B( 16-O , 18-C ) :   0.1618 B( 16-O , 36-H ) :   0.0964 
B( 16-O , 37-H ) :   0.0990 B( 17-C , 18-C ) :   1.0928 B( 17-C , 36-H ) :   0.8273 
B( 17-C , 37-H ) :   0.8273 B( 17-C , 39-H ) :   0.0506 B( 18-C , 38-H ) :   0.9181 
[...]
36 H  px              0.0       0.2       0.4       0.0       0.0       0.0
37 H  s               0.0       0.1       0.3       0.0       0.0       0.0
37 H  pz              0.1       0.3       0.7       0.0       0.0       0.0
37 H  py              0.0       0.1       0.2       0.0       0.0       0.0

                    522       523       524       525       526       527   
                  18.87090  18.91694  19.08437  19.19717  21.96567  21.97501
                   0.00000   0.00000   0.00000   0.00000   0.00000   0.00000
                  --------  --------  --------  --------  --------  --------
 0 C  s               0.0       0.0       0.0       0.0       1.6      89.7
 3 P  s               0.0       0.1       0.0       0.1       0.0       0.0
 3 P  py              0.0       0.2       0.1       0.0       0.0       0.0
 4 S  s               0.0      90.1       6.7       2.0       0.0       0.0
 7 C  s               0.0       0.0       0.0       0.0       1.0       6.1
 8 S  s               4.9       0.2      33.3      60.5       0.0       0.0
 9 C  s               0.0       0.0       0.0       1.0       0.9       0.8
10 S  s               0.7       8.5      58.7      31.1       0.0       0.0
11 P  s               0.2       0.0       0.0       0.1       0.0       0.0
11 P  pz              0.1       0.0       0.0       0.0       0.0       0.0
11 P  py              0.1       0.0       0.1       0.0       0.0       0.0
12 S  s              93.4       0.1       0.5       4.8       0.0       0.0
14 C  s               0.1       0.0       0.0       0.0       0.0       0.4
15 C  s               0.0       0.0       0.0       0.0       1.4       0.0
17 C  s               0.0       0.0       0.0       0.0       0.5       0.0
18 C  s               0.0       0.0       0.0       0.0      94.2       2.5

                    528       529       530       531       532       533   
                  21.98777  22.02600  22.04722  22.06634  22.07991  22.09670
                   0.00000   0.00000   0.00000   0.00000   0.00000   0.00000
                  --------  --------  --------  --------  --------  --------
 0 C  s               5.4       2.0       0.5       0.3       0.2       0.0
 1 C  s               1.1       2.6       1.7       1.4       7.1      46.5
 6 C  s               0.4       1.5       7.8       3.4      82.8       3.3
 7 C  s              85.1       6.3       0.2       0.3       0.1       0.0
 9 C  s               2.3      21.0      33.5      17.6       6.3      16.8
14 C  s               0.9      26.2       2.0       0.0       0.7      23.0
15 C  s               3.7      39.7      15.0      16.0       2.0       9.2
17 C  s               0.2       0.2      38.6      58.7       0.2       0.6
18 C  s               0.6       0.0       0.3       1.9       0.1       0.0

                    534       535       536       537       538   
                  22.10445  43.81319  43.85302  43.90108  43.92800
                   0.00000   0.00000   0.00000   0.00000   0.00000
                  --------  --------  --------  --------  --------
 1 C  s              39.1       0.0       0.0       0.0       0.0
 2 O  s               0.0       1.4       0.0      14.2      84.3
 5 O  s               0.0       1.4      95.6       2.4       0.5
 6 C  s               0.3       0.0       0.0       0.0       0.0
 7 C  s               0.6       0.0       0.0       0.0       0.0
13 O  s               0.0       1.0       3.3      82.7      12.8
14 C  s              46.2       0.0       0.0       0.0       0.0
15 C  s              12.7       0.0       0.0       0.0       0.0
16 O  s               0.0      96.1       0.9       0.5       2.4
17 C  s               0.7       0.0       0.0       0.0       0.0


                      *****************************
                      * MAYER POPULATION ANALYSIS *
                      *****************************

  NA   - Mulliken gross atomic population
  ZA   - Total nuclear charge
  QA   - Mulliken gross atomic charge
  VA   - Mayer's total valence
  BVA  - Mayer's bonded valence
  FA   - Mayer's free valence

  ATOM       NA         ZA         QA         VA         BVA        FA
  0 C      6.4916     6.0000    -0.4916     3.7972     3.7972    -0.0000
  1 C      6.1422     6.0000    -0.1422     3.6054     3.6054    -0.0000
  2 O      8.2913     8.0000    -0.2913     1.8217     1.8217    -0.0000
  3 P     14.2924    15.0000     0.7076     5.1409     5.1409     0.0000
  4 S     16.5118    16.0000    -0.5118     2.0050     2.0050    -0.0000
  5 O      8.3295     8.0000    -0.3295     1.8557     1.8557    -0.0000
  6 C      6.1550     6.0000    -0.1550     3.6602     3.6602     0.0000
  7 C      6.4664     6.0000    -0.4664     3.7630     3.7630    -0.0000
  8 S     16.1390    16.0000    -0.1390     2.1880     2.1880    -0.0000
  9 C      6.2470     6.0000    -0.2470     3.6830     3.6830    -0.0000
 10 S     16.1474    16.0000    -0.1474     2.1944     2.1944     0.0000
 11 P     14.2930    15.0000     0.7070     5.1795     5.1795     0.0000
 12 S     16.5165    16.0000    -0.5165     2.0014     2.0014    -0.0000
 13 O      8.2852     8.0000    -0.2852     1.8544     1.8544    -0.0000
 14 C      6.1206     6.0000    -0.1206     3.6253     3.6253    -0.0000
 15 C      6.5023     6.0000    -0.5023     3.8110     3.8110    -0.0000
 16 O      8.3274     8.0000    -0.3274     1.7909     1.7909     0.0000
 17 C      6.1260     6.0000    -0.1260     3.6541     3.6541    -0.0000
 18 C      6.4907     6.0000    -0.4907     3.8216     3.8216     0.0000
 19 H      0.8350     1.0000     0.1650     0.9589     0.9589    -0.0000
 20 H      0.8330     1.0000     0.1670     0.9580     0.9580     0.0000
 21 H      0.8296     1.0000     0.1704     0.9577     0.9577    -0.0000
 22 H      0.8207     1.0000     0.1793     0.9456     0.9456     0.0000
 23 H      0.8234     1.0000     0.1766     0.9543     0.9543    -0.0000
 24 H      0.8273     1.0000     0.1727     0.9456     0.9456     0.0000
 25 H      0.8230     1.0000     0.1770     0.9433     0.9433    -0.0000
 26 H      0.8266     1.0000     0.1734     0.9570     0.9570     0.0000
 27 H      0.8297     1.0000     0.1703     0.9559     0.9559    -0.0000
 28 H      0.8339     1.0000     0.1661     0.9587     0.9587    -0.0000
 29 H      0.7696     1.0000     0.2304     0.9401     0.9401     0.0000
 30 H      0.7682     1.0000     0.2318     0.9396     0.9396    -0.0000
 31 H      0.8303     1.0000     0.1697     0.9563     0.9563    -0.0000
 32 H      0.8260     1.0000     0.1740     0.9473     0.9473    -0.0000
 33 H      0.8285     1.0000     0.1715     0.9549     0.9549    -0.0000
 34 H      0.8333     1.0000     0.1667     0.9587     0.9587    -0.0000
 35 H      0.8333     1.0000     0.1667     0.9568     0.9568    -0.0000
 36 H      0.8361     1.0000     0.1639     0.9547     0.9547    -0.0000
 37 H      0.8240     1.0000     0.1760     0.9459     0.9459    -0.0000
 38 H      0.8290     1.0000     0.1710     0.9572     0.9572    -0.0000
 39 H      0.8307     1.0000     0.1693     0.9582     0.9582    -0.0000
 40 H      0.8337     1.0000     0.1663     0.9580     0.9580     0.0000

  Mayer bond orders larger than 0.100000
B(  0-C ,  1-C ) :   0.9241 B(  0-C , 19-H ) :   0.9646 B(  0-C , 20-H ) :   0.9726 
B(  0-C , 21-H ) :   0.9601 B(  1-C ,  2-O ) :   0.7566 B(  1-C , 22-H ) :   0.9532 
B(  1-C , 23-H ) :   0.9533 B(  2-O ,  3-P ) :   1.1209 B(  3-P ,  4-S ) :   1.7366 
B(  3-P ,  5-O ) :   1.1057 B(  3-P ,  8-S ) :   1.0545 B(  5-O ,  6-C ) :   0.7957 
B(  6-C ,  7-C ) :   0.9215 B(  6-C , 24-H ) :   0.9585 B(  6-C , 25-H ) :   0.9479 
B(  7-C , 26-H ) :   0.9564 B(  7-C , 27-H ) :   0.9668 B(  7-C , 28-H ) :   0.9570 
B(  8-S ,  9-C ) :   0.8953 B(  9-C , 10-S ) :   0.8857 B(  9-C , 29-H ) :   0.9046 
B(  9-C , 30-H ) :   0.9051 B( 10-S , 11-P ) :   1.1014 B( 11-P , 12-S ) :   1.7154 
B( 11-P , 13-O ) :   1.1780 B( 11-P , 16-O ) :   1.0743 B( 13-O , 14-C ) :   0.7487 
B( 14-C , 15-C ) :   0.9367 B( 14-C , 31-H ) :   0.9628 B( 14-C , 32-H ) :   0.9491 
B( 15-C , 33-H ) :   0.9653 B( 15-C , 34-H ) :   0.9590 B( 15-C , 35-H ) :   0.9656 
B( 16-O , 17-C ) :   0.7633 B( 17-C , 18-C ) :   0.9466 B( 17-C , 36-H ) :   0.9554 
B( 17-C , 37-H ) :   0.9536 B( 18-C , 38-H ) :   0.9614 B( 18-C , 39-H ) :   0.9599 
B( 18-C , 40-H ) :   0.9722 

-------
TIMINGS
-------

Total SCF time: 0 days 0 hours 1 min 45 sec 

Total time                  ....     105.757 sec
Sum of individual times     ....     105.155 sec  ( 99.4%)

SCF preparation             ....       0.889 sec  (  0.8%)
Fock matrix formation       ....     100.997 sec  ( 95.5%)
  Startup                   ....       0.151 sec  (  0.1% of F)
  Split-RI-J                ....      23.962 sec  ( 23.7% of F)
  XC integration            ....      45.468 sec  ( 45.0% of F)
    XC Preparation          ....       0.000 sec  (  0.0% of XC)
    Basis function eval.    ....       7.074 sec  ( 15.6% of XC)
    Density eval.           ....      16.933 sec  ( 37.2% of XC)
    XC-Functional eval.     ....       3.114 sec  (  6.8% of XC)
    XC-Potential eval.      ....      17.059 sec  ( 37.5% of XC)
  CPCM terms                ....      29.917 sec  ( 29.6% of F)
Diagonalization             ....       0.000 sec  (  0.0%)
Density matrix formation    ....       0.830 sec  (  0.8%)
Total Energy calculation    ....       0.075 sec  (  0.1%)
Population analysis         ....       0.478 sec  (  0.5%)
Orbital Transformation      ....       0.236 sec  (  0.2%)
Orbital Orthonormalization  ....       0.000 sec  (  0.0%)
DIIS solution               ....       1.434 sec  (  1.4%)
  MO trafo                  ....       0.000 sec  (  0.0 % of DIIS)
  Orb grad                  ....       0.000 sec  (  0.0 % of DIIS)
  Energy W gradient         ....       0.000 sec  (  0.0 % of DIIS)
  DIIS error                ....       0.106 sec  (  7.4 % of DIIS)
  DIIS work                 ....       1.177 sec  ( 82.1 % of DIIS)
  Form Q                    ....       0.000 sec  (  0.0 % of DIIS)
  Form QpQm                 ....       0.000 sec  (  0.0 % of DIIS)
  Exp/Cayley                ....       0.000 sec  (  0.0 % of DIIS)
  Orb update                ....       0.000 sec  (  0.0 % of DIIS)
  Wake-sleep                ....       0.035 sec  (  2.4 % of DIIS)
SOSCF solution              ....       0.218 sec  (  0.2%)
  MO trafo                  ....       0.171 sec  ( 78.5 % of SOSCF)
  Orb grad                  ....       0.001 sec  (  0.4 % of SOSCF)
  Rot update                ....       0.000 sec  (  0.1 % of SOSCF)
  Step                      ....       0.046 sec  ( 20.9 % of SOSCF)
Finished LeanSCF after 106.0 sec

Maximum memory used throughout the entire LEANSCF-calculation: 128.2 MB


-------------------------------------------------------------------------------
                          DFT DISPERSION CORRECTION                            
                                                                               
                                DFTD4 V3.4.0                                   
-------------------------------------------------------------------------------
The R2SCAN3C composite method is recognized
Using three-body term ABC
Active option DFTDOPT                   ...         5   

-------------------------   ----------------
Dispersion correction           -0.022105647
-------------------------   ----------------

------------------   -----------------
gCP correction             0.046359435
------------------   -----------------

-------------------------   --------------------
FINAL SINGLE POINT ENERGY     -2932.469223608231
-------------------------   --------------------


------------------------------------------------------------------------------
                              ORCA PROPERTY CALCULATIONS
------------------------------------------------------------------------------

GBWName                                 ... sp_solv.gbw
Number of atoms                         ...     41
Number of basis functions               ...    539
Max core memory                         ...   1024 MB

Electric properties:
Dipole moment                           ... YES
Quadrupole moment                       ...  NO
Static polarizability (Dipole/Dipole)   ...  NO
Static polarizability (Dipole/Quad.)    ...  NO
Static polarizability (Quad./Quad.)     ...  NO
Static polarizability (Velocity)        ...  NO

Atomic electric properties:
Dipole moment                           ...  NO
Quadrupole moment                       ...  NO
Static polarizability                   ...  NO

Choice of electric origin               ... Center of mass
Position of electric origin             ...     0.000001     0.000002    -0.000002

General magnetic properties:
Magnetizability                         ...  NO

EPR properties:
g-Tensor (aka g-matrix)                 ...  NO
Zero-Field splitting spin-orbit         ...  NO
Zero-field splitting spin-spin          ...  NO
Hyperfine couplings                     ...  NO (   0 nuclei)
Quadrupole couplings                    ...  NO (   0 nuclei)
Contact density                         ...  NO (   0 nuclei)

NMR properties:
Chemical shifts                         ...  NO (   0 nuclei)
Spin-rotation constants                 ...  NO (   0 nuclei)
Spin-spin couplings                     ...  NO (   0 nuclei,    0 pairs)

Choice of magnetic origin               ... GIAO
Position of magnetic origin             ...     0.000000     0.000000     0.000000

Properties with geometric perturbations:
SCF Hessian                             ...  NO
IR spectrum                             ...  NO
VCD spectrum                            ...  NO
X-ray spectroscopy properties:
SCF XES/XAS/RIXS spectra                ...  NO


-------------
DIPOLE MOMENT
-------------

Method             : SCF
Type of density    : Electron Density
Multiplicity       :   1
Irrep              :   0
Energy             : -2932.4934773965142085 Eh
Relativity type    : 
Basis              : AO
                                X                 Y                 Z
Electronic contribution:     -0.647821423      -4.669137490      -9.098831917
Nuclear contribution   :      0.360004276       5.128879542       9.903140195
                        -----------------------------------------
Total Dipole Moment    :     -0.287817146       0.459742053       0.804308279
                        -----------------------------------------
Magnitude (a.u.)       :      0.970109928
Magnitude (Debye)      :      2.465823474



--------------------
Rotational spectrum 
--------------------
 
Rotational constants in cm-1:             0.013271             0.005060             0.004910 
Rotational constants in MHz :           397.844054           151.691928           147.187525 

Dipole components along the rotational axes: 
x,y,z [a.u.] :    -0.202211     0.069996    -0.946216 
x,y,z [Debye]:    -0.513980     0.177915    -2.405090 

 

Dipole moment calculation done in   0.1 sec 

Maximum memory used throughout the entire PROP-calculation: 52.2 MB

--------------------------------
SUGGESTED CITATIONS FOR THIS RUN
--------------------------------

Below you find a list of papers that are relevant to this ORCA run
We neither can nor want to force you to cite these papers, but we appreciate if you do
You receive ORCA, which is the product of decades of hard work by many enthusiastic individuals, for free
The only thing we kindly ask in return is that you cite our papers,
We deeply appreciate it, if you show your appreciation for ORCA by not just citing the generic ORCA reference.

Please note that relegating all ORCA citations to the supporting information does *not* help us.
SI sections are not indexed - citations you put there will not count into any citation statistics
But we need these citations in order to attract the funding resources that allow us to do what we are doing

Therefore, if you are a happy ORCA user, please consider citing a few of the papers listed below in the main body of your paper

In addition to the list printed below, the program has created the file sp_solv.bibtex that contains the list in bibtex format
You can import this file easily into all common literature databanks and citation aid programs


List of essential papers. We consider these as the minimum necessary citations

  1. Neese,F.
     Software update: the ORCA program system, version 5.0
     WIRES Comput. Molec. Sci., 2022 12(1)e1606
     doi.org/10.1002/wcms.1606
  2. Grimme,S.; Hansen,A.; Ehlert,S.; Mewes,J.
     r2SCAN-3c: A 'Swiss army knife' composite electronic-structure method
     J. Chem. Phys., 2021 154 064103
     doi.org/10.1063/5.0040021

List of papers to cite with high priority. The work reported in these papers was absolutely
necessary for this run to complete.
Our perspective: the developers of density functionals and basis sets usually get cited in chemistry papers
Good! But without the algorithms to do something with them, the functionals or basis sets would not do anything.
Hence, in our opinion, the algorithm design and method developments papers are equally worthy of getting cited

  1. Neese,F.
     An improvement of the resolution of the identity approximation for the formation of the Coulomb matrix
     J. Comp. Chem., 2003 24(14)1740-1747
     doi.org/10.1002/jcc.10318
  2. Garcia-Rates,M.; Neese,F.
     Effect of the Solute Cavity on the Solvation Energy and its Derivatives within the Framework of the Gaussian Charge Scheme
     J. Comput. Chem., 2020 41 922-939
     doi.org/10.1002/jcc.26139
  3. Neese,F.
     The SHARK Integral Generation and Digestion System
     J. Comp. Chem., 2022  1-16
     doi.org/10.1002/jcc.26942
  4. Lehtola,S.; Steigemann,C.; Oliveira,M.; Marques,M.
     Recent developments in Libxc - A comprehensive library of functionals for density functional theory
     Software X, 2018 7 
     doi.org/10.1016/j.softx.2017.11.002
  5. Caldeweyher,E.; Bannwarth,C.; Grimme,S.
     Extension of the D3 dispersion coefficient model
     J. Chem. Phys., 2017 147 034112-XXXX
     doi.org/10.1063/1.4993215
  6. Caldeweyher,E.; Ehlert,S.; Hansen,A.; Neugebauer,H.; Spicher,S.; Bannwarth,C.; Grimme,S.
     A generally applicable atomic-charge dependent London dispersion correction
     J. Chem. Phys., 2019 150 154122-XXXX
     doi.org/10.1063/1.5090222
  7. Caldeweyher,E.; Mewes,J.; Ehlert,S.; Grimme,S.
     Extension and evaluation of the D4 London-dispersion model for periodic systems
     Phys. Chem. Chem. Phys., 2020 22(16)8499-8512
     doi.org/10.1039/D0CP00502A

List of suggested additional citations. These are papers that are important in the 'surrounding' of 
of this run, or papers that preceded the highly important papers. If you like your results we are grateful for a citation.

  1. Neese,F.
     The ORCA program system
     WIRES Comput. Molec. Sci., 2012 2(1)73-78
     doi.org/10.1002/wcms.81
  2. Neese,F.
     Software update: the ORCA program system, version 4.0
     WIRES Comput. Molec. Sci., 2018 8(1)1-6
     doi.org/10.1002/wcms.1327
  3. Neese,F.; Wennmohs,F.; Becker,U.; Riplinger,C.
     The ORCA quantum chemistry program package
     J. Chem. Phys., 2020 152 Art. No. L224108
     doi.org/10.1063/5.0004608

List of optional additional citations

  1. Neese,F.
     Approximate second-order SCF convergence for spin unrestricted wavefunctions
     Chem. Phys. Lett., 2000 325(1-3)93-98
     doi.org/10.1016/s0009-2614(00)00662-x

Timings for individual modules:

Sum of individual times          ...      110.061 sec (=   1.834 min)
Startup calculation              ...        3.113 sec (=   0.052 min)   2.8 %
SCF iterations                   ...      106.738 sec (=   1.779 min)  97.0 %
Property calculations            ...        0.209 sec (=   0.003 min)   0.2 %
                             ****ORCA TERMINATED NORMALLY****
TOTAL RUN TIME: 0 days 0 hours 1 minutes 50 seconds 845 msec
