
                                 *****************
                                 * O   R   C   A *
                                 *****************

                                            #,                                       
                                            ###                                      
                                            ####                                     
                                            #####                                    
                                            ######                                   
                                           ########,                                 
                                     ,,################,,,,,                         
                               ,,#################################,,                 
                          ,,##########################################,,             
                       ,#########################################, ''#####,          
                    ,#############################################,,   '####,        
                  ,##################################################,,,,####,       
                ,###########''''           ''''###############################       
              ,#####''   ,,,,##########,,,,          '''####'''          '####       
            ,##' ,,,,###########################,,,                        '##       
           ' ,,###''''                  '''############,,,                           
         ,,##''                                '''############,,,,        ,,,,,,###''
      ,#''                                            '''#######################'''  
     '                                                          ''''####''''         
             ,#######,   #######,   ,#######,      ##                                
            ,#'     '#,  ##    ##  ,#'     '#,    #''#        ,####,   ,####,        
            ##       ##  ##   ,#'  ##            #'  '#       #'       #'  '#        
            ##       ##  #######   ##           ,######,      #####,   #    #        
            '#,     ,#'  ##    ##  '#,     ,#' ,#      #,     #,   #   #,  ,#        
             '#######'   ##     ##  '#######'  #'      '#     '####' # '####'        



                #########################################################
                #                        -***-                          #
                #          Department of theory and spectroscopy        #
                #                                                       #
                #                      Frank Neese                      #
                #                                                       #
                #     Directorship, Architecture, Infrastructure        #
                #                    SHARK, DRIVERS                     #
                #        Core code/Algorithms in most modules           #
                #                                                       #
                #        Max Planck Institute fuer Kohlenforschung      #
                #                Kaiser Wilhelm Platz 1                 #
                #                 D-45470 Muelheim/Ruhr                 #
                #                      Germany                          #
                #                                                       #
                #                  All rights reserved                  #
                #                        -***-                          #
                #########################################################


                         Program Version 6.0.1  -  RELEASE   -


 With contributions from (in alphabetic order):
[Max-Planck-Institut fuer Kohlenforschung]                               
  Daniel Aravena         : Magnetic Suceptibility                        
  Michael Atanasov       : Ab Initio Ligand Field Theory (pilot matlab implementation)
  Alexander A. Auer      : GIAO ZORA, VPT2 properties, NMR spectrum      
  Ute Becker             : All parallelization in ORCA, NUMFREQ, NUMCALC 
  Giovanni Bistoni       : ED, misc. LED, open-shell LED, HFLD           
  Martin Brehm           : Molecular dynamics                            
  Dmytro Bykov           : pre 5.0 version of the SCF Hessian            
  Marcos Casanova-Páez   : Triplet and SCS-CIS(D). UHF-(DLPNO)-IP/EA/STEOM-CCSD. UHF-CVS-IP/STEOM-CCSD   
  Vijay G. Chilkuri      : MRCI spin determinant printing, contributions to CSF-ICE 
  Pauline Colinet        : FMM embedding                                 
  Dipayan Datta          : RHF DLPNO-CCSD density                        
  Achintya Kumar Dutta   : EOM-CC, STEOM-CC                              
  Nicolas Foglia         : Exact transition moments, OPA infrastructure, MCD improvements    
  Dmitry Ganyushin       : Spin-Orbit,Spin-Spin,Magnetic field MRCI      
  Miquel Garcia-Rates    : C-PCM and meta-GGA Hessian, CCSD/C-PCM, Gaussian charge scheme 
  Tiago L. C. Gouveia    : GS-ROHF, GS-ROCIS                             
  Yang Guo               : DLPNO-NEVPT2, F12-NEVPT2, CIM, IAO-localization        
  Andreas Hansen         : Spin unrestricted coupled pair/coupled cluster methods 
  Ingolf Harden          : AUTO-CI MPn and infrastructure                
  Benjamin Helmich-Paris : MC-RPA, TRAH-(SCF,CASSCF), AVAS, COSX integrals, SCF dyn. polar. 
  Lee Huntington         : MR-EOM, pCC                                   
  Robert Izsak           : Overlap fitted RIJCOSX, COSX-SCS-MP3, EOM     
  Riya Kayal             : Wick's Theorem for AUTO-CI, AUTO-CI UHF-CCSDT 
  Emily Kempfer          : AUTO-CI, RHF CISDT and CCSDT                  
  Christian Kollmar      : KDIIS, OOCD, Brueckner-CCSD(T), CCSD density, CASPT2, CASPT2-K, improved NEVPT2 
  Axel Koslowski         : Symmetry handling                             
  Simone Kossmann        : meta-GGA functionals, TD-DFT gradient, OOMP2, (MP2 Hessian; deprecated post 5.0) 
  Lucas Lang             : DCDCAS                                        
  Marvin Lechner         : AUTO-CI (C++ implementation), FIC-MRCC        
  Spencer Leger          : CASSCF response                               
  Dagmar Lenk            : GEPOL surface, SMD, ORCA-2-JSON               
  Dimitrios Liakos       : Extrapolation schemes; Compound Job, initial MDCI parallelization 
  Dimitrios Manganas     : Further ROCIS development; embedding schemes. LFT, Crystal Embedding 
  Dimitrios Pantazis     : SARC Basis sets                               
  Anastasios Papadopoulos: AUTO-CI, single reference methods and gradients 
  Taras Petrenko         : pre 6.0 DFT Hessian and TD-DFT gradient, (ASA, deprecated), ECA, 1-Electron XAS/XES, NRVS 
  Peter Pinski           : DLPNO-MP2, DLPNO-MP2 Gradient                 
  Christoph Reimann      : Effective Core Potentials                     
  Marius Retegan         : Local ZFS, SOC                                
  Christoph Riplinger    : Optimizer, TS searches, QM/MM, DLPNO-CCSD(T), (RO)-DLPNO pert. Triples 
  Michael Roemelt        : Original ROCIS implementation                 
  Masaaki Saitow         : Open-shell DLPNO-CCSD energy and density      
  Barbara Sandhoefer     : DKH picture change effects                    
  Kantharuban Sivalingam : CASSCF convergence/infrastructure, NEVPT2 and variants, FIC-MRCI 
  Bernardo de Souza      : ESD, SOC TD-DFT                               
  Georgi L. Stoychev     : AutoAux, RI-MP2 NMR, DLPNO-MP2 response, X2C  
  Van Anh Tran           : RI-MP2 g-tensors                              
  Willem Van den Heuvel  : Paramagnetic NMR                              
  Zikuan Wang            : NOTCH, Electric field optimization            
  Frank Wennmohs         : Technical directorship and infrastructure     
  Hang Xu                : AUTO-CI-Response properties                   
                                                                         
[FACCTs GmbH]                                                            
  Markus Bursch, Miquel Garcia-Rates, Christoph Riplinger, Bernardo de Souza, Georgi L. Stoychev 
                                                                 
  APM, Basis sets (HGBS, AHGBS, def-TZVP (Ac-Lr), def2-XVPD (La-Lu)), CI-OPT, improved COSX, DLPNO-Multilevel,           
  DOCKER, DRACO, updates on ESD, GOAT, IRC, LR-CPCM, MBIS, meta-GGA TD-DFT gradient, ML-optimized integration grids, 
  MM, NACMEs, nearIR, NEB, NEB-TS, NL-DFT gradient (VV10), 2- and 3-layer-ONIOM, interface openCOSMO-RS, QMMM,   
  Crystal-QMMM, SF, symmetry and pop. for TD-DFT, r2SCAN hybrids, SOLVATOR                                   
                                                                         
[Other institutions]                                                     
  V. Asgeirsson          : NEB                                           
  Christoph Bannwarth    : sTDA-DFT, sTD-DFT, PBEh-3c, B97-3c, D3        
  Sebastian Ehlert       : rSCAN, r2SCAN, r2SCAN-3c, D4, dhf basis sets  
  Marvin Friede          : D4 for Fr, Ra, Ac-Lr                          
  Lars Goerigk           : TD-DFT with DH, B97 family of functionals     
  Stefan Grimme          : VdW corrections, initial TS optimization, DFT functionals, gCP, sTDA/sTD-DF 
  Waldemar Hujo          : DFT-NL                                        
  H. Jonsson             : NEB                                           
  Holger Kruse           : gCP                                           
  Marcel Mueller         : wB97X-3c, vDZP basis set                      
  Hagen Neugebauer       : wr2SCAN                                       
  Tobias Risthaus        : range-separated hybrid DFT                    
  Lukas Wittmann         : regularized MP2, r2SCAN double-hybrids, wr2SCAN        
                                                                         
We gratefully acknowledge several colleagues who have allowed us to      
interface, adapt or use parts of their codes:                            
  Ed Valeev, F. Pavosevic, A. Kumar             : LibInt (2-el integral package), F12 methods 
  Garnet Chan, S. Sharma, J. Yang, R. Olivares  : DMRG                   
  Ulf Ekstrom                                   : XCFun DFT Library      
  Mihaly Kallay                                 : mrcc  (arbitrary order and MRCC methods)
  Frank Weinhold                                : gennbo (NPA and NBO analysis)           
  Simon Mueller                                 : openCOSMO-RS                            
  Christopher J. Cramer and Donald G. Truhlar   : smd solvation model                     
  S Lehtola, MJT Oliveira, MAL Marques          : LibXC Library                           
  Liviu Ungur et al                             : ANISO software                          


 Your calculation uses the libint2 library for the computation of 2-el integrals
 For citations please refer to: http://libint.valeyev.net

 Your ORCA version has been built with support for libXC version: 6.2.2
 For citations please refer to: https://libxc.gitlab.io

 This ORCA versions uses:
   CBLAS   interface :  Fast vector & matrix operations
   LAPACKE interface :  Fast linear algebra routines
   SCALAPACK package :  Parallel linear algebra routines
   Shared memory     :  Shared parallel matrices
   BLAS/LAPACK       :  OpenBLAS 0.3.27  USE64BITINT DYNAMIC_ARCH NO_AFFINITY Zen SINGLE_THREADED
        Core in use  :  Zen
   Copyright (c) 2011-2014, The OpenBLAS Project


Your calculation utilizes the geometrical counterpoise correction gCP
Please cite in your paper:
H.Kruse, S. Grimme J.Chem.Phys., 136, (2012), 154101 
   

Your calculation utilizes the atom-pairwise dispersion correction
based on EEQ partial charges (D4)


Your calculation utilizes the SMD solvation module
Please cite in your paper:
A.V. Marenich, C.J. Cramer, D.G. Truhlar J. Phys. Chem. B, 113, (2009), 6378 

================================================================================

----- Orbital basis set information -----
Your calculation utilizes the basis: def2-mTZVPP
   Stefan Grimme, Andreas Hansen, Sebastian Ehlert, and Jan-Michael Mewes 
   J. Chem. Phys. 154, 064103 (2021). DOI: 10.1063/5.0040021

----- AuxJ basis set information -----
Your calculation utilizes the auxiliary basis: def2/J
   F. Weigend, Phys. Chem. Chem. Phys. 8, 1057 (2006).

================================================================================
                                        WARNINGS
                       Please study these warnings very carefully!
================================================================================

WARNING: Old DensityContainer found on disk!
         Will remove this file - 
         If you want to keep old densities, please start your calculation with a different basename. 



WARNING: SCAN, rSCAN, or r2SCAN functional requested.
  ===> : libXC variant has now been activated.



================================================================================
                                       INPUT FILE
================================================================================
NAME = sp_solv.inp
|  1> ! r2scan-3c def2/J RI DEFGRID2 scfconv6 printgap
|  2> %output
|  3>     printlevel normal
|  4> end
|  5> %cpcm
|  6>     smd true
|  7>     smdsolvent "water"
|  8> end
|  9> * xyz 0 1
| 10> C 4.8361827416 -3.1356122212 -1.7588563044
| 11> C 4.9484427474 -2.1021617018 -0.6495203078
| 12> O 3.7476141076 -2.0720327877 0.1473820791
| 13> C 2.7597514891 -1.2865872012 -0.2261363138
| 14> O 2.7851234395 -0.5549412016 -1.194739031
| 15> C 1.5824202976 -1.3866803504 0.7213275374
| 16> C 0.4198454103 -0.605805295 0.1400846288
| 17> H 0.0481273095 -1.0512878468 -0.7889694215
| 18> C 0.7354480048 0.8494517411 -0.1323686688
| 19> O 0.1208321649 1.4969855434 -0.9551603844
| 20> O 1.6531494962 1.3320859429 0.6735330003
| 21> C 1.9835446051 2.7316605554 0.5644846239
| 22> C 0.9557360931 3.5958564997 1.276807739
| 23> S -0.9849204036 -0.5286991535 1.3018556051
| 24> P -2.4333773526 0.2150903823 -0.0742399451
| 25> S -2.3150546097 -0.4521558626 -1.9077195689
| 26> O -3.7908771575 -0.175750652 0.6741566861
| 27> C -4.2271710931 -1.5385223991 0.7481418989
| 28> O -2.4781213243 1.7886002924 0.074386878
| 29> C -2.8003686988 2.4160154175 1.3339182155
| 30> H 4.0451899218 -2.8564627601 -2.4517300309
| 31> H 5.7752479045 -3.1852001058 -2.2999966961
| 32> H 4.6114084766 -4.112206809 -1.3394628311
| 33> H 5.1173544068 -1.1046376432 -1.0648052473
| 34> H 5.7368229077 -2.361325604 0.0571142124
| 35> H 1.880296068 -0.9721325832 1.6861908057
| 36> H 1.3160195146 -2.4333463672 0.8664137171
| 37> H 2.9660569685 2.8073089322 1.0299975669
| 38> H 2.0429030362 2.9898127444 -0.4966291878
| 39> H 0.8512894811 3.2787501563 2.3108764166
| 40> H 1.278925829 4.63101664 1.2482205226
| 41> H -0.0056730145 3.5130693855 0.774920111
| 42> H -3.6280964745 -2.0766286829 1.481825196
| 43> H -4.1376183733 -2.0134138216 -0.2299924759
| 44> H -5.2683067237 -1.4956675377 1.0570904823
| 45> H -2.165761487 2.0157097553 2.1254561559
| 46> H -3.8473292948 2.2405529999 1.571928718
| 47> H -2.6108789444 3.4755964398 1.1818612522
| 48> *
| 49> 
| 50>                          ****END OF INPUT****
================================================================================

                       ****************************
                       * Single Point Calculation *
                       ****************************

---------------------------------
CARTESIAN COORDINATES (ANGSTROEM)
---------------------------------
  C      4.836183   -3.135612   -1.758856
  C      4.948443   -2.102162   -0.649520
  O      3.747614   -2.072033    0.147382
  C      2.759751   -1.286587   -0.226136
  O      2.785123   -0.554941   -1.194739
  C      1.582420   -1.386680    0.721328
  C      0.419845   -0.605805    0.140085
  H      0.048127   -1.051288   -0.788969
  C      0.735448    0.849452   -0.132369
  O      0.120832    1.496986   -0.955160
  O      1.653149    1.332086    0.673533
  C      1.983545    2.731661    0.564485
  C      0.955736    3.595856    1.276808
  S     -0.984920   -0.528699    1.301856
  P     -2.433377    0.215090   -0.074240
  S     -2.315055   -0.452156   -1.907720
  O     -3.790877   -0.175751    0.674157
  C     -4.227171   -1.538522    0.748142
  O     -2.478121    1.788600    0.074387
  C     -2.800369    2.416015    1.333918
  H      4.045190   -2.856463   -2.451730
  H      5.775248   -3.185200   -2.299997
  H      4.611408   -4.112207   -1.339463
  H      5.117354   -1.104638   -1.064805
  H      5.736823   -2.361326    0.057114
  H      1.880296   -0.972133    1.686191
  H      1.316020   -2.433346    0.866414
  H      2.966057    2.807309    1.029998
  H      2.042903    2.989813   -0.496629
  H      0.851289    3.278750    2.310876
  H      1.278926    4.631017    1.248221
  H     -0.005673    3.513069    0.774920
  H     -3.628096   -2.076629    1.481825
  H     -4.137618   -2.013414   -0.229992
  H     -5.268307   -1.495668    1.057090
  H     -2.165761    2.015710    2.125456
  H     -3.847329    2.240553    1.571929
  H     -2.610879    3.475596    1.181861

----------------------------
CARTESIAN COORDINATES (A.U.)
----------------------------
  NO LB      ZA    FRAG     MASS         X           Y           Z
   0 C     6.0000    0    12.011    9.139061   -5.925448   -3.323757
   1 C     6.0000    0    12.011    9.351202   -3.972510   -1.227416
   2 O     8.0000    0    15.999    7.081964   -3.915575    0.278512
   3 C     6.0000    0    12.011    5.215175   -2.431297   -0.427336
   4 O     8.0000    0    15.999    5.263121   -1.048687   -2.257730
   5 C     6.0000    0    12.011    2.990341   -2.620446    1.363111
   6 C     6.0000    0    12.011    0.793393   -1.144806    0.264722
   7 H     1.0000    0     1.008    0.090947   -1.986646   -1.490936
   8 C     6.0000    0    12.011    1.389795    1.605231   -0.250141
   9 O     8.0000    0    15.999    0.228340    2.828893   -1.804992
  10 O     8.0000    0    15.999    3.124000    2.517278    1.272793
  11 C     6.0000    0    12.011    3.748356    5.162090    1.066721
  12 C     6.0000    0    12.011    1.806079    6.795184    2.412817
  13 S    16.0000    0    32.060   -1.861230   -0.999097    2.460151
  14 P    15.0000    0    30.974   -4.598417    0.406462   -0.140293
  15 S    16.0000    0    32.060   -4.374819   -0.854451   -3.605068
  16 O     8.0000    0    15.999   -7.163720   -0.332121    1.273972
  17 C     6.0000    0    12.011   -7.988196   -2.907386    1.413783
  18 O     8.0000    0    15.999   -4.682971    3.379965    0.140571
  19 C     6.0000    0    12.011   -5.291930    4.565607    2.520740
  20 H     1.0000    0     1.008    7.644301   -5.397932   -4.633098
  21 H     1.0000    0     1.008   10.913637   -6.019156   -4.346364
  22 H     1.0000    0     1.008    8.714299   -7.770945   -2.531218
  23 H     1.0000    0     1.008    9.670398   -2.087463   -2.012190
  24 H     1.0000    0     1.008   10.841024   -4.462259    0.107930
  25 H     1.0000    0     1.008    3.553245   -1.837064    3.186439
  26 H     1.0000    0     1.008    2.486916   -4.598358    1.637285
  27 H     1.0000    0     1.008    5.605035    5.305045    1.946413
  28 H     1.0000    0     1.008    3.860527    5.649927   -0.938493
  29 H     1.0000    0     1.008    1.608704    6.195940    4.366924
  30 H     1.0000    0     1.008    2.416820    8.751353    2.358795
  31 H     1.0000    0     1.008   -0.010720    6.638739    1.464387
  32 H     1.0000    0     1.008   -6.856109   -3.924259    2.800244
  33 H     1.0000    0     1.008   -7.818966   -3.804801   -0.434623
  34 H     1.0000    0     1.008   -9.955657   -2.826402    1.997612
  35 H     1.0000    0     1.008   -4.092696    3.809139    4.016530
  36 H     1.0000    0     1.008   -7.270399    4.234032    2.970515
  37 H     1.0000    0     1.008   -4.933846    6.567925    2.233394

--------------------------------
INTERNAL COORDINATES (ANGSTROEM)
--------------------------------
 C      0   0   0     0.000000000000     0.00000000     0.00000000
 C      1   0   0     1.520279131707     0.00000000     0.00000000
 O      2   1   0     1.441509829268   110.86009314     0.00000000
 C      3   2   1     1.316173739374   118.73937546   271.96203189
 O      4   3   2     1.214142013261   124.77303387   358.77175962
 C      4   3   2     1.514534622360   111.49840721   179.79407822
 C      6   4   3     1.516307864361   108.79434362   187.38919619
 H      7   6   4     1.095340348385   112.07874924    65.69862422
 C      7   6   4     1.513806076797   113.84167956   302.74892271
 O      9   7   6     1.214100021842   121.94785635   155.94018254
 O      9   7   6     1.313236193654   112.86379568   331.23693281
 C     11   9   7     1.442172518229   118.05709848   183.58950983
 C     12  11   9     1.520075388851   111.18566944    79.78174745
 S      7   6   4     1.824561358336   111.59181215   185.96614528
 P     14   7   6     2.131874614032    97.28719750   192.23894465
 S     15  14   7     1.954703392771   116.43824383    36.41473391
 O     15  14   7     1.598643159679   100.92146681   160.39689808
 C     17  15  14     1.432819962399   121.01566290   287.70412283
 O     15  14   7     1.581146859950   107.80366660   264.84151747
 C     19  15  14     1.443576218882   121.38985654   301.04439553
 H      1   2   3     1.087965102143   110.11928126    64.23308701
 H      1   2   3     1.084958645295   109.33570556   183.80423909
 H      1   2   3     1.086347708873   110.16190120   303.93776088
 H      2   1   3     1.093639326809   110.75390049   239.33199292
 H      2   1   3     1.089973187971   111.39783134   115.82589347
 H      6   4   3     1.091577277336   108.40512386    67.01489932
 H      6   4   3     1.089738100392   109.68202189   308.96451861
 H     12  11   9     1.089841970768   103.98087941   200.13765266
 H     12  11   9     1.093676596352   108.35268333   317.63054217
 H     13  12  11     1.086629448237   110.18339887    55.00776921
 H     13  12  11     1.084815814043   109.19039747   175.18526436
 H     13  12  11     1.087682108703   109.76459749   294.48515358
 H     18  17  15     1.089375946016   109.70234014    75.30824165
 H     18  17  15     1.091003395024   110.04213183   314.02952688
 H     18  17  15     1.086852873040   105.59687170   194.73154211
 H     20  19  15     1.090643501585   110.10935480    52.08425416
 H     20  19  15     1.087916609335   109.60970892   290.94938893
 H     20  19  15     1.087078483794   105.22897067   171.72878061

---------------------------
INTERNAL COORDINATES (A.U.)
---------------------------
 C      0   0   0     0.000000000000     0.00000000     0.00000000
 C      1   0   0     2.872911206041     0.00000000     0.00000000
 O      2   1   0     2.724058796672   110.86009314     0.00000000
 C      3   2   1     2.487207912075   118.73937546   271.96203189
 O      4   3   2     2.294395892751   124.77303387   358.77175962
 C      4   3   2     2.862055656602   111.49840721   179.79407822
 C      6   4   3     2.865406598354   108.79434362   187.38919619
 H      7   6   4     2.069893281881   112.07874924    65.69862422
 C      7   6   4     2.860678905012   113.84167956   302.74892271
 O      9   7   6     2.294316540469   121.94785635   155.94018254
 O      9   7   6     2.481656755159   112.86379568   331.23693281
 C     11   9   7     2.725311097320   118.05709848   183.58950983
 C     12  11   9     2.872526187842   111.18566944    79.78174745
 S      7   6   4     3.447921281790   111.59181215   185.96614528
 P     14   7   6     4.028659172379    97.28719750   192.23894465
 S     15  14   7     3.693854085384   116.43824383    36.41473391
 O     15  14   7     3.020997757659   100.92146681   160.39689808
 C     17  15  14     2.707637328149   121.01566290   287.70412283
 O     15  14   7     2.987934542816   107.80366660   264.84151747
 C     19  15  14     2.727963707128   121.38985654   301.04439553
 H      1   2   3     2.055956086314   110.11928126    64.23308701
 H      1   2   3     2.050274706238   109.33570556   183.80423909
 H      1   2   3     2.052899655982   110.16190120   303.93776088
 H      2   1   3     2.066678816954   110.75390049   239.33199292
 H      2   1   3     2.059750818583   111.39783134   115.82589347
 H      6   4   3     2.062782108177   108.40512386    67.01489932
 H      6   4   3     2.059306567441   109.68202189   308.96451861
 H     12  11   9     2.059502854004   103.98087941   200.13765266
 H     12  11   9     2.066749246185   108.35268333   317.63054217
 H     13  12  11     2.053432066222   110.18339887    55.00776921
 H     13  12  11     2.050004794289   109.19039747   175.18526436
 H     13  12  11     2.055421306215   109.76459749   294.48515358
 H     18  17  15     2.058622194853   109.70234014    75.30824165
 H     18  17  15     2.061697627773   110.04213183   314.02952688
 H     18  17  15     2.053854277911   105.59687170   194.73154211
 H     20  19  15     2.061017527737   110.10935480    52.08425416
 H     20  19  15     2.055864448187   109.60970892   290.94938893
 H     20  19  15     2.054280620450   105.22897067   171.72878061

---------------------
BASIS SET INFORMATION
---------------------
There are 5 groups of distinct atoms

 Group   1 Type C   : 11s6p1d contracted to 5s3p1d pattern {62111/411/1}
 Group   2 Type O   : 11s6p2d contracted to 5s3p2d pattern {62111/411/11}
 Group   3 Type H   : 4s1p contracted to 2s1p pattern {31/1}
 Group   4 Type S   : 14s9p2d contracted to 5s4p2d pattern {73211/6111/11}
 Group   5 Type P   : 14s9p2d contracted to 5s4p2d pattern {73211/6111/11}

Atom   0C    basis set group =>   1
Atom   1C    basis set group =>   1
Atom   2O    basis set group =>   2
Atom   3C    basis set group =>   1
Atom   4O    basis set group =>   2
Atom   5C    basis set group =>   1
Atom   6C    basis set group =>   1
Atom   7H    basis set group =>   3
Atom   8C    basis set group =>   1
Atom   9O    basis set group =>   2
Atom  10O    basis set group =>   2
Atom  11C    basis set group =>   1
Atom  12C    basis set group =>   1
Atom  13S    basis set group =>   4
Atom  14P    basis set group =>   5
Atom  15S    basis set group =>   4
Atom  16O    basis set group =>   2
Atom  17C    basis set group =>   1
Atom  18O    basis set group =>   2
Atom  19C    basis set group =>   1
Atom  20H    basis set group =>   3
Atom  21H    basis set group =>   3
Atom  22H    basis set group =>   3
Atom  23H    basis set group =>   3
Atom  24H    basis set group =>   3
Atom  25H    basis set group =>   3
Atom  26H    basis set group =>   3
Atom  27H    basis set group =>   3
Atom  28H    basis set group =>   3
Atom  29H    basis set group =>   3
Atom  30H    basis set group =>   3
Atom  31H    basis set group =>   3
Atom  32H    basis set group =>   3
Atom  33H    basis set group =>   3
Atom  34H    basis set group =>   3
Atom  35H    basis set group =>   3
Atom  36H    basis set group =>   3
Atom  37H    basis set group =>   3
---------------------------------
AUXILIARY/J BASIS SET INFORMATION
---------------------------------
There are 5 groups of distinct atoms

 Group   1 Type C   : 12s5p4d2f1g contracted to 6s4p3d1f1g pattern {711111/2111/211/2/1}
 Group   2 Type O   : 12s5p4d2f1g contracted to 6s4p3d1f1g pattern {711111/2111/211/2/1}
 Group   3 Type H   : 5s2p1d contracted to 3s1p1d pattern {311/2/1}
 Group   4 Type S   : 14s5p5d2f1g contracted to 8s4p3d1f1g pattern {71111111/2111/311/2/1}
 Group   5 Type P   : 14s5p5d2f1g contracted to 8s4p3d1f1g pattern {71111111/2111/311/2/1}

Atom   0C    basis set group =>   1
Atom   1C    basis set group =>   1
Atom   2O    basis set group =>   2
Atom   3C    basis set group =>   1
Atom   4O    basis set group =>   2
Atom   5C    basis set group =>   1
Atom   6C    basis set group =>   1
Atom   7H    basis set group =>   3
Atom   8C    basis set group =>   1
Atom   9O    basis set group =>   2
Atom  10O    basis set group =>   2
Atom  11C    basis set group =>   1
Atom  12C    basis set group =>   1
Atom  13S    basis set group =>   4
Atom  14P    basis set group =>   5
Atom  15S    basis set group =>   4
Atom  16O    basis set group =>   2
Atom  17C    basis set group =>   1
Atom  18O    basis set group =>   2
Atom  19C    basis set group =>   1
Atom  20H    basis set group =>   3
Atom  21H    basis set group =>   3
Atom  22H    basis set group =>   3
Atom  23H    basis set group =>   3
Atom  24H    basis set group =>   3
Atom  25H    basis set group =>   3
Atom  26H    basis set group =>   3
Atom  27H    basis set group =>   3
Atom  28H    basis set group =>   3
Atom  29H    basis set group =>   3
Atom  30H    basis set group =>   3
Atom  31H    basis set group =>   3
Atom  32H    basis set group =>   3
Atom  33H    basis set group =>   3
Atom  34H    basis set group =>   3
Atom  35H    basis set group =>   3
Atom  36H    basis set group =>   3
Atom  37H    basis set group =>   3

Checking for AutoStart:
The File: sp_solv.gbw exists
Trying to determine its content:
     ... Fine, the file contains calculation information
     ... Fine, the calculation information was read
     ... Fine, the file contains a basis set
     ... Fine, the basis set was read
     ... Fine, the file contains a geometry
     ... Fine, the geometry was read
     ... Fine, the file contains a set of orbitals
     ... Fine, the orbitals can be read
     => possible old guess file was deleted
     => GBW file was renamed to GES file
     => GES file is set as startup file
     => Guess is set to MORead
     ... now leaving AutoStart

------------------------------------------------------------------------------
                             ORCA STARTUP CALCULATIONS
                           -- RI-GTO INTEGRALS CHOSEN --
------------------------------------------------------------------------------
------------------------------------------------------------------------------
                   ___                                                        
                  /   \      - P O W E R E D   B Y -                         
                 /     \                                                     
                 |  |  |   _    _      __       _____    __    __             
                 |  |  |  | |  | |    /  \     |  _  \  |  |  /  |          
                  \  \/   | |  | |   /    \    | | | |  |  | /  /          
                 / \  \   | |__| |  /  /\  \   | |_| |  |  |/  /          
                |  |  |   |  __  | /  /__\  \  |    /   |      \           
                |  |  |   | |  | | |   __   |  |    \   |  |\   \          
                \     /   | |  | | |  |  |  |  | |\  \  |  | \   \       
                 \___/    |_|  |_| |__|  |__|  |_| \__\ |__|  \__/        
                                                                              
                      - O R C A' S   B I G   F R I E N D -                    
                                      &                                       
                       - I N T E G R A L  F E E D E R -                       
                                                                              
 v1 FN, 2020, v2 2021, v3 2022-2024                                           
------------------------------------------------------------------------------


----------------------
SHARK INTEGRAL PACKAGE
----------------------

Number of atoms                             ...     38
Number of basis functions                   ...    510
Number of shells                            ...    240
Maximum angular momentum                    ...      2
Integral batch strategy                     ... SHARK/LIBINT Hybrid
RI-J (if used) integral strategy            ... SPLIT-RIJ (Revised 2003 algorithm where possible)
Printlevel                                  ...      1
Contraction scheme used                     ... SEGMENTED contraction
Prescreening option                         ... SCHWARTZ
   Thresh                                   ... 1.000e-10
   Tcut                                     ... 1.000e-11
   Tpresel                                  ... 1.000e-11 
Coulomb Range Separation                    ... NOT USED
Exchange Range Separation                   ... NOT USED
Multipole approximations                    ... NOT USED
Finite Nucleus Model                        ... NOT USED
CABS basis                                  ... NOT available
Auxiliary Coulomb fitting basis             ... AVAILABLE
   # of basis functions in Aux-J            ...   1146
   # of shells in Aux-J                     ...    386
   Maximum angular momentum in Aux-J        ...      4
Auxiliary J/K fitting basis                 ... NOT available
Auxiliary Correlation fitting basis         ... NOT available
Auxiliary 'external' fitting basis          ... NOT available

Checking pre-screening integrals            ... done (  0.0 sec) Dimension = 240
Check shell pair data                       ... done (  0.0 sec)
Shell pair information
Shell pair cut-off parameter TPreSel        ...   1.0e-11
Total number of shell pairs                 ...     28920
Shell pairs after pre-screening             ...     19353
Total number of primitive shell pairs       ...    108409
Primitive shell pairs kept                  ...     44792
          la=0 lb=0:   5527 shell pairs
          la=1 lb=0:   7022 shell pairs
          la=1 lb=1:   2268 shell pairs
          la=2 lb=0:   2590 shell pairs
          la=2 lb=1:   1629 shell pairs
          la=2 lb=2:    317 shell pairs

Calculating one electron integrals          ... done (  0.1 sec)
Calculating RI/J V-Matrix + Cholesky decomp.... done (  0.1 sec)
Calculating Nuclear repulsion               ... done (  0.0 sec) ENN=   2128.600100345820 Eh

Diagonalization of the overlap matrix:
Smallest eigenvalue                        ... 4.974e-05
Time for diagonalization                   ...    0.033 sec
Threshold for overlap eigenvalues          ... 1.000e-07
Number of eigenvalues below threshold      ... 0
Time for construction of square roots      ...    0.017 sec
Total time needed                          ...    0.052 sec

-------------------
DFT GRID GENERATION
-------------------

General Integration Accuracy     IntAcc      ... 4.388
Radial Grid Type                 RadialGrid  ... OptM3 with GC (2021)
Angular Grid (max. ang.)         AngularGrid ... 4 (Lebedev-302)
Angular grid pruning method      GridPruning ... 4 (adaptive)
Weight generation scheme         WeightScheme... mBecke (2022)
Basis function cutoff            BFCut       ... 1.0000e-10
Integration weight cutoff        WCut        ... 1.0000e-14
Partially contracted basis set               ... off
Rotationally invariant grid construction     ... off
Angular grids for H and He will be reduced by one unit
Diffuse basis detected: some atoms will have their outermost
                        angular grid increased by 1.

Total number of grid points                  ...   180267
Total number of batches                      ...     2837
Average number of points per batch           ...       63
Average number of grid points per atom       ...     4744
Initializing property integral containers    ... done (  0.2 sec)

SHARK setup successfully completed in   2.8 seconds

Maximum memory used throughout the entire STARTUP-calculation: 96.9 MB
-------------------------------------------------------------------------------
                                 ORCA GUESS
                   Start orbitals & Density for SCF / CASSCF
-------------------------------------------------------------------------------

------------
SCF SETTINGS
------------
Hamiltonian:
 Density Functional     Method          .... DFT(GTOs)
  Functional kind                       .... Exchange
  Functional name                       .... Re-regularized SCAN exchange by Furness et al
  Functional family                     .... MGGA
  Functional refs                              
    [ 0] J. W. Furness, A. D. Kaplan, J. Ning, J. P. Perdew, and J. Sun.,  J. Phys. Chem. Lett. 11, 8208-8215 (2020), doi: 10.1021/acs.jpclett.0c02405
    [ 1] J. W. Furness, A. D. Kaplan, J. Ning, J. P. Perdew, and J. Sun.,  J. Phys. Chem. Lett. 11, 9248-9248 (2020), doi: 10.1021/acs.jpclett.0c03077
  Functional external parameters        .... 6
    Parameter  0 _c1        =  6.670000e-01 : c1 parameter        
    Parameter  1 _c2        =  8.000000e-01 : c2 parameter        
    Parameter  2 _d         =  1.240000e+00 : d parameter         
    Parameter  3 _k1        =  6.500000e-02 : k1 parameter        
    Parameter  4 _eta       =  1.000000e-03 : eta parameter       
    Parameter  5 _dp2       =  3.610000e-01 : dp2 parameter       
  Functional kind                       .... Correlation
  Functional name                       .... Re-regularized SCAN correlation by Furness et al
  Functional family                     .... MGGA
  Functional refs                              
    [ 0] J. W. Furness, A. D. Kaplan, J. Ning, J. P. Perdew, and J. Sun.,  J. Phys. Chem. Lett. 11, 8208-8215 (2020), doi: 10.1021/acs.jpclett.0c02405
    [ 1] J. W. Furness, A. D. Kaplan, J. Ning, J. P. Perdew, and J. Sun.,  J. Phys. Chem. Lett. 11, 9248-9248 (2020), doi: 10.1021/acs.jpclett.0c03077
  Functional external parameters        .... 1
    Parameter  0 _eta       =  1.000000e-03 : Regularization parameter
 Gradients option       PostSCFGGA      .... off
 RI-approximation to the Coulomb term is turned on
   Number of AuxJ basis functions       .... 1146


General Settings:
 Integral files         IntName         .... sp_solv
 Hartree-Fock type      HFTyp           .... RHF
 Total Charge           Charge          ....    0
 Multiplicity           Mult            ....    1
 Number of Electrons    NEL             ....  174
 Basis Dimension        Dim             ....  510
 Nuclear Repulsion      ENuc            ....   2128.6001003458 Eh

Convergence Acceleration:
 AO-DIIS                CNVDIIS         .... on
   Start iteration      DIISMaxIt       ....    12
   Startup error        DIISStart       ....  0.200000
   # of expansion vecs  DIISMaxEq       ....     5
   Bias factor          DIISBfac        ....   1.050
   Max. coefficient     DIISMaxC        ....  10.000
 MO-DIIS                CNVKDIIS        .... off
 Trust-Rad. Augm. Hess. CNVTRAH         .... auto
   Auto Start mean grad. ratio tolernc. ....  1.125000
   Auto Start start iteration           ....     1
   Auto Start num. interpolation iter.  ....    10
   Max. Number of Micro iterations      ....    24
   Max. Number of Macro iterations      .... Maxiter - #DIIS iter
   Number of Davidson start vectors     ....     2
   Converg. threshold    (grad. norm)   ....   3.330e-04
   Grad. Scal. Fac. for Micro threshold ....   0.100
   Minimum threshold for Micro iter.    ....   1.000e-02
   NR start threshold (gradient norm)   ....   1.000e-04
   Initial trust radius                 ....   0.400
   Minimum AH scaling param. (alpha)    ....   1.000
   Maximum AH scaling param. (alpha)    .... 1000.000
   Quad. conv. algorithm                .... NR
   White noise on init. David. guess    .... on
   Maximum white noise                  ....   0.010
   Pseudo random numbers                .... off
   Inactive MOs                         .... canonical
   Orbital update algorithm             .... Taylor
   Preconditioner                       .... Diag
   Full preconditioner red. dimension   ....   250
   COSX micro iterations for RIJONX calc.... off
 SOSCF                  CNVSOSCF        .... on
   Start iteration      SOSCFMaxIt      ....   150
   Startup grad/error   SOSCFStart      ....  0.003300
   Hessian update       SOSCFHessUp     .... L-BFGS
 Level Shifting         CNVShift        .... on
   Level shift para.    LevelShift      ....    0.2500
   Turn off err/grad.   ShiftErr        ....    0.0010
 Zerner damping         CNVZerner       .... off
 Static damping         CNVDamp         .... on
   Fraction old density DampFac         ....    0.7000
   Max. Damping (<1)    DampMax         ....    0.9800
   Min. Damping (>=0)   DampMin         ....    0.0000
   Turn off err/grad.   DampErr         ....    0.1000

SCF Procedure:
 Maximum # iterations   MaxIter         ....   125
 SCF integral mode      SCFMode         .... Direct
   Integral package                     .... SHARK and LIBINT hybrid scheme
 Reset frequency        DirectResetFreq ....    20
 Integral Threshold     Thresh          ....  1.000e-10 Eh
 Primitive CutOff       TCut            ....  1.000e-11 Eh

Convergence Tolerance:
 Convergence Check Mode ConvCheckMode   .... Total+1el-Energy
 Convergence forced     ConvForced      .... 0
 Energy Change          TolE            ....  1.000e-06 Eh
 1-El. energy change                    ....  1.000e-03 Eh
 Orbital Gradient       TolG            ....  3.330e-04
 Orbital Rotation angle TolX            ....  3.330e-04
 DIIS Error             TolErr          ....  1.000e-06

---------------------
INITIAL GUESS: MOREAD
---------------------
Guess MOs are being read from file: sp_solv.ges
Input Geometry matches current geometry (good)
Atom 0: N(Shells)= 9 and 6 - projection required
Input basis set needs projection
NBasis(read)= 316
NBasis(calc)= 510
Basis set overlap was calculated
Using GuessMode=FMatrix for the initial guess
C*T matrix was formed
Effective Fockian was calculated
Effective Fockian was diagonalized
Initial density was built
                      ------------------
                      INITIAL GUESS DONE (   0.1 sec)
                      ------------------
             **** ENERGY FILE WAS UPDATED (sp_solv.en.tmp) ****
Finished Guess after   0.2 sec
Maximum memory used throughout the entire GUESS-calculation: 56.2 MB

-------------------------------------------------------------------------------------------
                                      ORCA LEAN-SCF
                              memory conserving SCF solver
-------------------------------------------------------------------------------------------

--------------------
CPCM SOLVATION MODEL
--------------------
CPCM parameters:
  Epsilon                                         ...      78.3550
  Refrac                                          ...       1.3328
  Rsolv                                           ...       1.3000
  Surface type                                    ... GAUSSIAN VDW
  Discretization scheme                           ... Constant charge density
    Threshold for H atoms                         ...       5.0000 (charges/Ang^2)
    Threshold for non-H atoms                     ...       5.0000 (charges/Ang^2)
  Epsilon function type                           ...         CPCM
Solvent:                                          ... WATER
SMD-CDS solvent descriptors:
  Soln                                            ...       1.3328
  Soln25                                          ...       1.3323
  Sola                                            ...       0.0000
  Solb                                            ...       0.0000
  Solg                                            ...       0.0000
  Solc                                            ...       0.0000
  Solh                                            ...       0.0000
Radii:
  Scheme                                          ... Element-dependent radii
  Radius for C  used is    3.4960 Bohr (=   1.8500 Ang.)
  Radius for O  used is    2.8724 Bohr (=   1.5200 Ang.)
  Radius for H  used is    2.2677 Bohr (=   1.2000 Ang.)
  Radius for S  used is    4.7054 Bohr (=   2.4900 Ang.)
  Radius for P  used is    4.0062 Bohr (=   2.1200 Ang.)
Calculating surface                               ...        done! (  0.0s)
Cavity surface points                             ...         2974
Cavity Volume                                     ...    2251.3411
Cavity Surface-area                               ...    1244.8520
Calculating surface distance matrix               ...        done! (  0.1s)
Performing Cholesky decomposition & store         ...        done! (  0.3s)
Overall time for CPCM initialization              ...                 0.4s

----------------------------------------D-I-I-S--------------------------------------------
Iteration    Energy (Eh)           Delta-E    RMSDP     MaxDP     DIISErr   Damp  Time(sec)
-------------------------------------------------------------------------------------------
               ***  Starting incremental Fock matrix formation  ***
    1    -1981.0016884733613551     0.00e+00  4.07e-03  5.26e-01  6.34e-01  0.700  11.4
    2    -1981.1513067512696580    -1.50e-01  3.10e-03  3.41e-01  4.46e-01  0.700   9.8
    3    -1981.2570482200944753    -1.06e-01  2.22e-03  2.26e-01  3.13e-01  0.700   9.7
    4    -1981.3312935646745245    -7.42e-02  1.57e-03  1.54e-01  2.19e-01  0.700   9.5
                               ***Turning on AO-DIIS***
    5    -1981.3833911760057163    -5.21e-02  1.12e-03  1.03e-01  1.53e-01  0.700   9.4
    6    -1981.4198995651950099    -3.65e-02  7.92e-04  7.13e-02  1.07e-01  0.700   9.2
    7    -1981.4455176841393040    -2.56e-02  5.57e-04  4.98e-02  7.50e-02  0.700   9.1
    8    -1981.4634694947817479    -1.80e-02  1.30e-03  1.15e-01  5.26e-02  0.000   8.9
                              *** Initializing SOSCF ***
---------------------------------------S-O-S-C-F--------------------------------------
Iteration    Energy (Eh)           Delta-E    RMSDP     MaxDP     MaxGrad    Time(sec)
--------------------------------------------------------------------------------------
    9    -1981.5054224411051109    -4.20e-02  1.19e-05  8.90e-04  3.39e-04     9.4
               *** Restarting incremental Fock matrix formation ***
   10    -1981.5054234778535829    -1.04e-06  1.05e-05  8.94e-04  7.01e-05    11.3
                  *** Gradient check signals convergence ***

               *****************************************************
               *                     SUCCESS                       *
               *           SCF CONVERGED AFTER  10 CYCLES          *
               *****************************************************


SMD CDS free energy correction energy :                 9.48090     Kcal/mol
Total Energy after SMD CDS correction =             -1981.490314696 Eh
             **** ENERGY FILE WAS UPDATED (sp_solv.en.tmp) ****

----------------
TOTAL SCF ENERGY
----------------

Total Energy       :      -1981.49031469571969 Eh          -53919.09266 eV

Components:
Nuclear Repulsion  :       2128.60010034582047 Eh           57922.15344 eV
Electronic Energy  :      -4110.06180375193071 Eh         -111840.46754 eV
One Electron Energy:      -6964.62381834186544 Eh         -189517.04896 eV
Two Electron Energy:       2854.56201458993473 Eh           77676.58142 eV
CPCM Dielectric    :         -0.04372007174290 Eh              -1.18968 eV
SMD CDS (Gcds)     :          0.01510878213382 Eh               0.41113 eV

Virial components:
Potential Energy   :      -3956.62879495233119 Eh         -107665.34311 eV
Kinetic Energy     :       1975.13848025661127 Eh           53746.25045 eV
Virial Ratio       :          2.00321589321589

DFT components:
N(Alpha)           :       86.999989576304 electrons
N(Beta)            :       86.999989576304 electrons
N(Total)           :      173.999979152608 electrons
E(X)               :     -181.424459031090 Eh       
E(C)               :       -5.970916591305 Eh       
E(XC)              :     -187.395375622395 Eh       

CPCM Solvation Model Properties:
Surface-charge          :         -0.04876744718636
Corrected charge        :         -0.00000000000000
Outlying charge corr.   :          0.00012733132513 Eh               0.00346 eV
Free-energy (cav+disp)  :          0.01510878213382 Eh               0.41113 eV

---------------
SCF CONVERGENCE
---------------

  Last Energy change         ...    1.0367e-06  Tolerance :   1.0000e-06
  Last MAX-Density change    ...    8.9449e-04  Tolerance :   1.0000e-05
  Last RMS-Density change    ...    1.0543e-05  Tolerance :   1.0000e-06
  Last DIIS Error            ...    3.3933e-04  Tolerance :   1.0000e-06
  Last Orbital Gradient      ...    7.0070e-05  Tolerance :   3.3300e-04
  Last Orbital Rotation      ...    3.4308e-04  Tolerance :   3.3300e-04


----------------
ORBITAL ENERGIES
----------------

  NO   OCC          E(Eh)            E(eV) 
   0   2.0000     -88.585283     -2410.5281 
   1   2.0000     -88.529730     -2409.0164 
   2   2.0000     -76.922240     -2093.1606 
   3   2.0000     -19.009502      -517.2748 
   4   2.0000     -19.007903      -517.2313 
   5   2.0000     -18.999450      -517.0013 
   6   2.0000     -18.996462      -516.9200 
   7   2.0000     -18.952387      -515.7207 
   8   2.0000     -18.944397      -515.5032 
   9   2.0000     -10.174423      -276.8601 
  10   2.0000     -10.171162      -276.7714 
  11   2.0000     -10.094147      -274.6757 
  12   2.0000     -10.086996      -274.4811 
  13   2.0000     -10.086853      -274.4772 
  14   2.0000     -10.085385      -274.4373 
  15   2.0000     -10.082419      -274.3566 
  16   2.0000     -10.058566      -273.7075 
  17   2.0000     -10.019629      -272.6480 
  18   2.0000     -10.018979      -272.6303 
  19   2.0000      -7.879296      -214.4065 
  20   2.0000      -7.824732      -212.9218 
  21   2.0000      -6.600561      -179.6104 
  22   2.0000      -5.825955      -158.5323 
  23   2.0000      -5.823268      -158.4592 
  24   2.0000      -5.816574      -158.2770 
  25   2.0000      -5.772506      -157.0779 
  26   2.0000      -5.765064      -156.8754 
  27   2.0000      -5.764508      -156.8602 
  28   2.0000      -4.746369      -129.1553 
  29   2.0000      -4.745583      -129.1339 
  30   2.0000      -4.744002      -129.0909 
  31   2.0000      -1.089985       -29.6600 
  32   2.0000      -1.085626       -29.5414 
  33   2.0000      -1.056185       -28.7402 
  34   2.0000      -1.012604       -27.5544 
  35   2.0000      -0.998550       -27.1719 
  36   2.0000      -0.994264       -27.0553 
  37   2.0000      -0.815579       -22.1930 
  38   2.0000      -0.753613       -20.5069 
  39   2.0000      -0.742344       -20.2002 
  40   2.0000      -0.728819       -19.8322 
  41   2.0000      -0.699518       -19.0349 
  42   2.0000      -0.672450       -18.2983 
  43   2.0000      -0.661339       -17.9959 
  44   2.0000      -0.650359       -17.6972 
  45   2.0000      -0.626743       -17.0545 
  46   2.0000      -0.597847       -16.2682 
  47   2.0000      -0.542119       -14.7518 
  48   2.0000      -0.528091       -14.3701 
  49   2.0000      -0.521177       -14.1820 
  50   2.0000      -0.498352       -13.5608 
  51   2.0000      -0.494848       -13.4655 
  52   2.0000      -0.487607       -13.2685 
  53   2.0000      -0.467539       -12.7224 
  54   2.0000      -0.462105       -12.5745 
  55   2.0000      -0.460518       -12.5313 
  56   2.0000      -0.452567       -12.3150 
  57   2.0000      -0.446210       -12.1420 
  58   2.0000      -0.439367       -11.9558 
  59   2.0000      -0.428068       -11.6483 
  60   2.0000      -0.418238       -11.3808 
  61   2.0000      -0.415975       -11.3193 
  62   2.0000      -0.410799       -11.1784 
  63   2.0000      -0.406080       -11.0500 
  64   2.0000      -0.389501       -10.5989 
  65   2.0000      -0.378943       -10.3116 
  66   2.0000      -0.376007       -10.2317 
  67   2.0000      -0.365672        -9.9504 
  68   2.0000      -0.360746        -9.8164 
  69   2.0000      -0.356703        -9.7064 
  70   2.0000      -0.347128        -9.4458 
  71   2.0000      -0.341494        -9.2925 
  72   2.0000      -0.339764        -9.2455 
  73   2.0000      -0.331198        -9.0123 
  74   2.0000      -0.322340        -8.7713 
  75   2.0000      -0.315538        -8.5862 
  76   2.0000      -0.309145        -8.4123 
  77   2.0000      -0.308098        -8.3838 
  78   2.0000      -0.292831        -7.9683 
  79   2.0000      -0.285931        -7.7806 
  80   2.0000      -0.281650        -7.6641 
  81   2.0000      -0.278084        -7.5670 
  82   2.0000      -0.263876        -7.1804 
  83   2.0000      -0.261558        -7.1174 
  84   2.0000      -0.249052        -6.7770 
  85   2.0000      -0.228789        -6.2257 
  86   2.0000      -0.219889        -5.9835 
  87   0.0000      -0.059530        -1.6199 
  88   0.0000      -0.029546        -0.8040 
  89   0.0000      -0.023980        -0.6525 
  90   0.0000       0.004725         0.1286 
  91   0.0000       0.013011         0.3540 
  92   0.0000       0.031367         0.8536 
  93   0.0000       0.054791         1.4909 
  94   0.0000       0.071324         1.9408 
  95   0.0000       0.077956         2.1213 
  96   0.0000       0.092343         2.5128 
  97   0.0000       0.094669         2.5761 
*Only the first 10 virtual orbitals were printed.

                    ********************************
                    * MULLIKEN POPULATION ANALYSIS *
                    ********************************

-----------------------
MULLIKEN ATOMIC CHARGES
-----------------------
   0 C :   -0.493673
   1 C :   -0.141898
   2 O :   -0.179524
   3 C :    0.418952
   4 O :   -0.486276
   5 C :   -0.373627
   6 C :   -0.102285
   7 H :    0.266613
   8 C :    0.316831
   9 O :   -0.455261
  10 O :   -0.155471
  11 C :   -0.118124
  12 C :   -0.517658
  13 S :   -0.215994
  14 P :    0.761550
  15 S :   -0.491720
  16 O :   -0.356585
  17 C :   -0.307506
  18 O :   -0.334924
  19 C :   -0.292144
  20 H :    0.169554
  21 H :    0.172149
  22 H :    0.167020
  23 H :    0.175350
  24 H :    0.177122
  25 H :    0.225185
  26 H :    0.211004
  27 H :    0.177828
  28 H :    0.174703
  29 H :    0.171940
  30 H :    0.173339
  31 H :    0.175693
  32 H :    0.175978
  33 H :    0.178845
  34 H :    0.180491
  35 H :    0.183793
  36 H :    0.182751
  37 H :    0.185981
Sum of atomic charges:   -0.0000000

--------------------------------
MULLIKEN REDUCED ORBITAL CHARGES
--------------------------------
  0 C s       :     3.336120  s :     3.336120
      pz      :     1.007462  p :     3.132045
      px      :     1.111199
      py      :     1.013384
      dz2     :     0.003046  d :     0.025508
      dxz     :     0.006837
      dyz     :     0.006965
      dx2y2   :     0.006968
      dxy     :     0.001692

  1 C s       :     3.266695  s :     3.266695
      pz      :     0.949676  p :     2.822623
      px      :     0.808240
      py      :     1.064707
      dz2     :     0.007259  d :     0.052580
      dxz     :     0.016776
      dyz     :     0.009554
      dx2y2   :     0.012726
      dxy     :     0.006265

  2 O s       :     3.701373  s :     3.701373
      pz      :     1.645473  p :     4.442976
      px      :     1.175782
      py      :     1.621721
      dz2     :     0.005207  d :     0.035175
      dxz     :     0.009894
      dyz     :     0.010525
      dx2y2   :     0.007273
      dxy     :     0.002277

  3 C s       :     3.124002  s :     3.124002
      pz      :     0.782007  p :     2.330826
      px      :     0.830112
      py      :     0.718707
      dz2     :     0.026755  d :     0.126220
      dxz     :     0.033823
      dyz     :     0.018162
      dx2y2   :     0.022178
      dxy     :     0.025303

  4 O s       :     3.844529  s :     3.844529
      pz      :     1.405002  p :     4.616224
      px      :     1.770001
      py      :     1.441221
      dz2     :     0.006975  d :     0.025523
      dxz     :     0.002589
      dyz     :     0.007397
      dx2y2   :     0.005554
      dxy     :     0.003009

  5 C s       :     3.210463  s :     3.210463
      pz      :     1.034223  p :     3.128907
      px      :     0.958738
      py      :     1.135947
      dz2     :     0.005654  d :     0.034257
      dxz     :     0.010449
      dyz     :     0.003975
      dx2y2   :     0.008170
      dxy     :     0.006008

  6 C s       :     3.112145  s :     3.112145
      pz      :     1.083251  p :     2.945584
      px      :     0.933553
      py      :     0.928780
      dz2     :     0.007535  d :     0.044556
      dxz     :     0.009858
      dyz     :     0.007143
      dx2y2   :     0.011101
      dxy     :     0.008920

  7 H s       :     0.714621  s :     0.714621
      pz      :     0.010091  p :     0.018766
      px      :     0.004542
      py      :     0.004133

  8 C s       :     3.195056  s :     3.195056
      pz      :     0.784275  p :     2.359696
      px      :     0.733683
      py      :     0.841738
      dz2     :     0.028932  d :     0.128416
      dxz     :     0.024174
      dyz     :     0.024408
      dx2y2   :     0.030613
      dxy     :     0.020291

  9 O s       :     3.842420  s :     3.842420
      pz      :     1.426606  p :     4.582681
      px      :     1.499996
      py      :     1.656079
      dz2     :     0.006795  d :     0.030160
      dxz     :     0.008059
      dyz     :     0.005413
      dx2y2   :     0.004441
      dxy     :     0.005452

 10 O s       :     3.691858  s :     3.691858
      pz      :     1.616897  p :     4.424852
      px      :     1.486271
      py      :     1.321685
      dz2     :     0.004721  d :     0.038761
      dxz     :     0.007535
      dyz     :     0.008430
      dx2y2   :     0.012302
      dxy     :     0.005773

 11 C s       :     3.248364  s :     3.248364
      pz      :     1.095728  p :     2.817106
      px      :     1.033253
      py      :     0.688125
      dz2     :     0.011018  d :     0.052654
      dxz     :     0.005766
      dyz     :     0.008896
      dx2y2   :     0.016289
      dxy     :     0.010684

 12 C s       :     3.355180  s :     3.355180
      pz      :     1.058254  p :     3.137028
      px      :     1.020787
      py      :     1.057987
      dz2     :     0.006746  d :     0.025450
      dxz     :     0.005204
      dyz     :     0.002974
      dx2y2   :     0.005898
      dxy     :     0.004627

 13 S s       :     5.949114  s :     5.949114
      pz      :     3.356301  p :    10.168382
      px      :     3.045978
      py      :     3.766104
      dz2     :     0.016587  d :     0.098497
      dxz     :     0.036511
      dyz     :     0.015533
      dx2y2   :     0.014201
      dxy     :     0.015666

 14 P s       :     5.117914  s :     5.117914
      pz      :     2.801232  p :     8.403913
      px      :     2.825058
      py      :     2.777624
      dz2     :     0.143914  d :     0.716622
      dxz     :     0.178200
      dyz     :     0.144726
      dx2y2   :     0.128661
      dxy     :     0.121122

 15 S s       :     5.894308  s :     5.894308
      pz      :     3.187008  p :    10.532285
      px      :     3.710179
      py      :     3.635098
      dz2     :     0.028702  d :     0.065127
      dxz     :     0.011849
      dyz     :     0.018157
      dx2y2   :     0.002655
      dxy     :     0.003764

 16 O s       :     3.756400  s :     3.756400
      pz      :     1.728884  p :     4.566652
      px      :     1.467575
      py      :     1.370193
      dz2     :     0.000789  d :     0.033532
      dxz     :     0.007212
      dyz     :     0.002131
      dx2y2   :     0.020143
      dxy     :     0.003257

 17 C s       :     3.347434  s :     3.347434
      pz      :     1.116846  p :     2.916484
      px      :     1.088030
      py      :     0.711608
      dz2     :     0.006519  d :     0.043589
      dxz     :     0.003710
      dyz     :     0.011805
      dx2y2   :     0.012709
      dxy     :     0.008845

 18 O s       :     3.743691  s :     3.743691
      pz      :     1.473663  p :     4.565307
      px      :     1.787828
      py      :     1.303815
      dz2     :     0.007888  d :     0.025926
      dxz     :     0.006751
      dyz     :    -0.003359
      dx2y2   :     0.013783
      dxy     :     0.000862

 19 C s       :     3.344914  s :     3.344914
      pz      :     0.773649  p :     2.904829
      px      :     1.102340
      py      :     1.028841
      dz2     :     0.011705  d :     0.042402
      dxz     :     0.010440
      dyz     :     0.008876
      dx2y2   :     0.008498
      dxy     :     0.002883

 20 H s       :     0.812203  s :     0.812203
      pz      :     0.006688  p :     0.018243
      px      :     0.007569
      py      :     0.003986

 21 H s       :     0.809334  s :     0.809334
      pz      :     0.005618  p :     0.018517
      px      :     0.009281
      py      :     0.003619

 22 H s       :     0.814690  s :     0.814690
      pz      :     0.004531  p :     0.018290
      px      :     0.003948
      py      :     0.009810

 23 H s       :     0.806768  s :     0.806768
      pz      :     0.004452  p :     0.017882
      px      :     0.002790
      py      :     0.010639

 24 H s       :     0.805323  s :     0.805323
      pz      :     0.006298  p :     0.017555
      px      :     0.007361
      py      :     0.003896

 25 H s       :     0.756453  s :     0.756453
      pz      :     0.009910  p :     0.018362
      px      :     0.003820
      py      :     0.004631

 26 H s       :     0.770807  s :     0.770807
      pz      :     0.003589  p :     0.018189
      px      :     0.003561
      py      :     0.011038

 27 H s       :     0.804623  s :     0.804623
      pz      :     0.004905  p :     0.017549
      px      :     0.010453
      py      :     0.002192

 28 H s       :     0.807537  s :     0.807537
      pz      :     0.011629  p :     0.017760
      px      :     0.003360
      py      :     0.002771

 29 H s       :     0.809807  s :     0.809807
      pz      :     0.010494  p :     0.018253
      px      :     0.003639
      py      :     0.004120

 30 H s       :     0.808135  s :     0.808135
      pz      :     0.003654  p :     0.018526
      px      :     0.004164
      py      :     0.010708

 31 H s       :     0.805897  s :     0.805897
      pz      :     0.005129  p :     0.018411
      px      :     0.009663
      py      :     0.003618

 32 H s       :     0.806079  s :     0.806079
      pz      :     0.007394  p :     0.017943
      px      :     0.005784
      py      :     0.004764

 33 H s       :     0.802881  s :     0.802881
      pz      :     0.010578  p :     0.018274
      px      :     0.003520
      py      :     0.004176

 34 H s       :     0.801613  s :     0.801613
      pz      :     0.004339  p :     0.017896
      px      :     0.011408
      py      :     0.002150

 35 H s       :     0.798035  s :     0.798035
      pz      :     0.007570  p :     0.018172
      px      :     0.006344
      py      :     0.004258

 36 H s       :     0.799340  s :     0.799340
      pz      :     0.002996  p :     0.017909
      px      :     0.011498
      py      :     0.003415

 37 H s       :     0.796149  s :     0.796149
      pz      :     0.002432  p :     0.017870
      px      :     0.003764
      py      :     0.011674


------------------------
MULLIKEN OVERLAP CHARGES
------------------------
B(  0-C ,  1-C ) :   0.5444 B(  0-C ,  2-O ) :  -0.1075 B(  0-C , 20-H ) :   0.8373 
B(  0-C , 21-H ) :   0.8050 B(  0-C , 22-H ) :   0.8319 B(  0-C , 23-H ) :  -0.0755 
B(  1-C ,  2-O ) :   0.2951 B(  1-C ,  3-C ) :  -0.2048 B(  1-C , 20-H ) :  -0.0811 
B(  1-C , 21-H ) :  -0.0679 B(  1-C , 22-H ) :  -0.0689 B(  1-C , 23-H ) :   0.8518 
B(  1-C , 24-H ) :   0.8043 B(  2-O ,  3-C ) :   0.5604 B(  2-O ,  4-O ) :  -0.1902 
B(  2-O ,  5-C ) :  -0.1424 B(  2-O , 23-H ) :  -0.0628 B(  2-O , 24-H ) :  -0.0862 
B(  3-C ,  4-O ) :   0.8900 B(  3-C ,  5-C ) :   0.3729 B(  4-O ,  5-C ) :  -0.2454 
B(  4-O ,  8-C ) :   0.1604 B(  5-C ,  8-C ) :  -0.2645 B(  5-C , 10-O ) :   0.2512 
B(  5-C , 13-S ) :  -0.0612 B(  5-C , 25-H ) :   0.8188 B(  5-C , 26-H ) :   0.7599 
B(  6-C ,  7-H ) :   0.9320 B(  6-C ,  8-C ) :  -0.2901 B(  6-C ,  9-O ) :  -0.2336 
B(  6-C , 10-O ) :  -0.2228 B(  6-C , 13-S ) :   0.2128 B(  6-C , 14-P ) :  -0.0691 
B(  6-C , 26-H ) :  -0.0749 B(  7-H ,  8-C ) :  -0.1731 B(  7-H , 13-S ) :  -0.0702 
B(  8-C ,  9-O ) :   0.9413 B(  8-C , 10-O ) :   0.2780 B(  8-C , 11-C ) :  -0.2088 
B(  9-O , 10-O ) :  -0.1867 B(  9-O , 14-P ) :   0.0752 B( 10-O , 11-C ) :   0.3119 
B( 10-O , 12-C ) :  -0.1081 B( 10-O , 27-H ) :  -0.0893 B( 10-O , 28-H ) :  -0.0599 
B( 11-C , 12-C ) :   0.4920 B( 11-C , 27-H ) :   0.7968 B( 11-C , 28-H ) :   0.8606 
B( 11-C , 29-H ) :  -0.0684 B( 11-C , 30-H ) :  -0.0628 B( 11-C , 31-H ) :  -0.0914 
B( 12-C , 28-H ) :  -0.0813 B( 12-C , 29-H ) :   0.8268 B( 12-C , 30-H ) :   0.7975 
B( 12-C , 31-H ) :   0.8434 B( 13-S , 14-P ) :   0.5880 B( 13-S , 15-S ) :  -0.1096 
B( 13-S , 16-O ) :  -0.0922 B( 13-S , 18-O ) :  -0.1015 B( 14-P , 15-S ) :   1.3085 
B( 14-P , 16-O ) :   0.4952 B( 14-P , 17-C ) :  -0.1704 B( 14-P , 18-O ) :   0.6768 
B( 14-P , 19-C ) :  -0.1888 B( 15-S , 16-O ) :  -0.0926 B( 15-S , 18-O ) :  -0.0909 
B( 16-O , 17-C ) :   0.3484 B( 16-O , 18-O ) :  -0.2177 B( 16-O , 32-H ) :  -0.0713 
B( 16-O , 33-H ) :  -0.0772 B( 16-O , 34-H ) :  -0.0847 B( 17-C , 32-H ) :   0.7991 
B( 17-C , 33-H ) :   0.8285 B( 17-C , 34-H ) :   0.7989 B( 18-O , 19-C ) :   0.3181 
B( 18-O , 35-H ) :  -0.0768 B( 18-O , 36-H ) :  -0.0676 B( 18-O , 37-H ) :  -0.0774 
B( 19-C , 35-H ) :   0.8155 B( 19-C , 36-H ) :   0.7984 B( 19-C , 37-H ) :   0.7903 
B( 32-H , 33-H ) :  -0.0591 B( 35-H , 36-H ) :  -0.0543 


                     *******************************
                     * LOEWDIN POPULATION ANALYSIS *
                     *******************************

----------------------
LOEWDIN ATOMIC CHARGES
----------------------
   0 C :   -0.390884
   1 C :    0.037230
   2 O :   -0.576110
   3 C :    0.385566
   4 O :   -0.469764
   5 C :   -0.201310
   6 C :   -0.193494
   7 H :    0.212784
   8 C :    0.337726
   9 O :   -0.480611
  10 O :   -0.586720
  11 C :    0.041784
  12 C :   -0.391395
  13 S :    0.202247
  14 P :    0.393369
  15 S :   -0.129878
  16 O :   -0.694188
  17 C :   -0.053131
  18 O :   -0.670356
  19 C :   -0.044988
  20 H :    0.162809
  21 H :    0.168841
  22 H :    0.162656
  23 H :    0.191224
  24 H :    0.190817
  25 H :    0.211831
  26 H :    0.203819
  27 H :    0.191562
  28 H :    0.190527
  29 H :    0.164310
  30 H :    0.168931
  31 H :    0.167130
  32 H :    0.176613
  33 H :    0.178580
  34 H :    0.189289
  35 H :    0.179619
  36 H :    0.182400
  37 H :    0.191167

-------------------------------
LOEWDIN REDUCED ORBITAL CHARGES
-------------------------------
  0 C s       :     2.973868  s :     2.973868
      pz      :     1.091966  p :     3.357156
      px      :     1.155878
      py      :     1.109311
      dz2     :     0.005986  d :     0.059860
      dxz     :     0.017032
      dyz     :     0.016082
      dx2y2   :     0.017001
      dxy     :     0.003760

  1 C s       :     2.872154  s :     2.872154
      pz      :     1.003504  p :     2.972771
      px      :     0.881755
      py      :     1.087512
      dz2     :     0.013620  d :     0.117844
      dxz     :     0.039085
      dyz     :     0.023622
      dx2y2   :     0.029130
      dxy     :     0.012387

  2 O s       :     3.457089  s :     3.457089
      pz      :     1.645746  p :     4.649378
      px      :     1.376872
      py      :     1.626760
      dz2     :     0.074300  d :     0.469643
      dxz     :     0.109426
      dyz     :     0.063832
      dx2y2   :     0.115706
      dxy     :     0.106378

  3 C s       :     2.728278  s :     2.728278
      pz      :     0.909803  p :     2.611089
      px      :     0.893873
      py      :     0.807413
      dz2     :     0.053836  d :     0.275066
      dxz     :     0.072572
      dyz     :     0.046754
      dx2y2   :     0.045097
      dxy     :     0.056807

  4 O s       :     3.537287  s :     3.537287
      pz      :     1.501440  p :     4.694303
      px      :     1.704266
      py      :     1.488597
      dz2     :     0.053552  d :     0.238174
      dxz     :     0.049988
      dyz     :     0.066857
      dx2y2   :     0.034281
      dxy     :     0.033496

  5 C s       :     2.913101  s :     2.913101
      pz      :     1.091405  p :     3.215228
      px      :     1.006828
      py      :     1.116995
      dz2     :     0.012678  d :     0.072981
      dxz     :     0.021426
      dyz     :     0.008210
      dx2y2   :     0.017183
      dxy     :     0.013485

  6 C s       :     2.914573  s :     2.914573
      pz      :     1.106032  p :     3.186925
      px      :     1.046837
      py      :     1.034057
      dz2     :     0.015358  d :     0.091996
      dxz     :     0.022404
      dyz     :     0.014993
      dx2y2   :     0.021145
      dxy     :     0.018095

  7 H s       :     0.739161  s :     0.739161
      pz      :     0.026891  p :     0.048055
      px      :     0.010674
      py      :     0.010490

  8 C s       :     2.732590  s :     2.732590
      pz      :     0.850862  p :     2.650040
      px      :     0.830727
      py      :     0.968451
      dz2     :     0.056821  d :     0.279644
      dxz     :     0.061261
      dyz     :     0.053420
      dx2y2   :     0.065183
      dxy     :     0.042959

  9 O s       :     3.539551  s :     3.539551
      pz      :     1.493614  p :     4.688069
      px      :     1.518864
      py      :     1.675592
      dz2     :     0.043810  d :     0.252990
      dxz     :     0.057238
      dyz     :     0.055610
      dx2y2   :     0.050097
      dxy     :     0.046234

 10 O s       :     3.447457  s :     3.447457
      pz      :     1.629374  p :     4.638551
      px      :     1.568193
      py      :     1.440983
      dz2     :     0.072048  d :     0.500713
      dxz     :     0.072432
      dyz     :     0.111582
      dx2y2   :     0.114442
      dxy     :     0.130209

 11 C s       :     2.870621  s :     2.870621
      pz      :     1.098158  p :     2.969698
      px      :     1.065853
      py      :     0.805687
      dz2     :     0.024822  d :     0.117897
      dxz     :     0.012126
      dyz     :     0.020356
      dx2y2   :     0.036740
      dxy     :     0.023852

 12 C s       :     2.972843  s :     2.972843
      pz      :     1.136608  p :     3.358783
      px      :     1.114787
      py      :     1.107388
      dz2     :     0.016227  d :     0.059769
      dxz     :     0.012270
      dyz     :     0.006481
      dx2y2   :     0.014501
      dxy     :     0.010290

 13 S s       :     5.417049  s :     5.417049
      pz      :     3.371550  p :    10.090201
      px      :     3.058422
      py      :     3.660229
      dz2     :     0.045515  d :     0.290503
      dxz     :     0.112029
      dyz     :     0.037562
      dx2y2   :     0.048857
      dxy     :     0.046541

 14 P s       :     4.655780  s :     4.655780
      pz      :     2.892679  p :     8.384608
      px      :     2.745400
      py      :     2.746529
      dz2     :     0.323033  d :     1.566244
      dxz     :     0.373477
      dyz     :     0.299893
      dx2y2   :     0.316714
      dxy     :     0.253127

 15 S s       :     5.559326  s :     5.559326
      pz      :     3.235569  p :    10.434123
      px      :     3.623841
      py      :     3.574713
      dz2     :     0.066776  d :     0.136429
      dxz     :     0.021187
      dyz     :     0.035362
      dx2y2   :     0.005850
      dxy     :     0.007254

 16 O s       :     3.470897  s :     3.470897
      pz      :     1.713858  p :     4.749061
      px      :     1.573950
      py      :     1.461253
      dz2     :     0.062136  d :     0.474230
      dxz     :     0.066734
      dyz     :     0.094905
      dx2y2   :     0.135480
      dxy     :     0.114974

 17 C s       :     2.917004  s :     2.917004
      pz      :     1.122792  p :     3.032290
      px      :     1.090938
      py      :     0.818559
      dz2     :     0.015291  d :     0.103838
      dxz     :     0.008366
      dyz     :     0.028728
      dx2y2   :     0.031425
      dxy     :     0.020029

 18 O s       :     3.471432  s :     3.471432
      pz      :     1.520916  p :     4.734158
      px      :     1.716710
      py      :     1.496532
      dz2     :     0.108469  d :     0.464765
      dxz     :     0.072427
      dyz     :     0.122442
      dx2y2   :     0.095775
      dxy     :     0.065652

 19 C s       :     2.918674  s :     2.918674
      pz      :     0.862862  p :     3.025298
      px      :     1.110131
      py      :     1.052304
      dz2     :     0.028563  d :     0.101017
      dxz     :     0.024771
      dyz     :     0.020355
      dx2y2   :     0.021856
      dxy     :     0.005471

 20 H s       :     0.793102  s :     0.793102
      pz      :     0.016037  p :     0.044089
      px      :     0.018788
      py      :     0.009264

 21 H s       :     0.786537  s :     0.786537
      pz      :     0.013279  p :     0.044623
      px      :     0.023239
      py      :     0.008104

 22 H s       :     0.793414  s :     0.793414
      pz      :     0.010694  p :     0.043930
      px      :     0.008988
      py      :     0.024248

 23 H s       :     0.765704  s :     0.765704
      pz      :     0.010314  p :     0.043072
      px      :     0.006247
      py      :     0.026511

 24 H s       :     0.768478  s :     0.768478
      pz      :     0.016140  p :     0.040705
      px      :     0.015476
      py      :     0.009089

 25 H s       :     0.742231  s :     0.742231
      pz      :     0.025373  p :     0.045939
      px      :     0.009269
      py      :     0.011297

 26 H s       :     0.750440  s :     0.750440
      pz      :     0.008781  p :     0.045741
      px      :     0.008283
      py      :     0.028676

 27 H s       :     0.767861  s :     0.767861
      pz      :     0.011720  p :     0.040577
      px      :     0.024488
      py      :     0.004369

 28 H s       :     0.767047  s :     0.767047
      pz      :     0.028525  p :     0.042426
      px      :     0.007705
      py      :     0.006197

 29 H s       :     0.791714  s :     0.791714
      pz      :     0.026303  p :     0.043976
      px      :     0.008220
      py      :     0.009453

 30 H s       :     0.786372  s :     0.786372
      pz      :     0.008168  p :     0.044697
      px      :     0.009824
      py      :     0.026705

 31 H s       :     0.788128  s :     0.788128
      pz      :     0.012576  p :     0.044741
      px      :     0.024074
      py      :     0.008092

 32 H s       :     0.781461  s :     0.781461
      pz      :     0.017837  p :     0.041926
      px      :     0.013986
      py      :     0.010103

 33 H s       :     0.778566  s :     0.778566
      pz      :     0.026159  p :     0.042854
      px      :     0.007791
      py      :     0.008905

 34 H s       :     0.769656  s :     0.769656
      pz      :     0.009627  p :     0.041055
      px      :     0.026933
      py      :     0.004495

 35 H s       :     0.777707  s :     0.777707
      pz      :     0.017036  p :     0.042674
      px      :     0.015473
      py      :     0.010164

 36 H s       :     0.775335  s :     0.775335
      pz      :     0.006408  p :     0.042266
      px      :     0.028138
      py      :     0.007720

 37 H s       :     0.767563  s :     0.767563
      pz      :     0.005536  p :     0.041271
      px      :     0.008391
      py      :     0.027344


---------------------------------
LOEWDIN BOND ORDERS (THRESH 0.050000)
---------------------------------
B(  0-C ,  1-C ) :   1.0856 B(  0-C ,  2-O ) :   0.1567 B(  0-C , 20-H ) :   0.9203 
B(  0-C , 21-H ) :   0.9143 B(  0-C , 22-H ) :   0.9227 B(  1-C ,  2-O ) :   1.2922 
B(  1-C ,  3-C ) :   0.0846 B(  1-C ,  4-O ) :   0.0627 B(  1-C , 23-H ) :   0.8170 
B(  1-C , 24-H ) :   0.8281 B(  2-O ,  3-C ) :   1.4957 B(  2-O ,  4-O ) :   0.4501 
B(  2-O ,  5-C ) :   0.1822 B(  2-O , 23-H ) :   0.0909 B(  2-O , 24-H ) :   0.0968 
B(  3-C ,  4-O ) :   2.1017 B(  3-C ,  5-C ) :   0.8998 B(  3-C ,  6-C ) :   0.0698 
B(  4-O ,  5-C ) :   0.1793 B(  4-O ,  6-C ) :   0.0524 B(  4-O ,  8-C ) :   0.0557 
B(  4-O , 10-O ) :   0.0550 B(  5-C ,  6-C ) :   1.0364 B(  5-C ,  8-C ) :   0.0623 
B(  5-C , 10-O ) :   0.0554 B(  5-C , 13-S ) :   0.1184 B(  5-C , 25-H ) :   0.8369 
B(  5-C , 26-H ) :   0.8467 B(  6-C ,  7-H ) :   0.7949 B(  6-C ,  8-C ) :   0.8595 
B(  6-C ,  9-O ) :   0.1774 B(  6-C , 10-O ) :   0.1622 B(  6-C , 13-S ) :   1.2421 
B(  6-C , 14-P ) :   0.0856 B(  7-H , 13-S ) :   0.0573 B(  8-C ,  9-O ) :   2.0943 
B(  8-C , 10-O ) :   1.4723 B(  8-C , 11-C ) :   0.0845 B(  8-C , 13-S ) :   0.1506 
B(  9-O , 10-O ) :   0.4402 B(  9-O , 11-C ) :   0.0585 B(  9-O , 13-S ) :   0.0674 
B(  9-O , 18-O ) :   0.0673 B( 10-O , 11-C ) :   1.2909 B( 10-O , 12-C ) :   0.1540 
B( 10-O , 27-H ) :   0.0977 B( 10-O , 28-H ) :   0.0923 B( 11-C , 12-C ) :   1.0831 
B( 11-C , 27-H ) :   0.8271 B( 11-C , 28-H ) :   0.8181 B( 11-C , 30-H ) :   0.0504 
B( 12-C , 29-H ) :   0.9213 B( 12-C , 30-H ) :   0.9130 B( 12-C , 31-H ) :   0.9119 
B( 13-S , 14-P ) :   1.1917 B( 13-S , 15-S ) :   0.1492 B( 13-S , 16-O ) :   0.1547 
B( 13-S , 18-O ) :   0.1491 B( 14-P , 15-S ) :   2.0428 B( 14-P , 16-O ) :   1.5425 
B( 14-P , 17-C ) :   0.1001 B( 14-P , 18-O ) :   1.5743 B( 14-P , 19-C ) :   0.0999 
B( 15-S , 16-O ) :   0.1839 B( 15-S , 18-O ) :   0.1577 B( 16-O , 17-C ) :   1.3505 
B( 16-O , 18-O ) :   0.2293 B( 16-O , 32-H ) :   0.1034 B( 16-O , 33-H ) :   0.1025 
B( 16-O , 34-H ) :   0.1024 B( 17-C , 32-H ) :   0.8624 B( 17-C , 33-H ) :   0.8571 
B( 17-C , 34-H ) :   0.8569 B( 18-O , 19-C ) :   1.3250 B( 18-O , 35-H ) :   0.1009 
B( 18-O , 36-H ) :   0.0985 B( 18-O , 37-H ) :   0.1019 B( 19-C , 35-H ) :   0.8569 
B( 19-C , 36-H ) :   0.8597 B( 19-C , 37-H ) :   0.8557 

------------------------------------------
LOEWDIN REDUCED ORBITAL POPULATIONS PER MO
-------------------------------------------
THRESHOLD FOR PRINTING IS 0.1%%
                      0         1         2         3         4         5   
                 -88.58528 -88.52973 -76.92224 -19.00950 -19.00790 -18.99945
                   2.00000   2.00000   2.00000   2.00000   2.00000   2.00000
                  --------  --------  --------  --------  --------  --------
 2 O  s               0.0       0.0       0.0      99.9       0.0       0.0
10 O  s               0.0       0.0       0.0       0.0      99.9       0.0
13 S  s             100.0       0.0       0.0       0.0       0.0       0.0
14 P  s               0.0       0.0     100.0       0.0       0.0       0.0
15 S  s               0.0     100.0       0.0       0.0       0.0       0.0
18 O  s               0.0       0.0       0.0       0.0       0.0      99.9

                      6         7         8         9        10        11   
                 -18.99646 -18.95239 -18.94440 -10.17442 -10.17116 -10.09415
                   2.00000   2.00000   2.00000   2.00000   2.00000   2.00000
                  --------  --------  --------  --------  --------  --------
 2 O  dxy             0.0       0.0       0.0       0.2       0.0       0.0
 3 C  s               0.0       0.0       0.0      98.9       0.0       0.0
 4 O  s               0.0      99.9       0.0       0.0       0.0       0.0
 4 O  pz              0.0       0.0       0.0       0.1       0.0       0.0
 4 O  dyz             0.0       0.0       0.0       0.2       0.0       0.0
 6 C  s               0.0       0.0       0.0       0.0       0.0      99.6
 8 C  s               0.0       0.0       0.0       0.0      98.8       0.0
 9 O  s               0.0       0.0      99.9       0.0       0.0       0.0
 9 O  dxz             0.0       0.0       0.0       0.0       0.1       0.0
 9 O  dyz             0.0       0.0       0.0       0.0       0.1       0.0
10 O  dxz             0.0       0.0       0.0       0.0       0.2       0.0
[...]
34 H  px              0.4       0.0       0.0       0.0       0.0       0.0
34 H  py              0.4       0.0       0.0       0.0       0.0       0.0
37 H  pz              0.1       0.0       0.0       0.0       0.0       0.0

                    492       493       494       495       496       497   
                  18.90071  19.22178  21.95578  21.98350  22.02206  22.03981
                   0.00000   0.00000   0.00000   0.00000   0.00000   0.00000
                  --------  --------  --------  --------  --------  --------
 0 C  s               0.0       0.0      98.1       1.0       0.0       0.1
 1 C  s               0.0       0.0       0.1       0.0       0.1       3.0
 3 C  s               0.0       0.0       0.2       0.0       0.0       0.1
 5 C  s               0.0       0.0       0.3       0.6       0.1       4.3
 6 C  s               0.0       0.6       0.0       1.7       0.1       0.0
 8 C  s               0.0       0.1       0.0       0.1       0.0       0.2
11 C  s               0.0       0.0       0.0       2.7       0.0       6.8
12 C  s               0.0       0.0       0.8      81.8       1.7       5.8
13 S  s               0.8      97.8       0.0       0.0       0.0       0.0
14 P  s               0.1       0.1       0.0       0.0       0.0       0.0
14 P  pz              0.2       0.0       0.0       0.0       0.0       0.0
15 S  s              98.2       0.8       0.0       0.0       0.0       0.0
15 S  pz              0.1       0.0       0.0       0.0       0.0       0.0
17 C  s               0.0       0.0       0.0       0.2      92.7       5.1
19 C  s               0.1       0.0       0.0      11.5       4.9      74.3

                    498       499       500       501       502       503   
                  22.05297  22.07884  22.13144  22.21952  22.31694  22.44753
                   0.00000   0.00000   0.00000   0.00000   0.00000   0.00000
                  --------  --------  --------  --------  --------  --------
 0 C  s               0.1       0.0       0.1       0.0       0.3       0.0
 1 C  s              84.8       3.0       7.8       0.8       0.0       0.0
 2 O  s               0.0       0.0       0.0       0.0       0.1       0.1
 3 C  s               0.0       0.0       0.1       9.5      45.7      43.2
 4 O  s               0.0       0.0       0.0       0.0       0.1       0.1
 5 C  s               4.9       1.0      55.5      30.4       1.4       1.1
 6 C  s               2.3       6.6      32.8      47.6       7.7       0.4
 8 C  s               0.2       0.0       0.7       1.4      42.8      53.7
 9 O  s               0.0       0.0       0.0       0.0       0.1       0.1
11 C  s               4.5      75.2       0.9       8.3       0.9       0.3
12 C  s               0.0       8.1       0.1       1.2       0.0       0.1
13 S  s               0.0       0.0       0.1       0.1       0.1       0.0
17 C  s               0.5       0.6       0.4       0.0       0.0       0.0
19 C  s               2.2       5.2       1.1       0.0       0.2       0.0

                    504       505       506       507       508       509   
                  43.75805  43.77435  43.78867  43.83720  43.87336  43.93840
                   0.00000   0.00000   0.00000   0.00000   0.00000   0.00000
                  --------  --------  --------  --------  --------  --------
 2 O  s               5.5      53.0      38.2       2.8       0.3       0.2
 4 O  s              13.9      28.7      54.7       2.1       0.4       0.0
 9 O  s               7.9       1.0       4.7      66.4       3.8      16.1
10 O  s               0.7       0.1       1.8      17.8      15.5      64.1
16 O  s              71.5      16.7       0.5      10.8       0.3       0.1
18 O  s               0.5       0.4       0.0       0.0      79.5      19.4



                      *****************************
                      * MAYER POPULATION ANALYSIS *
                      *****************************

  NA   - Mulliken gross atomic population
  ZA   - Total nuclear charge
  QA   - Mulliken gross atomic charge
  VA   - Mayer's total valence
  BVA  - Mayer's bonded valence
  FA   - Mayer's free valence

  ATOM       NA         ZA         QA         VA         BVA        FA
  0 C      6.4937     6.0000    -0.4937     3.8194     3.8194    -0.0000
  1 C      6.1419     6.0000    -0.1419     3.6347     3.6347     0.0000
  2 O      8.1795     8.0000    -0.1795     1.9704     1.9704    -0.0000
  3 C      5.5810     6.0000     0.4190     3.8957     3.8957    -0.0000
  4 O      8.4863     8.0000    -0.4863     1.9259     1.9259    -0.0000
  5 C      6.3736     6.0000    -0.3736     3.9704     3.9704    -0.0000
  6 C      6.1023     6.0000    -0.1023     3.6113     3.6113    -0.0000
  7 H      0.7334     1.0000     0.2666     0.9281     0.9281    -0.0000
  8 C      5.6832     6.0000     0.3168     3.8276     3.8276    -0.0000
  9 O      8.4553     8.0000    -0.4553     1.9261     1.9261    -0.0000
 10 O      8.1555     8.0000    -0.1555     1.9502     1.9502    -0.0000
 11 C      6.1181     6.0000    -0.1181     3.6182     3.6182    -0.0000
 12 C      6.5177     6.0000    -0.5177     3.7984     3.7984     0.0000
 13 S     16.2160    16.0000    -0.2160     2.1223     2.1223     0.0000
 14 P     14.2385    15.0000     0.7615     5.1186     5.1186     0.0000
 15 S     16.4917    16.0000    -0.4917     2.0317     2.0317    -0.0000
 16 O      8.3566     8.0000    -0.3566     1.8638     1.8638     0.0000
 17 C      6.3075     6.0000    -0.3075     3.7433     3.7433     0.0000
 18 O      8.3349     8.0000    -0.3349     1.8734     1.8734     0.0000
 19 C      6.2921     6.0000    -0.2921     3.6875     3.6875    -0.0000
 20 H      0.8304     1.0000     0.1696     0.9568     0.9568    -0.0000
 21 H      0.8279     1.0000     0.1721     0.9578     0.9578     0.0000
 22 H      0.8330     1.0000     0.1670     0.9579     0.9579    -0.0000
 23 H      0.8246     1.0000     0.1754     0.9540     0.9540     0.0000
 24 H      0.8229     1.0000     0.1771     0.9462     0.9462     0.0000
 25 H      0.7748     1.0000     0.2252     0.9422     0.9422    -0.0000
 26 H      0.7890     1.0000     0.2110     0.9461     0.9461    -0.0000
 27 H      0.8222     1.0000     0.1778     0.9464     0.9464    -0.0000
 28 H      0.8253     1.0000     0.1747     0.9553     0.9553    -0.0000
 29 H      0.8281     1.0000     0.1719     0.9557     0.9557    -0.0000
 30 H      0.8267     1.0000     0.1733     0.9575     0.9575     0.0000
 31 H      0.8243     1.0000     0.1757     0.9558     0.9558     0.0000
 32 H      0.8240     1.0000     0.1760     0.9480     0.9480     0.0000
 33 H      0.8212     1.0000     0.1788     0.9531     0.9531     0.0000
 34 H      0.8195     1.0000     0.1805     0.9492     0.9492    -0.0000
 35 H      0.8162     1.0000     0.1838     0.9525     0.9525     0.0000
 36 H      0.8172     1.0000     0.1828     0.9472     0.9472    -0.0000
 37 H      0.8140     1.0000     0.1860     0.9469     0.9469     0.0000

  Mayer bond orders larger than 0.100000
B(  0-C ,  1-C ) :   0.9405 B(  0-C , 20-H ) :   0.9683 B(  0-C , 21-H ) :   0.9590 
B(  0-C , 22-H ) :   0.9694 B(  1-C ,  2-O ) :   0.7807 B(  1-C , 23-H ) :   0.9623 
B(  1-C , 24-H ) :   0.9517 B(  2-O ,  3-C ) :   1.1558 B(  3-C ,  4-O ) :   1.7338 
B(  3-C ,  5-C ) :   1.0097 B(  5-C ,  6-C ) :   0.9782 B(  5-C , 10-O ) :   0.1159 
B(  5-C , 25-H ) :   0.9448 B(  5-C , 26-H ) :   0.9100 B(  6-C ,  7-H ) :   0.9478 
B(  6-C ,  8-C ) :   0.8582 B(  6-C , 13-S ) :   0.8108 B(  8-C ,  9-O ) :   1.7956 
B(  8-C , 10-O ) :   1.1207 B( 10-O , 11-C ) :   0.7899 B( 11-C , 12-C ) :   0.9187 
B( 11-C , 27-H ) :   0.9500 B( 11-C , 28-H ) :   0.9657 B( 12-C , 29-H ) :   0.9682 
B( 12-C , 30-H ) :   0.9580 B( 12-C , 31-H ) :   0.9667 B( 13-S , 14-P ) :   0.9774 
B( 14-P , 15-S ) :   1.8172 B( 14-P , 16-O ) :   1.0502 B( 14-P , 18-O ) :   1.1450 
B( 16-O , 17-C ) :   0.8209 B( 17-C , 32-H ) :   0.9496 B( 17-C , 33-H ) :   0.9547 
B( 17-C , 34-H ) :   0.9574 B( 18-O , 19-C ) :   0.7831 B( 19-C , 35-H ) :   0.9466 
B( 19-C , 36-H ) :   0.9503 B( 19-C , 37-H ) :   0.9532 

-------
TIMINGS
-------

Total SCF time: 0 days 0 hours 1 min 41 sec 

Total time                  ....     101.348 sec
Sum of individual times     ....     101.313 sec  (100.0%)

SCF preparation             ....       0.970 sec  (  1.0%)
Fock matrix formation       ....      96.757 sec  ( 95.5%)
  Startup                   ....       0.019 sec  (  0.0% of F)
  Split-RI-J                ....      23.392 sec  ( 24.2% of F)
  XC integration            ....      44.718 sec  ( 46.2% of F)
    Basis function eval.    ....       6.719 sec  ( 15.0% of XC)
    Density eval.           ....      18.509 sec  ( 41.4% of XC)
    XC-Functional eval.     ....       3.022 sec  (  6.8% of XC)
    XC-Potential eval.      ....      15.731 sec  ( 35.2% of XC)
  CPCM terms                ....      28.439 sec  ( 29.4% of F)
Diagonalization             ....       0.000 sec  (  0.0%)
Density matrix formation    ....       0.101 sec  (  0.1%)
Total Energy calculation    ....       0.017 sec  (  0.0%)
Population analysis         ....       2.451 sec  (  2.4%)
Orbital Transformation      ....       0.129 sec  (  0.1%)
Orbital Orthonormalization  ....       0.000 sec  (  0.0%)
DIIS solution               ....       0.784 sec  (  0.8%)
  MO trafo                  ....       0.000 sec  (  0.0 % of DIIS)
  Orb grad                  ....       0.000 sec  (  0.0 % of DIIS)
  Energy W gradient         ....       0.000 sec  (  0.0 % of DIIS)
  DIIS error                ....       0.125 sec  ( 16.0 % of DIIS)
  DIIS work                 ....       0.590 sec  ( 75.3 % of DIIS)
  Form Q                    ....       0.000 sec  (  0.0 % of DIIS)
  Form QpQm                 ....       0.000 sec  (  0.0 % of DIIS)
  Exp/Cayley                ....       0.000 sec  (  0.0 % of DIIS)
  Orb update                ....       0.000 sec  (  0.0 % of DIIS)
  Wake-sleep                ....       0.005 sec  (  0.6 % of DIIS)
SOSCF solution              ....       0.104 sec  (  0.1%)
  MO trafo                  ....       0.080 sec  ( 77.3 % of SOSCF)
  Orb grad                  ....       0.000 sec  (  0.3 % of SOSCF)
  Rot update                ....       0.000 sec  (  0.1 % of SOSCF)
  Step                      ....       0.023 sec  ( 22.1 % of SOSCF)
Finished LeanSCF after 104.4 sec

Maximum memory used throughout the entire LEANSCF-calculation: 112.9 MB


-------------------------------------------------------------------------------
                          DFT DISPERSION CORRECTION                            
                                                                               
                                DFTD4 V3.4.0                                   
-------------------------------------------------------------------------------
The R2SCAN3C composite method is recognized
Using three-body term ABC
Active option DFTDOPT                   ...         5   

-------------------------   ----------------
Dispersion correction           -0.017049123
-------------------------   ----------------

------------------   -----------------
gCP correction             0.037076241
------------------   -----------------

-------------------------   --------------------
FINAL SINGLE POINT ENERGY     -1981.470287577600
-------------------------   --------------------


------------------------------------------------------------------------------
                              ORCA PROPERTY CALCULATIONS
------------------------------------------------------------------------------

GBWName                                 ... sp_solv.gbw
Number of atoms                         ...     38
Number of basis functions               ...    510
Max core memory                         ...   1024 MB

Electric properties:
Dipole moment                           ... YES
Quadrupole moment                       ...  NO
Static polarizability (Dipole/Dipole)   ...  NO
Static polarizability (Dipole/Quad.)    ...  NO
Static polarizability (Quad./Quad.)     ...  NO
Static polarizability (Velocity)        ...  NO

Atomic electric properties:
Dipole moment                           ...  NO
Quadrupole moment                       ...  NO
Static polarizability                   ...  NO

Choice of electric origin               ... Center of mass
Position of electric origin             ...     0.000000    -0.000003     0.000005

General magnetic properties:
Magnetizability                         ...  NO

EPR properties:
g-Tensor (aka g-matrix)                 ...  NO
Zero-Field splitting spin-orbit         ...  NO
Zero-field splitting spin-spin          ...  NO
Hyperfine couplings                     ...  NO (   0 nuclei)
Quadrupole couplings                    ...  NO (   0 nuclei)
Contact density                         ...  NO (   0 nuclei)

NMR properties:
Chemical shifts                         ...  NO (   0 nuclei)
Spin-rotation constants                 ...  NO (   0 nuclei)
Spin-spin couplings                     ...  NO (   0 nuclei,    0 pairs)

Choice of magnetic origin               ... GIAO
Position of magnetic origin             ...     0.000000     0.000000     0.000000

Properties with geometric perturbations:
SCF Hessian                             ...  NO
IR spectrum                             ...  NO
VCD spectrum                            ...  NO
X-ray spectroscopy properties:
SCF XES/XAS/RIXS spectra                ...  NO


-------------
DIPOLE MOMENT
-------------

Method             : SCF
Type of density    : Electron Density
Multiplicity       :   1
Irrep              :   0
Energy             : -1981.4903146957196896 Eh
Relativity type    : 
Basis              : AO
                                X                 Y                 Z
Electronic contribution:    -14.128377826      -1.785226195      -3.160887537
Nuclear contribution   :     15.439953735       1.072868225       6.380078089
                        -----------------------------------------
Total Dipole Moment    :      1.311575909      -0.712357970       3.219190552
                        -----------------------------------------
Magnitude (a.u.)       :      3.548362024
Magnitude (Debye)      :      9.019219495



--------------------
Rotational spectrum 
--------------------
 
Rotational constants in cm-1:             0.014939             0.005890             0.004939 
Rotational constants in MHz :           447.849627           176.585589           148.067828 

Dipole components along the rotational axes: 
x,y,z [a.u.] :     1.076652     0.661980    -3.315641 
x,y,z [Debye]:     2.736632     1.682620    -8.427690 

 

Dipole moment calculation done in   0.8 sec 

Maximum memory used throughout the entire PROP-calculation: 49.7 MB

--------------------------------
SUGGESTED CITATIONS FOR THIS RUN
--------------------------------

Below you find a list of papers that are relevant to this ORCA run
We neither can nor want to force you to cite these papers, but we appreciate if you do
You receive ORCA, which is the product of decades of hard work by many enthusiastic individuals, for free
The only thing we kindly ask in return is that you cite our papers,
We deeply appreciate it, if you show your appreciation for ORCA by not just citing the generic ORCA reference.

Please note that relegating all ORCA citations to the supporting information does *not* help us.
SI sections are not indexed - citations you put there will not count into any citation statistics
But we need these citations in order to attract the funding resources that allow us to do what we are doing

Therefore, if you are a happy ORCA user, please consider citing a few of the papers listed below in the main body of your paper

In addition to the list printed below, the program has created the file sp_solv.bibtex that contains the list in bibtex format
You can import this file easily into all common literature databanks and citation aid programs


List of essential papers. We consider these as the minimum necessary citations

  1. Neese,F.
     Software update: the ORCA program system, version 5.0
     WIRES Comput. Molec. Sci., 2022 12(1)e1606
     doi.org/10.1002/wcms.1606
  2. Grimme,S.; Hansen,A.; Ehlert,S.; Mewes,J.
     r2SCAN-3c: A 'Swiss army knife' composite electronic-structure method
     J. Chem. Phys., 2021 154 064103
     doi.org/10.1063/5.0040021

List of papers to cite with high priority. The work reported in these papers was absolutely
necessary for this run to complete.
Our perspective: the developers of density functionals and basis sets usually get cited in chemistry papers
Good! But without the algorithms to do something with them, the functionals or basis sets would not do anything.
Hence, in our opinion, the algorithm design and method developments papers are equally worthy of getting cited

  1. Neese,F.
     An improvement of the resolution of the identity approximation for the formation of the Coulomb matrix
     J. Comp. Chem., 2003 24(14)1740-1747
     doi.org/10.1002/jcc.10318
  2. Garcia-Rates,M.; Neese,F.
     Effect of the Solute Cavity on the Solvation Energy and its Derivatives within the Framework of the Gaussian Charge Scheme
     J. Comput. Chem., 2020 41 922-939
     doi.org/10.1002/jcc.26139
  3. Neese,F.
     The SHARK Integral Generation and Digestion System
     J. Comp. Chem., 2022  1-16
     doi.org/10.1002/jcc.26942
  4. Lehtola,S.; Steigemann,C.; Oliveira,M.; Marques,M.
     Recent developments in Libxc - A comprehensive library of functionals for density functional theory
     Software X, 2018 7 
     doi.org/10.1016/j.softx.2017.11.002
  5. Caldeweyher,E.; Bannwarth,C.; Grimme,S.
     Extension of the D3 dispersion coefficient model
     J. Chem. Phys., 2017 147 034112
     doi.org/10.1063/1.4993215
  6. Caldeweyher,E.; Ehlert,S.; Hansen,A.; Neugebauer,H.; Spicher,S.; Bannwarth,C.; Grimme,S.
     A generally applicable atomic-charge dependent London dispersion correction
     J. Chem. Phys., 2019 150 154122
     doi.org/10.1063/1.5090222
  7. Caldeweyher,E.; Mewes,J.; Ehlert,S.; Grimme,S.
     Extension and evaluation of the D4 London-dispersion model for periodic systems
     Phys. Chem. Chem. Phys., 2020 22(16)8499-8512
     doi.org/10.1039/D0CP00502A
  8. Wittmann,L.; Gordiy,I.; Friede,M.; Helmich-Paris,B.; Grimme,S.; Hansen,A.; Bursch,M.
     Extension of the D3 and D4 London Dispersion Corrections to the full Actinides Series
     Phys. Chem. Chem. Phys., 2024 26(32)21379-21394
     doi.org/https://doi.org/10.1039/D4CP01514B 

List of suggested additional citations. These are papers that are important in the 'surrounding' of 
of this run, or papers that preceded the highly important papers. If you like your results we are grateful for a citation.

  1. Neese,F.
     The ORCA program system
     WIRES Comput. Molec. Sci., 2012 2(1)73-78
     doi.org/10.1002/wcms.81
  2. Neese,F.
     Software update: the ORCA program system, version 4.0
     WIRES Comput. Molec. Sci., 2018 8(1)1-6
     doi.org/10.1002/wcms.1327
  3. Neese,F.; Wennmohs,F.; Becker,U.; Riplinger,C.
     The ORCA quantum chemistry program package
     J. Chem. Phys., 2020 152 Art. No. L224108
     doi.org/10.1063/5.0004608

List of optional additional citations

  1. Neese,F.
     Approximate second-order SCF convergence for spin unrestricted wavefunctions
     Chem. Phys. Lett., 2000 325(1-3)93-98
     doi.org/10.1016/s0009-2614(00)00662-x

Timings for individual modules:

Sum of individual times          ...      108.375 sec (=   1.806 min)
Startup calculation              ...        2.792 sec (=   0.047 min)   2.6 %
SCF iterations                   ...      104.714 sec (=   1.745 min)  96.6 %
Property calculations            ...        0.869 sec (=   0.014 min)   0.8 %
                             ****ORCA TERMINATED NORMALLY****
TOTAL RUN TIME: 0 days 0 hours 1 minutes 51 seconds 588 msec
