      -----------------------------------------------------------      
     |                   =====================                   |     
     |                           x T B                           |     
     |                   =====================                   |     
     |                         S. Grimme                         |     
     |          Mulliken Center for Theoretical Chemistry        |     
     |                    University of Bonn                     |     
      -----------------------------------------------------------      

   * xtb version 6.7.1 (edcfbbe) compiled by 'albert@albert-system' on 2024-07-22

   xtb is free software: you can redistribute it and/or modify it under
   the terms of the GNU Lesser General Public License as published by
   the Free Software Foundation, either version 3 of the License, or
   (at your option) any later version.
   
   xtb is distributed in the hope that it will be useful,
   but WITHOUT ANY WARRANTY; without even the implied warranty of
   MERCHANTABILITY or FITNESS FOR A PARTICULAR PURPOSE.  See the
   GNU Lesser General Public License for more details.
   
   Cite this work as:
   * C. Bannwarth, E. Caldeweyher, S. Ehlert, A. Hansen, P. Pracht,
     J. Seibert, S. Spicher, S. Grimme, WIREs Comput. Mol. Sci., 2020, 11,
     e01493. DOI: 10.1002/wcms.1493
   
   for GFN2-xTB:
   * C. Bannwarth, S. Ehlert and S. Grimme., J. Chem. Theory Comput., 2019,
     15, 1652-1671. DOI: 10.1021/acs.jctc.8b01176
   for GFN1-xTB:
   * S. Grimme, C. Bannwarth, P. Shushkov, J. Chem. Theory Comput., 2017,
     13, 1989-2009. DOI: 10.1021/acs.jctc.7b00118
   for GFN0-xTB:
   * P. Pracht, E. Caldeweyher, S. Ehlert, S. Grimme, ChemRxiv, 2019, preprint.
     DOI: 10.26434/chemrxiv.8326202.v1
   for GFN-FF:
   * S. Spicher and S. Grimme, Angew. Chem. Int. Ed., 2020, 59, 15665-15673.
     DOI: 10.1002/anie.202004239
   
   for ALPB and GBSA implicit solvation:
   * S. Ehlert, M. Stahn, S. Spicher, S. Grimme, J. Chem. Theory Comput.,
     2021, 17, 4250-4261. DOI: 10.1021/acs.jctc.1c00471
   
   for ddCOSMO and CPCM-X implicit solvation:
   * M. Stahn, S. Ehlert, S. Grimme, J. Phys. Chem. A,
     2023, XX, XXXX-XXXX. DOI: 10.1021/acs.jpca.3c04382
   
   for DFT-D4:
   * E. Caldeweyher, C. Bannwarth and S. Grimme, J. Chem. Phys., 2017,
     147, 034112. DOI: 10.1063/1.4993215
   * E. Caldeweyher, S. Ehlert, A. Hansen, H. Neugebauer, S. Spicher,
     C. Bannwarth and S. Grimme, J. Chem. Phys., 2019, 150, 154122.
     DOI: 10.1063/1.5090222
   * E. Caldeweyher, J.-M. Mewes, S. Ehlert and S. Grimme, Phys. Chem. Chem. Phys.
     2020, 22, 8499-8512. DOI: 10.1039/D0CP00502A
   
   for sTDA-xTB:
   * S. Grimme and C. Bannwarth, J. Chem. Phys., 2016, 145, 054103.
     DOI: 10.1063/1.4959605
   
   in the mass-spec context:
   * V. Asgeirsson, C. Bauer and S. Grimme, Chem. Sci., 2017, 8, 4879.
     DOI: 10.1039/c7sc00601b
   * J. Koopman and S. Grimme, ACS Omega 2019, 4, 12, 15120-15133.
     DOI: 10.1021/acsomega.9b02011
   
   for metadynamics refer to:
   * S. Grimme, J. Chem. Theory Comput., 2019, 155, 2847-2862
     DOI: 10.1021/acs.jctc.9b00143
   
   for SPH calculations refer to:
   * S. Spicher and S. Grimme, J. Chem. Theory Comput., 2021, 17, 1701-1714
     DOI: 10.1021/acs.jctc.0c01306
   
   for ONIOM refer to:
   * C. Plett, A. Katbashev, S. Ehlert, S. Grimme, M. Bursch,
     Phys. Chem. Chem. Phys., 2023, 25, 17860-17868. DOI: 10.1039/D3CP02178E
   
   for DIPRO refer to:
   * J. Kohn, N. Gildemeister, S. Grimme, D. Fazzi, A. Hansen,
     J. Chem. Phys., 2023, just accepted.
   
   for PTB refer to:
   * S. Grimme, M. Mueller, A. Hansen, J. Chem. Phys., 2023, 158, 124111.
     DOI: 10.1063/5.0137838
   
   with help from (in alphabetical order)
   P. Atkinson, C. Bannwarth, F. Bohle, G. Brandenburg, E. Caldeweyher
   M. Checinski, S. Dohm, S. Ehlert, S. Ehrlich, I. Gerasimov, C. Hölzer
   A. Katbashev, J. Kohn, J. Koopman, C. Lavigne, S. Lehtola, F. März, M. Müller,
   F. Musil, H. Neugebauer, J. Pisarek, C. Plett, P. Pracht, F. Pultar,
   J. Seibert, P. Shushkov, S. Spicher, M. Stahn, M. Steiner, T. Strunk,
   J. Stückrath, T. Rose, and J. Unsleber
   
 * started run on 2025/04/09 at 05:21:03.882     
   ID    Z sym.   atoms
    1    6 C      1, 2, 7, 8, 10, 15, 16, 18, 19
    2    8 O      3, 6, 14, 17
    3   15 P      4, 12
    4   16 S      5, 9, 11, 13
    5    1 H      20-41

           -------------------------------------------------
          |                Calculation Setup                |
           -------------------------------------------------

          program call               : /srv/scratch/z5358697/.xtb/bin/xtb solv.coord --gfn2 --sp --chrg 0 --norestart --parallel 1 --alpb water reference -I xtb_sp-xcontrol-inp
          hostname                   : k163
          coordinate file            : solv.coord
          omp threads                :                     1


           -------------------------------------------------
          |                 G F N 2 - x T B                 |
           -------------------------------------------------

        Reference                      10.1021/acs.jctc.8b01176
      * Hamiltonian:
        H0-scaling (s, p, d)           1.850000    2.230000    2.230000
        zeta-weighting                 0.500000
      * Dispersion:
        s8                             2.700000
        a1                             0.520000
        a2                             5.000000
        s9                             5.000000
      * Repulsion:
        kExp                           1.500000    1.000000
        rExp                           1.000000
      * Coulomb:
        alpha                          2.000000
        third order                    shell-resolved
        anisotropic                    true
        a3                             3.000000
        a5                             4.000000
        cn-shift                       1.200000
        cn-exp                         4.000000
        max-rad                        5.000000

      * Solvation model:               ALPB
        Solvent                        water
        Parameter file                 internal GFN2-xTB/ALPB
        Dielectric constant                8.0200E+01
        Reference state                gsolv=reference [X=1]
        Free energy shift                  2.8945E-03 Eh       1.8164E+00 kcal/mol
        Temperature                        2.9815E+02 K
        Density                            1.0000E+00 kg/L
        Solvent mass                       1.8000E+01 g/mol
        Interaction kernel             P16
        Born radius scaling (c1)           1.4744E+00
        Born radii integrator          GBOBC
        Born offset                        0.0000E+00 a0       0.0000E+00 AA
        H-bond correction              true
        Ion screening                  false
        Surface tension                    1.0000E-05 Eh       1.5569E+01 dyn/cm
        Grid points                               974 per atom

          ...................................................
          :                      SETUP                      :
          :.................................................:
          :  # basis functions                 134          :
          :  # atomic orbitals                 128          :
          :  # shells                           66          :
          :  # electrons                       116          :
          :  max. iterations                   250          :
          :  Hamiltonian                  GFN2-xTB          :
          :  restarted?                      false          :
          :  GBSA solvation                   true          :
          :  PC potential                    false          :
          :  electronic temp.          300.0000000     K    :
          :  accuracy                    1.0000000          :
          :  -> integral cutoff          0.2500000E+02      :
          :  -> integral neglect         0.1000000E-07      :
          :  -> SCF convergence          0.1000000E-05 Eh   :
          :  -> wf. convergence          0.1000000E-03 e    :
          :  Broyden damping             0.4000000          :
          :  net charge                          0          :
          :  unpaired electrons                  0          :
          ...................................................

 iter      E             dE          RMSdq      gap      omega  full diag
   1    -65.4424181 -0.654424E+02  0.621E+00    4.27       0.0  T
   2    -65.5630530 -0.120635E+00  0.343E+00    3.68       1.0  T
   3    -65.5823796 -0.193265E-01  0.115E+00    3.30       1.0  T
   4    -65.5857134 -0.333378E-02  0.541E-01    3.25       1.0  T
   5    -65.5865407 -0.827292E-03  0.265E-01    3.31       1.0  T
   6    -65.5867357 -0.195076E-03  0.116E-01    3.31       1.0  T
   7    -65.5867804 -0.447114E-04  0.379E-02    3.32       1.0  T
   8    -65.5867843 -0.389621E-05  0.173E-02    3.32       1.0  T
   9    -65.5867852 -0.891884E-06  0.591E-03    3.32       2.6  T
  10    -65.5867853 -0.206375E-07  0.263E-03    3.32       5.9  T
  11    -65.5867853 -0.344225E-07  0.846E-04    3.32      18.5  T
  12    -65.5867853 -0.153598E-08  0.384E-04    3.32      40.7  T

   *** convergence criteria satisfied after 12 iterations ***

         #    Occupation            Energy/Eh            Energy/eV
      -------------------------------------------------------------
         1        2.0000           -0.7655238             -20.8310
       ...           ...                  ...                  ...
        52        2.0000           -0.4427127             -12.0468
        53        2.0000           -0.4160894             -11.3224
        54        2.0000           -0.4082186             -11.1082
        55        2.0000           -0.4012427             -10.9184
        56        2.0000           -0.4000151             -10.8850
        57        2.0000           -0.3906634             -10.6305
        58        2.0000           -0.3898770             -10.6091 (HOMO)
        59                         -0.2677038              -7.2846 (LUMO)
        60                         -0.2601764              -7.0798
        61                         -0.2233098              -6.0766
        62                         -0.1916886              -5.2161
        63                         -0.1878782              -5.1124
       ...                                ...                  ...
       128                          1.3199698              35.9182
      -------------------------------------------------------------
                  HL-Gap            0.1221732 Eh            3.3245 eV
             Fermi-level           -0.3287904 Eh           -8.9468 eV

 SCC (total)                   0 d,  0 h,  0 min,  0.059 sec
 SCC setup                      ...        0 min,  0.003 sec (  4.286%)
 Dispersion                     ...        0 min,  0.000 sec (  0.492%)
 classical contributions        ...        0 min,  0.000 sec (  0.095%)
 integral evaluation            ...        0 min,  0.009 sec ( 15.172%)
 iterations                     ...        0 min,  0.025 sec ( 42.309%)
 molecular gradient             ...        0 min,  0.022 sec ( 37.285%)
 printout                       ...        0 min,  0.000 sec (  0.338%)

         :::::::::::::::::::::::::::::::::::::::::::::::::::::
         ::                     SUMMARY                     ::
         :::::::::::::::::::::::::::::::::::::::::::::::::::::
         :: total energy             -65.025038422406 Eh    ::
         :: total w/o Gsasa/hb       -65.027991920984 Eh    ::
         :: gradient norm              0.000166706272 Eh/a0 ::
         :: HOMO-LUMO gap              3.324502793084 eV    ::
         ::.................................................::
         :: SCC energy               -65.585861292566 Eh    ::
         :: -> isotropic ES            0.131317456535 Eh    ::
         :: -> anisotropic ES         -0.023415195756 Eh    ::
         :: -> anisotropic XC          0.029466128865 Eh    ::
         :: -> dispersion             -0.054099696969 Eh    ::
         :: -> Gsolv                  -0.025815034759 Eh    ::
         ::    -> Gelec               -0.028768533337 Eh    ::
         ::    -> Gsasa                0.004308478966 Eh    ::
         ::    -> Ghb                 -0.004249529548 Eh    ::
         ::    -> Gshift               0.002894549160 Eh    ::
         :: repulsion energy           0.560822870160 Eh    ::
         :: add. restraining           0.000000000000 Eh    ::
         :: total charge               0.000000000000 e     ::
         :::::::::::::::::::::::::::::::::::::::::::::::::::::

           -------------------------------------------------
          |                Property Printout                |
           -------------------------------------------------

    * Orbital Energies and Occupations

         #    Occupation            Energy/Eh            Energy/eV
      -------------------------------------------------------------
         1        2.0000           -0.7655238             -20.8310
       ...           ...                  ...                  ...
        46        2.0000           -0.4669581             -12.7066
        47        2.0000           -0.4602534             -12.5241
        48        2.0000           -0.4571356             -12.4393
        49        2.0000           -0.4520283             -12.3003
        50        2.0000           -0.4491948             -12.2232
        51        2.0000           -0.4485581             -12.2059
        52        2.0000           -0.4427127             -12.0468
        53        2.0000           -0.4160894             -11.3224
        54        2.0000           -0.4082186             -11.1082
        55        2.0000           -0.4012427             -10.9184
        56        2.0000           -0.4000151             -10.8850
        57        2.0000           -0.3906634             -10.6305
        58        2.0000           -0.3898770             -10.6091 (HOMO)
        59                         -0.2677038              -7.2846 (LUMO)
        60                         -0.2601764              -7.0798
        61                         -0.2233098              -6.0766
        62                         -0.1916886              -5.2161
        63                         -0.1878782              -5.1124
        64                         -0.1777074              -4.8357
        65                         -0.1610010              -4.3811
        66                         -0.1595761              -4.3423
        67                         -0.1279668              -3.4822
        68                         -0.1220266              -3.3205
        69                         -0.0471099              -1.2819
       ...                                ...                  ...
       128                          1.3199698              35.9182
      -------------------------------------------------------------
                  HL-Gap            0.1221732 Eh            3.3245 eV
             Fermi-level           -0.3287904 Eh           -8.9468 eV

     #   Z          covCN         q      C6AA      α(0)
     1   6 C        3.751    -0.130    23.061     6.848
     2   6 C        3.840     0.076    19.283     6.247
     3   8 O        1.655    -0.272    18.534     5.812
     4  15 P        3.836     0.348   145.696    21.683
     5  16 S        0.926    -0.443   158.684    21.307
     6   8 O        1.654    -0.258    18.286     5.773
     7   6 C        3.859     0.087    19.110     6.217
     8   6 C        3.751    -0.125    22.966     6.834
     9  16 S        1.984    -0.149   147.351    20.431
    10   6 C        3.797     0.031    20.050     6.376
    11  16 S        1.985    -0.112   145.723    20.317
    12  15 P        3.789     0.378   144.518    21.595
    13  16 S        0.938    -0.489   160.874    21.453
    14   8 O        1.653    -0.263    18.376     5.787
    15   6 C        3.824     0.070    19.387     6.266
    16   6 C        3.751    -0.137    23.190     6.867
    17   8 O        1.655    -0.257    18.271     5.770
    18   6 C        3.842     0.084    19.162     6.227
    19   6 C        3.751    -0.131    23.070     6.850
    20   1 H        0.925     0.074     2.044     2.236
    21   1 H        0.925     0.055     2.256     2.349
    22   1 H        0.925     0.087     1.904     2.158
    23   1 H        0.924     0.062     2.172     2.305
    24   1 H        0.924     0.090     1.877     2.142
    25   1 H        0.924     0.064     2.151     2.294
    26   1 H        0.924     0.075     2.033     2.230
    27   1 H        0.925     0.070     2.082     2.256
    28   1 H        0.925     0.061     2.192     2.315
    29   1 H        0.925     0.088     1.898     2.154
    30   1 H        0.926     0.129     1.541     1.941
    31   1 H        0.924     0.085     1.932     2.174
    32   1 H        0.924     0.094     1.836     2.119
    33   1 H        0.924     0.075     2.029     2.228
    34   1 H        0.925     0.072     2.058     2.244
    35   1 H        0.925     0.092     1.857     2.131
    36   1 H        0.925     0.071     2.079     2.255
    37   1 H        0.924     0.080     1.980     2.200
    38   1 H        0.924     0.045     2.385     2.415
    39   1 H        0.925     0.079     1.985     2.203
    40   1 H        0.925     0.061     2.187     2.313
    41   1 H        0.925     0.080     1.984     2.203

 Mol. C6AA /au·bohr⁶  :      26385.399240
 Mol. C8AA /au·bohr⁸  :     862534.041701
 Mol. α(0) /au        :        257.522721


Wiberg/Mayer (AO) data.
largest (>0.10) Wiberg bond orders for each atom

 ---------------------------------------------------------------------------
     #   Z sym  total        # sym  WBO       # sym  WBO       # sym  WBO
 ---------------------------------------------------------------------------
     1   6 C    3.986 --     2 C    1.021    20 H    0.981    22 H    0.976
                            21 H    0.975
     2   6 C    3.888 --     1 C    1.021    23 H    0.970    24 H    0.965
                             3 O    0.887
     3   8 O    2.392 --     4 P    1.306     2 C    0.887
     4  15 P    5.329 --     5 S    1.544     6 O    1.350     3 O    1.306
                             9 S    0.968
     5  16 S    1.885 --     4 P    1.544     9 S    0.137
     6   8 O    2.401 --     4 P    1.350     7 C    0.865
     7   6 C    3.888 --     8 C    1.021    26 H    0.970    25 H    0.963
                             6 O    0.865
     8   6 C    3.983 --     7 C    1.021    27 H    0.983    28 H    0.983
                            29 H    0.974
     9  16 S    2.277 --    10 C    0.976     4 P    0.968     5 S    0.137
    10   6 C    3.947 --    11 S    0.991     9 S    0.976    30 H    0.955
                            31 H    0.939
    11  16 S    2.299 --    10 C    0.991    12 P    0.969    13 S    0.135
    12  15 P    5.295 --    13 S    1.516    14 O    1.370    17 O    1.308
                            11 S    0.969
    13  16 S    1.839 --    12 P    1.516    11 S    0.135
    14   8 O    2.402 --    12 P    1.370    15 C    0.857
    15   6 C    3.876 --    16 C    1.025    33 H    0.971    32 H    0.965
                            14 O    0.857
    16   6 C    3.984 --    15 C    1.025    34 H    0.980    36 H    0.972
                            35 H    0.972
    17   8 O    2.409 --    12 P    1.308    18 C    0.891
    18   6 C    3.894 --    19 C    1.019    37 H    0.967    38 H    0.966
                            17 O    0.891
    19   6 C    3.984 --    18 C    1.019    41 H    0.982    40 H    0.979
                            39 H    0.977
    20   1 H    0.995 --     1 C    0.981
    21   1 H    0.997 --     1 C    0.975
    22   1 H    0.992 --     1 C    0.976
    23   1 H    0.996 --     2 C    0.970
    24   1 H    0.992 --     2 C    0.965
    25   1 H    0.996 --     7 C    0.963
    26   1 H    0.994 --     7 C    0.970
    27   1 H    0.995 --     8 C    0.983
    28   1 H    0.996 --     8 C    0.983
    29   1 H    0.990 --     8 C    0.974
    30   1 H    0.983 --    10 C    0.955
    31   1 H    0.993 --    10 C    0.939
    32   1 H    0.990 --    15 C    0.965
    33   1 H    0.994 --    15 C    0.971
    34   1 H    0.995 --    16 C    0.980
    35   1 H    0.990 --    16 C    0.972
    36   1 H    0.995 --    16 C    0.972
    37   1 H    0.994 --    18 C    0.967
    38   1 H    0.998 --    18 C    0.966
    39   1 H    0.993 --    19 C    0.977
    40   1 H    0.996 --    19 C    0.979
    41   1 H    0.993 --    19 C    0.982
 ---------------------------------------------------------------------------

Topologies differ in total number of bonds
Writing topology from bond orders to xtbtopo.mol

molecular dipole:
                 x           y           z       tot (Debye)
 q only:       -1.055      -2.647      -1.074
   full:       -0.740      -1.828      -0.658       5.285
molecular quadrupole (traceless):
                xx          xy          yy          xz          yz          zz
 q only:       31.600      -3.912     -25.475       3.318       6.311      -6.125
  q+dip:       35.094      -6.855     -25.318       1.311       5.544      -9.776
   full:       35.390      -5.974     -26.217       0.718       5.828      -9.173


           -------------------------------------------------
          | TOTAL ENERGY              -65.025038422406 Eh   |
          | GRADIENT NORM               0.000166706272 Eh/α |
          | HOMO-LUMO GAP               3.324502793084 eV   |
           -------------------------------------------------

------------------------------------------------------------------------
 * finished run on 2025/04/09 at 05:21:03.997     
------------------------------------------------------------------------
 total:
 * wall-time:     0 d,  0 h,  0 min,  0.115 sec
 *  cpu-time:     0 d,  0 h,  0 min,  0.071 sec
 * ratio c/w:     0.618 speedup
 SCF:
 * wall-time:     0 d,  0 h,  0 min,  0.059 sec
 *  cpu-time:     0 d,  0 h,  0 min,  0.058 sec
 * ratio c/w:     0.980 speedup

