      -----------------------------------------------------------      
     |                   =====================                   |     
     |                           x T B                           |     
     |                   =====================                   |     
     |                         S. Grimme                         |     
     |          Mulliken Center for Theoretical Chemistry        |     
     |                    University of Bonn                     |     
      -----------------------------------------------------------      

   * xtb version 6.7.1 (edcfbbe) compiled by 'albert@albert-system' on 2024-07-22

   xtb is free software: you can redistribute it and/or modify it under
   the terms of the GNU Lesser General Public License as published by
   the Free Software Foundation, either version 3 of the License, or
   (at your option) any later version.
   
   xtb is distributed in the hope that it will be useful,
   but WITHOUT ANY WARRANTY; without even the implied warranty of
   MERCHANTABILITY or FITNESS FOR A PARTICULAR PURPOSE.  See the
   GNU Lesser General Public License for more details.
   
   Cite this work as:
   * C. Bannwarth, E. Caldeweyher, S. Ehlert, A. Hansen, P. Pracht,
     J. Seibert, S. Spicher, S. Grimme, WIREs Comput. Mol. Sci., 2020, 11,
     e01493. DOI: 10.1002/wcms.1493
   
   for GFN2-xTB:
   * C. Bannwarth, S. Ehlert and S. Grimme., J. Chem. Theory Comput., 2019,
     15, 1652-1671. DOI: 10.1021/acs.jctc.8b01176
   for GFN1-xTB:
   * S. Grimme, C. Bannwarth, P. Shushkov, J. Chem. Theory Comput., 2017,
     13, 1989-2009. DOI: 10.1021/acs.jctc.7b00118
   for GFN0-xTB:
   * P. Pracht, E. Caldeweyher, S. Ehlert, S. Grimme, ChemRxiv, 2019, preprint.
     DOI: 10.26434/chemrxiv.8326202.v1
   for GFN-FF:
   * S. Spicher and S. Grimme, Angew. Chem. Int. Ed., 2020, 59, 15665-15673.
     DOI: 10.1002/anie.202004239
   
   for ALPB and GBSA implicit solvation:
   * S. Ehlert, M. Stahn, S. Spicher, S. Grimme, J. Chem. Theory Comput.,
     2021, 17, 4250-4261. DOI: 10.1021/acs.jctc.1c00471
   
   for ddCOSMO and CPCM-X implicit solvation:
   * M. Stahn, S. Ehlert, S. Grimme, J. Phys. Chem. A,
     2023, XX, XXXX-XXXX. DOI: 10.1021/acs.jpca.3c04382
   
   for DFT-D4:
   * E. Caldeweyher, C. Bannwarth and S. Grimme, J. Chem. Phys., 2017,
     147, 034112. DOI: 10.1063/1.4993215
   * E. Caldeweyher, S. Ehlert, A. Hansen, H. Neugebauer, S. Spicher,
     C. Bannwarth and S. Grimme, J. Chem. Phys., 2019, 150, 154122.
     DOI: 10.1063/1.5090222
   * E. Caldeweyher, J.-M. Mewes, S. Ehlert and S. Grimme, Phys. Chem. Chem. Phys.
     2020, 22, 8499-8512. DOI: 10.1039/D0CP00502A
   
   for sTDA-xTB:
   * S. Grimme and C. Bannwarth, J. Chem. Phys., 2016, 145, 054103.
     DOI: 10.1063/1.4959605
   
   in the mass-spec context:
   * V. Asgeirsson, C. Bauer and S. Grimme, Chem. Sci., 2017, 8, 4879.
     DOI: 10.1039/c7sc00601b
   * J. Koopman and S. Grimme, ACS Omega 2019, 4, 12, 15120-15133.
     DOI: 10.1021/acsomega.9b02011
   
   for metadynamics refer to:
   * S. Grimme, J. Chem. Theory Comput., 2019, 155, 2847-2862
     DOI: 10.1021/acs.jctc.9b00143
   
   for SPH calculations refer to:
   * S. Spicher and S. Grimme, J. Chem. Theory Comput., 2021, 17, 1701-1714
     DOI: 10.1021/acs.jctc.0c01306
   
   for ONIOM refer to:
   * C. Plett, A. Katbashev, S. Ehlert, S. Grimme, M. Bursch,
     Phys. Chem. Chem. Phys., 2023, 25, 17860-17868. DOI: 10.1039/D3CP02178E
   
   for DIPRO refer to:
   * J. Kohn, N. Gildemeister, S. Grimme, D. Fazzi, A. Hansen,
     J. Chem. Phys., 2023, just accepted.
   
   for PTB refer to:
   * S. Grimme, M. Mueller, A. Hansen, J. Chem. Phys., 2023, 158, 124111.
     DOI: 10.1063/5.0137838
   
   with help from (in alphabetical order)
   P. Atkinson, C. Bannwarth, F. Bohle, G. Brandenburg, E. Caldeweyher
   M. Checinski, S. Dohm, S. Ehlert, S. Ehrlich, I. Gerasimov, C. Hölzer
   A. Katbashev, J. Kohn, J. Koopman, C. Lavigne, S. Lehtola, F. März, M. Müller,
   F. Musil, H. Neugebauer, J. Pisarek, C. Plett, P. Pracht, F. Pultar,
   J. Seibert, P. Shushkov, S. Spicher, M. Stahn, M. Steiner, T. Strunk,
   J. Stückrath, T. Rose, and J. Unsleber
   
 * started run on 2025/04/09 at 05:21:01.399     
   ID    Z sym.   atoms
    1    6 C      1, 2, 7, 8, 10, 15, 16, 18, 19
    2    8 O      3, 6, 14, 17
    3   15 P      4, 12
    4   16 S      5, 9, 11, 13
    5    1 H      20-41

           -------------------------------------------------
          |                Calculation Setup                |
           -------------------------------------------------

          program call               : /srv/scratch/z5358697/.xtb/bin/xtb gas.coord --gfn2 --sp --chrg 0 --norestart --parallel 1
          hostname                   : k163
          coordinate file            : gas.coord
          omp threads                :                     1


           -------------------------------------------------
          |                 G F N 2 - x T B                 |
           -------------------------------------------------

        Reference                      10.1021/acs.jctc.8b01176
      * Hamiltonian:
        H0-scaling (s, p, d)           1.850000    2.230000    2.230000
        zeta-weighting                 0.500000
      * Dispersion:
        s8                             2.700000
        a1                             0.520000
        a2                             5.000000
        s9                             5.000000
      * Repulsion:
        kExp                           1.500000    1.000000
        rExp                           1.000000
      * Coulomb:
        alpha                          2.000000
        third order                    shell-resolved
        anisotropic                    true
        a3                             3.000000
        a5                             4.000000
        cn-shift                       1.200000
        cn-exp                         4.000000
        max-rad                        5.000000


          ...................................................
          :                      SETUP                      :
          :.................................................:
          :  # basis functions                 134          :
          :  # atomic orbitals                 128          :
          :  # shells                           66          :
          :  # electrons                       116          :
          :  max. iterations                   250          :
          :  Hamiltonian                  GFN2-xTB          :
          :  restarted?                      false          :
          :  GBSA solvation                  false          :
          :  PC potential                    false          :
          :  electronic temp.          300.0000000     K    :
          :  accuracy                    1.0000000          :
          :  -> integral cutoff          0.2500000E+02      :
          :  -> integral neglect         0.1000000E-07      :
          :  -> SCF convergence          0.1000000E-05 Eh   :
          :  -> wf. convergence          0.1000000E-03 e    :
          :  Broyden damping             0.4000000          :
          :  net charge                          0          :
          :  unpaired electrons                  0          :
          ...................................................

 iter      E             dE          RMSdq      gap      omega  full diag
   1    -65.3883260 -0.653883E+02  0.622E+00    4.10       0.0  T
   2    -65.5516431 -0.163317E+00  0.385E+00    3.11       1.0  T
   3    -65.5704515 -0.188083E-01  0.135E+00    2.89       1.0  T
   4    -65.5727617 -0.231024E-02  0.561E-01    2.66       1.0  T
   5    -65.5736373 -0.875537E-03  0.262E-01    2.77       1.0  T
   6    -65.5738863 -0.249026E-03  0.125E-01    2.75       1.0  T
   7    -65.5739471 -0.607920E-04  0.466E-02    2.76       1.0  T
   8    -65.5739552 -0.817899E-05  0.209E-02    2.77       1.0  T
   9    -65.5739562 -0.943495E-06  0.542E-03    2.77       2.9  T
  10    -65.5739563 -0.932071E-07  0.270E-03    2.77       5.8  T
  11    -65.5739563 -0.573935E-08  0.498E-04    2.77      31.3  T
  12    -65.5739563 -0.100228E-08  0.246E-04    2.77      63.4  T

   *** convergence criteria satisfied after 12 iterations ***

         #    Occupation            Energy/Eh            Energy/eV
      -------------------------------------------------------------
         1        2.0000           -0.7584119             -20.6374
       ...           ...                  ...                  ...
        52        2.0000           -0.4350152             -11.8374
        53        2.0000           -0.4112910             -11.1918
        54        2.0000           -0.4007569             -10.9051
        55        2.0000           -0.3762867             -10.2393
        56        2.0000           -0.3744388             -10.1890
        57        2.0000           -0.3703895             -10.0788
        58        2.0000           -0.3679156             -10.0115 (HOMO)
        59                         -0.2661299              -7.2418 (LUMO)
        60                         -0.2405627              -6.5460
        61                         -0.2111351              -5.7453
        62                         -0.1872495              -5.0953
        63                         -0.1595502              -4.3416
       ...                                ...                  ...
       128                          1.2769836              34.7485
      -------------------------------------------------------------
                  HL-Gap            0.1017857 Eh            2.7697 eV
             Fermi-level           -0.3170227 Eh           -8.6266 eV

 SCC (total)                   0 d,  0 h,  0 min,  0.059 sec
 SCC setup                      ...        0 min,  0.000 sec (  0.442%)
 Dispersion                     ...        0 min,  0.000 sec (  0.525%)
 classical contributions        ...        0 min,  0.000 sec (  0.098%)
 integral evaluation            ...        0 min,  0.011 sec ( 19.039%)
 iterations                     ...        0 min,  0.025 sec ( 42.002%)
 molecular gradient             ...        0 min,  0.022 sec ( 37.520%)
 printout                       ...        0 min,  0.000 sec (  0.350%)

         :::::::::::::::::::::::::::::::::::::::::::::::::::::
         ::                     SUMMARY                     ::
         :::::::::::::::::::::::::::::::::::::::::::::::::::::
         :: total energy             -65.011862613128 Eh    ::
         :: gradient norm              0.029815658060 Eh/a0 ::
         :: HOMO-LUMO gap              2.769729461465 eV    ::
         ::.................................................::
         :: SCC energy               -65.572746549050 Eh    ::
         :: -> isotropic ES            0.104818578080 Eh    ::
         :: -> anisotropic ES         -0.009395850727 Eh    ::
         :: -> anisotropic XC          0.031260321396 Eh    ::
         :: -> dispersion             -0.054007629209 Eh    ::
         :: repulsion energy           0.560883935923 Eh    ::
         :: add. restraining           0.000000000000 Eh    ::
         :: total charge               0.000000000000 e     ::
         :::::::::::::::::::::::::::::::::::::::::::::::::::::

           -------------------------------------------------
          |                Property Printout                |
           -------------------------------------------------

    * Orbital Energies and Occupations

         #    Occupation            Energy/Eh            Energy/eV
      -------------------------------------------------------------
         1        2.0000           -0.7584119             -20.6374
       ...           ...                  ...                  ...
        46        2.0000           -0.4714353             -12.8284
        47        2.0000           -0.4656177             -12.6701
        48        2.0000           -0.4624686             -12.5844
        49        2.0000           -0.4572845             -12.4433
        50        2.0000           -0.4492882             -12.2258
        51        2.0000           -0.4465776             -12.1520
        52        2.0000           -0.4350152             -11.8374
        53        2.0000           -0.4112910             -11.1918
        54        2.0000           -0.4007569             -10.9051
        55        2.0000           -0.3762867             -10.2393
        56        2.0000           -0.3744388             -10.1890
        57        2.0000           -0.3703895             -10.0788
        58        2.0000           -0.3679156             -10.0115 (HOMO)
        59                         -0.2661299              -7.2418 (LUMO)
        60                         -0.2405627              -6.5460
        61                         -0.2111351              -5.7453
        62                         -0.1872495              -5.0953
        63                         -0.1595502              -4.3416
        64                         -0.1554865              -4.2310
        65                         -0.1527681              -4.1570
        66                         -0.1405822              -3.8254
        67                         -0.1309325              -3.5629
        68                         -0.1119801              -3.0471
        69                         -0.0421588              -1.1472
       ...                                ...                  ...
       128                          1.2769836              34.7485
      -------------------------------------------------------------
                  HL-Gap            0.1017857 Eh            2.7697 eV
             Fermi-level           -0.3170227 Eh           -8.6266 eV

     #   Z          covCN         q      C6AA      α(0)
     1   6 C        3.751    -0.116    22.782     6.807
     2   6 C        3.867     0.083    19.168     6.226
     3   8 O        1.655    -0.250    18.160     5.753
     4  15 P        3.849     0.384   144.294    21.578
     5  16 S        0.925    -0.423   157.726    21.242
     6   8 O        1.654    -0.249    18.145     5.750
     7   6 C        3.847     0.085    19.147     6.224
     8   6 C        3.751    -0.117    22.801     6.810
     9  16 S        2.005    -0.123   146.227    20.353
    10   6 C        3.817     0.042    19.865     6.343
    11  16 S        2.008    -0.176   148.489    20.509
    12  15 P        3.811     0.369   144.886    21.622
    13  16 S        0.926    -0.380   155.681    21.104
    14   8 O        1.654    -0.229    17.814     5.698
    15   6 C        3.846     0.084    19.159     6.226
    16   6 C        3.752    -0.111    22.683     6.792
    17   8 O        1.655    -0.249    18.151     5.751
    18   6 C        3.823     0.082    19.207     6.237
    19   6 C        3.752    -0.117    22.806     6.810
    20   1 H        0.925     0.061     2.190     2.314
    21   1 H        0.925     0.064     2.157     2.297
    22   1 H        0.924     0.058     2.217     2.329
    23   1 H        0.924     0.061     2.190     2.314
    24   1 H        0.924     0.065     2.136     2.286
    25   1 H        0.924     0.062     2.176     2.307
    26   1 H        0.924     0.064     2.148     2.292
    27   1 H        0.925     0.063     2.165     2.301
    28   1 H        0.925     0.066     2.132     2.284
    29   1 H        0.925     0.057     2.240     2.340
    30   1 H        0.925     0.077     2.009     2.216
    31   1 H        0.925     0.091     1.865     2.135
    32   1 H        0.924     0.054     2.277     2.360
    33   1 H        0.924     0.069     2.100     2.266
    34   1 H        0.925     0.061     2.184     2.311
    35   1 H        0.925     0.062     2.179     2.309
    36   1 H        0.925     0.063     2.164     2.301
    37   1 H        0.924     0.056     2.245     2.343
    38   1 H        0.924     0.068     2.107     2.270
    39   1 H        0.925     0.059     2.215     2.327
    40   1 H        0.925     0.070     2.083     2.257
    41   1 H        0.925     0.063     2.162     2.299

 Mol. C6AA /au·bohr⁶  :      26543.190766
 Mol. C8AA /au·bohr⁸  :     863315.663898
 Mol. α(0) /au        :        258.293269


Wiberg/Mayer (AO) data.
largest (>0.10) Wiberg bond orders for each atom

 ---------------------------------------------------------------------------
     #   Z sym  total        # sym  WBO       # sym  WBO       # sym  WBO
 ---------------------------------------------------------------------------
     1   6 C    3.991 --     2 C    1.021    21 H    0.983    20 H    0.980
                            22 H    0.973
     2   6 C    3.910 --     1 C    1.021    24 H    0.969    23 H    0.966
                             3 O    0.909
     3   8 O    2.406 --     4 P    1.303     2 C    0.909
     4  15 P    5.249 --     5 S    1.526     6 O    1.318     3 O    1.303
                             9 S    0.973
     5  16 S    1.864 --     4 P    1.526     9 S    0.137
     6   8 O    2.405 --     4 P    1.318     7 C    0.892
     7   6 C    3.905 --     8 C    1.022    25 H    0.971    26 H    0.963
                             6 O    0.892
     8   6 C    3.987 --     7 C    1.022    29 H    0.984    27 H    0.979
                            28 H    0.978
     9  16 S    2.284 --    10 C    0.984     4 P    0.973     5 S    0.137
    10   6 C    3.960 --    11 S    0.992     9 S    0.984    30 H    0.964
                            31 H    0.951
    11  16 S    2.278 --    10 C    0.992    12 P    0.936    13 S    0.144
    12  15 P    5.293 --    13 S    1.566    14 O    1.354    17 O    1.310
                            11 S    0.936
    13  16 S    1.903 --    12 P    1.566    11 S    0.144
    14   8 O    2.427 --    12 P    1.354    15 C    0.883
    15   6 C    3.907 --    16 C    1.021    32 H    0.973    33 H    0.964
                            14 O    0.883
    16   6 C    3.989 --    15 C    1.021    34 H    0.984    36 H    0.981
                            35 H    0.979
    17   8 O    2.410 --    12 P    1.310    18 C    0.904
    18   6 C    3.911 --    19 C    1.022    37 H    0.970    38 H    0.969
                            17 O    0.904
    19   6 C    3.989 --    18 C    1.022    40 H    0.982    39 H    0.980
                            41 H    0.974
    20   1 H    0.995 --     1 C    0.980
    21   1 H    0.996 --     1 C    0.983
    22   1 H    0.997 --     1 C    0.973
    23   1 H    0.996 --     2 C    0.966
    24   1 H    0.995 --     2 C    0.969
    25   1 H    0.996 --     7 C    0.971
    26   1 H    0.996 --     7 C    0.963
    27   1 H    0.995 --     8 C    0.979
    28   1 H    0.996 --     8 C    0.978
    29   1 H    0.997 --     8 C    0.984
    30   1 H    0.994 --    10 C    0.964
    31   1 H    0.992 --    10 C    0.951
    32   1 H    0.997 --    15 C    0.973
    33   1 H    0.995 --    15 C    0.964
    34   1 H    0.996 --    16 C    0.984
    35   1 H    0.994 --    16 C    0.979
    36   1 H    0.996 --    16 C    0.981
    37   1 H    0.997 --    18 C    0.970
    38   1 H    0.995 --    18 C    0.969
    39   1 H    0.996 --    19 C    0.980
    40   1 H    0.995 --    19 C    0.982
    41   1 H    0.996 --    19 C    0.974
 ---------------------------------------------------------------------------

Topologies differ in total number of bonds
Writing topology from bond orders to xtbtopo.mol

molecular dipole:
                 x           y           z       tot (Debye)
 q only:        0.321      -0.114       1.439
   full:        0.594      -0.124       1.545       4.218
molecular quadrupole (traceless):
                xx          xy          yy          xz          yz          zz
 q only:        8.287       4.637       8.547     -14.956     -15.751     -16.834
  q+dip:       17.102      -2.669       6.186     -15.090     -17.012     -23.288
   full:       16.276      -1.021       6.262     -15.145     -17.910     -22.538


           -------------------------------------------------
          | TOTAL ENERGY              -65.011862613128 Eh   |
          | GRADIENT NORM               0.029815658060 Eh/α |
          | HOMO-LUMO GAP               2.769729461465 eV   |
           -------------------------------------------------

------------------------------------------------------------------------
 * finished run on 2025/04/09 at 05:21:01.510     
------------------------------------------------------------------------
 total:
 * wall-time:     0 d,  0 h,  0 min,  0.110 sec
 *  cpu-time:     0 d,  0 h,  0 min,  0.069 sec
 * ratio c/w:     0.627 speedup
 SCF:
 * wall-time:     0 d,  0 h,  0 min,  0.059 sec
 *  cpu-time:     0 d,  0 h,  0 min,  0.056 sec
 * ratio c/w:     0.944 speedup

